 Gaussian 16, Revision A.03,
 Gaussian 16:  ES64L-G16RevA.03 25-Dec-2016

 --------------------------------------------------------------------
 #p B3LYP/6-311+G** #p TD=(singlets,nstates=30)IOp(6/8=3) IOp(9/40=4)
 --------------------------------------------------------------------

 ---------------------------------------------
 Scan Step 230, Bond Length 1.6500000000000001
 ---------------------------------------------
 Symbolic Z-matrix:
 Charge =  0 Multiplicity = 1

                         Standard orientation:
 ---------------------------------------------------------------------
 Center     Atomic      Atomic             Coordinates (Angstroms)
 Number     Number       Type             X           Y           Z
 ---------------------------------------------------------------------
      1          6           0        0.000000    0.000000   -0.751081
      2          1           0        0.000000    0.937260   -1.342431
      3          1           0       -0.000000   -0.937260   -1.342431
      4          8           0        0.000000   -0.000000    0.898919
 ---------------------------------------------------------------------

 SCF Done:  E(RB3LYP) =  -114.409270291     A.U. after   10 cycles

 Excitation energies and oscillator strengths:

 Excited State   1:      Singlet-A2     1.8058 eV  686.59 nm  f=0.0000  <S**2>=0.000
       3 -> 27         0.00106
       3 -> 38         0.00076
       3 -> 46         0.00333
       4 -> 27         0.00062
       4 -> 38        -0.00010
       4 -> 46        -0.00123
       5 ->  9         0.00587
       5 -> 13         0.00103
       5 -> 18         0.00258
       5 -> 23         0.00160
       5 -> 28         0.00220
       5 -> 31        -0.00011
       5 -> 37         0.00121
       5 -> 44         0.00030
       5 -> 52         0.00030
       6 -> 27        -0.00063
       6 -> 38        -0.00073
       6 -> 46         0.00125
       7 -> 12        -0.00098
       7 -> 16         0.00490
       7 -> 19        -0.00418
       7 -> 22        -0.00089
       7 -> 25         0.00085
       7 -> 30        -0.00163
       7 -> 33         0.00034
       7 -> 49         0.00012
       7 -> 50         0.00014
       7 -> 53         0.00043
       8 ->  9         0.70896
       8 -> 13        -0.01147
       8 -> 18         0.02148
       8 -> 23        -0.00276
       8 -> 28         0.01094
       8 -> 31         0.00126
       8 -> 37         0.00060
       8 -> 48        -0.00031
       8 -> 52         0.00193
       3 <- 27         0.00045
       3 <- 38         0.00050
       3 <- 46         0.00337
       4 <- 27         0.00109
       4 <- 38         0.00023
       4 <- 46        -0.00099
       5 <-  9        -0.00011
       5 <- 13        -0.00048
       5 <- 18        -0.00061
       5 <- 23         0.00024
       5 <- 28        -0.00042
       5 <- 31         0.00032
       5 <- 37         0.00069
       6 <- 38        -0.00058
       6 <- 46         0.00095
       7 <- 12         0.00090
       7 <- 16        -0.01023
       7 <- 19         0.00417
       7 <- 22         0.00669
       7 <- 25         0.00057
       7 <- 30         0.00538
       7 <- 33        -0.00046
       7 <- 36         0.00063
       7 <- 40        -0.00040
       7 <- 42         0.00015
       7 <- 49        -0.00043
       7 <- 53         0.00146
       8 <-  9        -0.05653
       8 <- 13         0.00025
       8 <- 18        -0.00688
       8 <- 28        -0.00249
       8 <- 31        -0.00067
       8 <- 37        -0.00039
       8 <- 48         0.00011
       8 <- 52         0.00050
 This state for optimization and/or second-order correction.
 Total Energy, E(TD-HF/TD-DFT) =  -114.342908838
 Copying the excited state density for this state as the 1-particle RhoCI density.

 Excited State   2:      Singlet-A1     4.6761 eV  265.14 nm  f=0.0633  <S**2>=0.000
       3 -> 10        -0.01765
       3 -> 11        -0.01039
       3 -> 14         0.00856
       3 -> 15         0.00383
       3 -> 17        -0.00344
       3 -> 20        -0.00398
       3 -> 21        -0.00067
       3 -> 24         0.00196
       3 -> 26         0.00329
       3 -> 29        -0.00128
       3 -> 32         0.00276
       3 -> 34         0.00201
       3 -> 35        -0.00117
       3 -> 39         0.00073
       3 -> 43         0.00047
       3 -> 45         0.00031
       3 -> 47         0.00228
       3 -> 51         0.00117
       3 -> 54         0.00013
       4 -> 10        -0.00852
       4 -> 11         0.01301
       4 -> 14         0.00446
       4 -> 15        -0.00963
       4 -> 17         0.00297
       4 -> 20         0.00447
       4 -> 21         0.00040
       4 -> 24        -0.00472
       4 -> 26         0.00470
       4 -> 29         0.00100
       4 -> 32        -0.00136
       4 -> 34        -0.00146
       4 -> 35         0.00042
       4 -> 41         0.00012
       4 -> 43        -0.00049
       4 -> 45        -0.00083
       4 -> 47        -0.00111
       4 -> 51        -0.00033
       4 -> 54         0.00012
       5 -> 12         0.01537
       5 -> 16         0.00872
       5 -> 19         0.00144
       5 -> 22         0.00751
       5 -> 25         0.00742
       5 -> 33        -0.00293
       5 -> 36         0.00278
       5 -> 40        -0.00141
       5 -> 42         0.00069
       5 -> 49         0.00040
       5 -> 50        -0.00072
       5 -> 53        -0.00011
       6 -> 10         0.17883
       6 -> 11         0.09022
       6 -> 14        -0.08738
       6 -> 15        -0.05071
       6 -> 17        -0.01931
       6 -> 20        -0.00842
       6 -> 21         0.01160
       6 -> 24        -0.01257
       6 -> 26        -0.00593
       6 -> 29        -0.00739
       6 -> 32         0.00131
       6 -> 34         0.00142
       6 -> 35        -0.00043
       6 -> 39         0.00095
       6 -> 41        -0.00033
       6 -> 43         0.00084
       6 -> 45         0.00082
       6 -> 47         0.00113
       6 -> 51         0.00079
       6 -> 54        -0.00075
       7 ->  9         0.68261
       7 -> 13        -0.00146
       7 -> 18        -0.01656
       7 -> 23        -0.00068
       7 -> 28        -0.00073
       7 -> 31        -0.00311
       7 -> 37         0.00101
       7 -> 44        -0.00104
       7 -> 48         0.00033
       7 -> 52         0.00105
       8 -> 12        -0.00772
       8 -> 16         0.06130
       8 -> 19        -0.02314
       8 -> 22        -0.02314
       8 -> 25         0.00040
       8 -> 30        -0.01117
       8 -> 33         0.00189
       8 -> 36        -0.00215
       8 -> 40         0.00104
       8 -> 42        -0.00036
       8 -> 49         0.00050
       8 -> 50         0.00021
       8 -> 53        -0.00066
       3 <- 10        -0.01231
       3 <- 11        -0.00766
       3 <- 14         0.00652
       3 <- 15         0.00245
       3 <- 17        -0.00181
       3 <- 20        -0.00299
       3 <- 21        -0.00105
       3 <- 24         0.00115
       3 <- 26         0.00188
       3 <- 29        -0.00077
       3 <- 32         0.00251
       3 <- 34         0.00125
       3 <- 35        -0.00102
       3 <- 39         0.00067
       3 <- 43         0.00056
       3 <- 45         0.00050
       3 <- 47         0.00236
       3 <- 51         0.00115
       3 <- 54         0.00024
       4 <- 10        -0.00401
       4 <- 11         0.00841
       4 <- 14         0.00241
       4 <- 15        -0.00589
       4 <- 17         0.00156
       4 <- 20         0.00402
       4 <- 21         0.00027
       4 <- 24        -0.00330
       4 <- 26         0.00381
       4 <- 29         0.00024
       4 <- 32        -0.00163
       4 <- 34        -0.00126
       4 <- 35         0.00067
       4 <- 43        -0.00047
       4 <- 45        -0.00088
       4 <- 47        -0.00073
       4 <- 51        -0.00018
       5 <- 12         0.00738
       5 <- 16         0.00472
       5 <- 19         0.00103
       5 <- 22         0.00482
       5 <- 25         0.00521
       5 <- 30         0.00011
       5 <- 33        -0.00231
       5 <- 36         0.00229
       5 <- 40        -0.00124
       5 <- 42         0.00058
       5 <- 49         0.00036
       5 <- 50        -0.00066
       5 <- 53        -0.00010
       6 <- 10         0.05534
       6 <- 11         0.03028
       6 <- 14        -0.03565
       6 <- 15        -0.02266
       6 <- 17        -0.00985
       6 <- 20        -0.00581
       6 <- 21         0.00698
       6 <- 24        -0.00780
       6 <- 26        -0.00343
       6 <- 29        -0.00513
       6 <- 32         0.00171
       6 <- 34         0.00171
       6 <- 35        -0.00074
       6 <- 39         0.00098
       6 <- 41        -0.00024
       6 <- 43         0.00071
       6 <- 45         0.00070
       6 <- 47         0.00069
       6 <- 51         0.00063
       6 <- 54        -0.00064
       7 <-  9        -0.12671
       7 <- 13         0.00654
       7 <- 18        -0.01340
       7 <- 23         0.00287
       7 <- 28        -0.00339
       7 <- 31        -0.00147
       7 <- 37         0.00041
       7 <- 44        -0.00066
       7 <- 48        -0.00023
       7 <- 52         0.00093
       8 <- 12        -0.00207
       8 <- 16         0.02350
       8 <- 19        -0.01064
       8 <- 22        -0.01312
       8 <- 30        -0.00826
       8 <- 33         0.00143
       8 <- 36        -0.00166
       8 <- 40         0.00084
       8 <- 42        -0.00029
       8 <- 49         0.00032
       8 <- 50         0.00018
       8 <- 53        -0.00060

 Excited State   3:      Singlet-B1     5.0529 eV  245.37 nm  f=0.0013  <S**2>=0.000
       3 ->  9        -0.02767
       3 -> 13         0.00150
       3 -> 18        -0.00440
       3 -> 23         0.00163
       3 -> 28        -0.00085
       3 -> 31        -0.00049
       3 -> 44         0.00023
       3 -> 48         0.00099
       3 -> 52         0.00092
       4 ->  9         0.01289
       4 -> 13        -0.00262
       4 -> 18         0.00020
       4 -> 23        -0.00236
       4 -> 28         0.00027
       4 -> 31        -0.00147
       4 -> 37        -0.00039
       4 -> 44         0.00013
       4 -> 48        -0.00100
       4 -> 52        -0.00053
       5 -> 38         0.00201
       5 -> 46         0.00079
       6 ->  9         0.70373
       6 -> 13        -0.01933
       6 -> 18         0.01619
       6 -> 23        -0.01079
       6 -> 28         0.00402
       6 -> 31         0.00309
       6 -> 37        -0.00207
       6 -> 44        -0.00266
       6 -> 48         0.00399
       6 -> 52         0.00137
       7 -> 10         0.06108
       7 -> 11         0.02645
       7 -> 14        -0.01961
       7 -> 15        -0.00633
       7 -> 17        -0.00899
       7 -> 20         0.00313
       7 -> 21         0.00047
       7 -> 24        -0.00088
       7 -> 26        -0.00174
       7 -> 29        -0.00385
       7 -> 32        -0.00046
       7 -> 34         0.00088
       7 -> 35         0.00172
       7 -> 39         0.00015
       7 -> 41        -0.00045
       7 -> 43         0.00052
       7 -> 47         0.00409
       7 -> 51         0.00119
       7 -> 54         0.00034
       8 -> 27         0.00038
       8 -> 46         0.00510
       3 <-  9        -0.00932
       3 <- 13        -0.00072
       3 <- 18        -0.00281
       3 <- 23        -0.00059
       3 <- 28        -0.00052
       3 <- 31        -0.00070
       3 <- 44        -0.00022
       3 <- 48         0.00115
       3 <- 52         0.00075
       4 <-  9         0.00671
       4 <- 13        -0.00034
       4 <- 18         0.00183
       4 <- 23        -0.00068
       4 <- 28         0.00155
       4 <- 31        -0.00098
       4 <- 37        -0.00022
       4 <- 48        -0.00087
       4 <- 52        -0.00030
       5 <- 27        -0.00053
       5 <- 38         0.00165
       5 <- 46         0.00070
       6 <-  9        -0.02696
       6 <- 13         0.00173
       6 <- 18        -0.00344
       6 <- 23        -0.00025
       6 <- 28        -0.00348
       6 <- 31         0.00105
       6 <- 37        -0.00178
       6 <- 44        -0.00135
       6 <- 48         0.00357
       6 <- 52         0.00042
       7 <- 10        -0.02226
       7 <- 11        -0.01208
       7 <- 14         0.01515
       7 <- 15         0.01111
       7 <- 17         0.00181
       7 <- 20         0.00466
       7 <- 21        -0.00407
       7 <- 24         0.00441
       7 <- 26         0.00171
       7 <- 29         0.00129
       7 <- 34         0.00095
       7 <- 35         0.00246
       7 <- 39         0.00048
       7 <- 41        -0.00010
       7 <- 43         0.00036
       7 <- 45        -0.00025
       7 <- 47         0.00376
       7 <- 51         0.00111
       7 <- 54         0.00104
       8 <- 27         0.00085
       8 <- 38         0.00023
       8 <- 46         0.00477

 Excited State   4:      Singlet-B2     5.5709 eV  222.55 nm  f=0.0097  <S**2>=0.000
       3 -> 12        -0.00150
       3 -> 16         0.00199
       3 -> 19        -0.00462
       3 -> 22         0.00065
       3 -> 25         0.00059
       3 -> 30        -0.00336
       3 -> 33        -0.00016
       3 -> 36         0.00212
       3 -> 40        -0.00180
       3 -> 42         0.00031
       3 -> 49        -0.00302
       3 -> 50         0.00022
       3 -> 53         0.00031
       4 -> 12         0.00045
       4 -> 16        -0.00248
       4 -> 19         0.00030
       4 -> 22         0.00283
       4 -> 25        -0.00158
       4 -> 30         0.00143
       4 -> 33        -0.00047
       4 -> 36         0.00053
       4 -> 40         0.00048
       4 -> 49         0.00052
       4 -> 50        -0.00012
       5 -> 10         0.00933
       5 -> 11         0.00482
       5 -> 14        -0.00993
       5 -> 15         0.00420
       5 -> 17         0.00019
       5 -> 20         0.00216
       5 -> 21         0.00555
       5 -> 24         0.00183
       5 -> 26        -0.00152
       5 -> 29        -0.00199
       5 -> 32        -0.00186
       5 -> 34        -0.00104
       5 -> 35        -0.00033
       5 -> 39        -0.00101
       5 -> 41         0.00067
       5 -> 45         0.00014
       5 -> 47        -0.00078
       5 -> 51         0.00047
       5 -> 54        -0.00024
       6 -> 12         0.00305
       6 -> 16        -0.00198
       6 -> 19         0.00339
       6 -> 22        -0.00031
       6 -> 25        -0.00090
       6 -> 30        -0.00045
       6 -> 33         0.00023
       6 -> 36        -0.00201
       6 -> 40         0.00165
       6 -> 42        -0.00049
       6 -> 49         0.00164
       6 -> 53        -0.00039
       7 -> 27        -0.00068
       7 -> 38         0.00074
       7 -> 46         0.00375
       8 -> 10         0.66352
       8 -> 11         0.20850
       8 -> 14        -0.11705
       8 -> 15        -0.05056
       8 -> 17        -0.01500
       8 -> 21         0.00746
       8 -> 24        -0.00689
       8 -> 26        -0.00558
       8 -> 29        -0.01070
       8 -> 32        -0.00346
       8 -> 34        -0.00196
       8 -> 39        -0.00071
       8 -> 41         0.00012
       8 -> 43        -0.00031
       8 -> 45         0.00151
       8 -> 47        -0.00453
       8 -> 51         0.00218
       8 -> 54        -0.00188
       3 <- 12        -0.00054
       3 <- 16         0.00057
       3 <- 19        -0.00218
       3 <- 22         0.00093
       3 <- 25         0.00053
       3 <- 30        -0.00133
       3 <- 33        -0.00013
       3 <- 36         0.00161
       3 <- 40        -0.00159
       3 <- 42         0.00026
       3 <- 49        -0.00310
       3 <- 50         0.00020
       3 <- 53         0.00086
       4 <- 16        -0.00224
       4 <- 22         0.00267
       4 <- 25        -0.00099
       4 <- 30         0.00133
       4 <- 33        -0.00053
       4 <- 36         0.00076
       4 <- 40         0.00017
       4 <- 49         0.00039
       5 <- 10        -0.00022
       5 <- 11        -0.00147
       5 <- 14        -0.00117
       5 <- 15         0.00371
       5 <- 17         0.00021
       5 <- 20         0.00064
       5 <- 21         0.00209
       5 <- 24         0.00238
       5 <- 26        -0.00043
       5 <- 29        -0.00048
       5 <- 32        -0.00013
       5 <- 34        -0.00023
       5 <- 39        -0.00036
       5 <- 41         0.00069
       5 <- 43         0.00011
       5 <- 45         0.00042
       5 <- 47        -0.00068
       5 <- 51         0.00025
       6 <- 16         0.00604
       6 <- 19        -0.00276
       6 <- 22        -0.00437
       6 <- 25        -0.00065
       6 <- 30        -0.00511
       6 <- 33         0.00053
       6 <- 36        -0.00199
       6 <- 40         0.00167
       6 <- 42        -0.00056
       6 <- 49         0.00185
       6 <- 53        -0.00115
       7 <- 27        -0.00066
       7 <- 38         0.00058
       7 <- 46         0.00312
       8 <- 10        -0.02033
       8 <- 11        -0.01147
       8 <- 14         0.01141
       8 <- 15         0.00375
       8 <- 17         0.00058
       8 <- 20        -0.00263
       8 <- 21        -0.00219
       8 <- 24         0.00150
       8 <- 26         0.00190
       8 <- 29        -0.00063
       8 <- 32         0.00269
       8 <- 34         0.00131
       8 <- 35        -0.00038
       8 <- 39         0.00151
       8 <- 41         0.00049
       8 <- 43         0.00041
       8 <- 45         0.00222
       8 <- 47        -0.00346
       8 <- 51         0.00139
       8 <- 54        -0.00048

 Excited State   5:      Singlet-B1     6.6534 eV  186.35 nm  f=0.0072  <S**2>=0.000
       3 ->  9        -0.01480
       3 -> 13         0.00092
       3 -> 18        -0.00313
       3 -> 23         0.00106
       3 -> 28        -0.00344
       3 -> 31        -0.00156
       3 -> 44         0.00051
       3 -> 48        -0.00213
       4 ->  9        -0.03547
       4 -> 13         0.00640
       4 -> 18         0.00154
       4 -> 23         0.00465
       4 -> 28         0.00208
       4 -> 31        -0.00028
       4 -> 37         0.00037
       4 -> 44        -0.00045
       4 -> 48         0.00051
       4 -> 52         0.00010
       5 -> 27        -0.00741
       5 -> 38        -0.00306
       5 -> 46         0.00058
       6 ->  9        -0.06683
       6 -> 13        -0.00375
       6 -> 18         0.00233
       6 -> 23        -0.00131
       6 -> 28         0.00329
       6 -> 31        -0.00360
       6 -> 37         0.00182
       6 -> 48         0.00100
       6 -> 52        -0.00047
       7 -> 10         0.67064
       7 -> 11         0.17712
       7 -> 14        -0.10359
       7 -> 15        -0.05291
       7 -> 17        -0.00928
       7 -> 20        -0.00532
       7 -> 21         0.00337
       7 -> 24        -0.00936
       7 -> 26        -0.00773
       7 -> 29        -0.00643
       7 -> 32        -0.00141
       7 -> 34        -0.00392
       7 -> 35        -0.00207
       7 -> 39        -0.00068
       7 -> 43         0.00056
       7 -> 45         0.00077
       7 -> 47         0.00210
       7 -> 51         0.00107
       7 -> 54        -0.00125
       8 -> 27         0.00125
       8 -> 38         0.00035
       8 -> 46         0.00243
       3 <-  9        -0.00308
       3 <- 13         0.00066
       3 <- 18        -0.00127
       3 <- 23         0.00064
       3 <- 28        -0.00210
       3 <- 31        -0.00030
       3 <- 37        -0.00021
       3 <- 44         0.00022
       3 <- 48        -0.00233
       3 <- 52         0.00043
       4 <-  9        -0.01044
       4 <- 13         0.00229
       4 <- 18         0.00056
       4 <- 23         0.00218
       4 <- 28         0.00183
       4 <- 31        -0.00040
       4 <- 37         0.00044
       4 <- 44        -0.00068
       4 <- 48         0.00010
       5 <- 27        -0.00481
       5 <- 38        -0.00230
       5 <- 46         0.00052
       6 <-  9        -0.02297
       6 <- 18        -0.00351

 The electronic state is 1-A1.
 Alpha  occ. eigenvalues --  -19.17362 -10.32980  -0.91887  -0.70101  -0.48909
 Alpha  occ. eigenvalues --   -0.41007  -0.32473  -0.28922
 Alpha virt. eigenvalues --   -0.15181  -0.02271   0.00758   0.04079   0.06116
 Alpha virt. eigenvalues --    0.08065   0.12559   0.14180   0.18907   0.21318
 Alpha virt. eigenvalues --    0.23982   0.30226   0.38915   0.40733   0.50895

 Mulliken charges:
               1
     1  C   -0.069754
     2  H    0.183020
     3  H    0.183020
     4  O   -0.296287
 Sum of Mulliken charges =  -0.00000

 Dipole moment (field-independent basis, Debye):
    X=             -0.0000    Y=              0.0000    Z=             -3.8569  Tot=              3.8569
 Quadrupole moment (field-independent basis, Debye-Ang):
   XX=            -12.8147   YY=            -11.9214   ZZ=            -11.1657
   XY=              0.0000   XZ=              0.0000   YZ=             -0.0000

 Normal termination of Gaussian 16 at Fri Sep 17 10:53:04 2021.
