 Gaussian 16, Revision A.03,
 Gaussian 16:  ES64L-G16RevA.03 25-Dec-2016

 --------------------------------------------------------------------
 #p B3LYP/6-311+G** #p TD=(singlets,nstates=30)IOp(6/8=3) IOp(9/40=4)
 --------------------------------------------------------------------

 --------------------------------
 Scan Step 205, Bond Length 1.525
 --------------------------------
 Symbolic Z-matrix:
 Charge =  0 Multiplicity = 1

                         Standard orientation:
 ---------------------------------------------------------------------
 Center     Atomic      Atomic             Coordinates (Angstroms)
 Number     Number       Type             X           Y           Z
 ---------------------------------------------------------------------
      1          6           0        0.000000   -0.000000   -0.688581
      2          1           0        0.000000    0.937260   -1.279931
      3          1           0       -0.000000   -0.937260   -1.279931
      4          8           0        0.000000    0.000000    0.836419
 ---------------------------------------------------------------------

 SCF Done:  E(RB3LYP) =  -114.455996642     A.U. after   10 cycles

 Excitation energies and oscillator strengths:

 Excited State   1:      Singlet-A2     2.2813 eV  543.48 nm  f=0.0000  <S**2>=0.000
       3 -> 27         0.00139
       3 -> 38         0.00107
       3 -> 46         0.00321
       4 -> 27         0.00086
       4 -> 38        -0.00019
       4 -> 46        -0.00136
       5 ->  9         0.01005
       5 -> 13         0.00067
       5 -> 18         0.00338
       5 -> 23         0.00157
       5 -> 28         0.00299
       5 -> 31        -0.00032
       5 -> 37         0.00169
       5 -> 44         0.00038
       5 -> 52         0.00041
       6 -> 27        -0.00061
       6 -> 38        -0.00082
       6 -> 46         0.00146
       7 -> 12        -0.00081
       7 -> 16         0.00448
       7 -> 19        -0.00383
       7 -> 22        -0.00059
       7 -> 25         0.00107
       7 -> 30        -0.00141
       7 -> 33         0.00040
       7 -> 49         0.00013
       7 -> 50         0.00019
       7 -> 53         0.00046
       8 ->  9         0.70796
       8 -> 13        -0.01637
       8 -> 18         0.02185
       8 -> 23        -0.00455
       8 -> 28         0.01107
       8 -> 31         0.00065
       8 -> 37         0.00065
       8 -> 48        -0.00030
       8 -> 52         0.00193
       3 <- 27         0.00071
       3 <- 38         0.00078
       3 <- 46         0.00327
       4 <- 27         0.00144
       4 <- 38         0.00023
       4 <- 46        -0.00111
       5 <-  9        -0.00040
       5 <- 13        -0.00059
       5 <- 18        -0.00078
       5 <- 23         0.00032
       5 <- 28        -0.00055
       5 <- 31         0.00041
       5 <- 37         0.00093
       5 <- 44         0.00013
       5 <- 52         0.00011
       6 <- 38        -0.00068
       6 <- 46         0.00114
       7 <- 12         0.00029
       7 <- 16        -0.00970
       7 <- 19         0.00310
       7 <- 22         0.00717
       7 <- 25         0.00046
       7 <- 30         0.00505
       7 <- 33        -0.00065
       7 <- 36         0.00113
       7 <- 40         0.00061
       7 <- 42         0.00012
       7 <- 49        -0.00032
       7 <- 50         0.00012
       7 <- 53         0.00145
       8 <-  9        -0.04508
       8 <- 13         0.00083
       8 <- 18        -0.00617
       8 <- 23         0.00033
       8 <- 28        -0.00217
       8 <- 31        -0.00057
       8 <- 37        -0.00059
       8 <- 52         0.00052
 This state for optimization and/or second-order correction.
 Total Energy, E(TD-HF/TD-DFT) =  -114.372159742
 Copying the excited state density for this state as the 1-particle RhoCI density.

 Excited State   2:      Singlet-A1     5.7827 eV  214.41 nm  f=0.0961  <S**2>=0.000
       3 -> 10         0.01081
       3 -> 11        -0.01666
       3 -> 14        -0.01280
       3 -> 15         0.01420
       3 -> 17        -0.00374
       3 -> 20        -0.00336
       3 -> 21        -0.00228
       3 -> 24         0.00351
       3 -> 26         0.00525
       3 -> 29        -0.00074
       3 -> 32         0.00279
       3 -> 34         0.00327
       3 -> 35        -0.00022
       3 -> 39         0.00100
       3 -> 43         0.00043
       3 -> 45         0.00067
       3 -> 47         0.00208
       3 -> 51         0.00078
       3 -> 54         0.00026
       4 -> 10         0.01750
       4 -> 11         0.01069
       4 -> 14        -0.00991
       4 -> 15        -0.00849
       4 -> 17         0.00329
       4 -> 20         0.00683
       4 -> 21         0.00037
       4 -> 24        -0.00579
       4 -> 26         0.00558
       4 -> 29         0.00116
       4 -> 32        -0.00125
       4 -> 34        -0.00227
       4 -> 39        -0.00016
       4 -> 41         0.00014
       4 -> 43        -0.00034
       4 -> 45         0.00047
       4 -> 47        -0.00154
       4 -> 51        -0.00028
       5 -> 12         0.02117
       5 -> 16         0.01626
       5 -> 19         0.00160
       5 -> 22         0.00658
       5 -> 25         0.00988
       5 -> 30        -0.00091
       5 -> 33        -0.00327
       5 -> 36         0.00259
       5 -> 40         0.00158
       5 -> 42         0.00062
       5 -> 49         0.00056
       5 -> 50        -0.00060
       5 -> 53        -0.00019
       6 -> 10        -0.08352
       6 -> 11         0.10665
       6 -> 14         0.08087
       6 -> 15        -0.10559
       6 -> 17        -0.02041
       6 -> 20        -0.01757
       6 -> 21         0.01830
       6 -> 24        -0.01733
       6 -> 26        -0.00870
       6 -> 29        -0.00907
       6 -> 32         0.00024
       6 -> 34         0.00180
       6 -> 35        -0.00125
       6 -> 39         0.00062
       6 -> 41        -0.00058
       6 -> 43         0.00071
       6 -> 45        -0.00049
       6 -> 47         0.00158
       6 -> 51         0.00084
       6 -> 54        -0.00052
       7 ->  9         0.68583
       7 -> 13         0.00632
       7 -> 18        -0.02178
       7 -> 23         0.00188
       7 -> 28        -0.00268
       7 -> 31        -0.00272
       7 -> 37         0.00062
       7 -> 44        -0.00105
       7 -> 48         0.00052
       7 -> 52         0.00103
       8 -> 12        -0.00546
       8 -> 16         0.08772
       8 -> 19        -0.02593
       8 -> 22        -0.03341
       8 -> 25         0.00127
       8 -> 30        -0.01350
       8 -> 33         0.00318
       8 -> 36        -0.00399
       8 -> 40        -0.00182
       8 -> 42        -0.00034
       8 -> 49         0.00067
       8 -> 50         0.00028
       8 -> 53        -0.00081
       3 <- 10         0.00673
       3 <- 11        -0.01099
       3 <- 14        -0.00916
       3 <- 15         0.00959
       3 <- 17        -0.00187
       3 <- 20        -0.00223
       3 <- 21        -0.00234
       3 <- 24         0.00231
       3 <- 26         0.00327
       3 <- 29        -0.00040
       3 <- 32         0.00256
       3 <- 34         0.00217
       3 <- 35        -0.00026
       3 <- 39         0.00083
       3 <- 41         0.00011
       3 <- 43         0.00050
       3 <- 45         0.00051
       3 <- 47         0.00227
       3 <- 51         0.00075
       3 <- 54         0.00034
       4 <- 10         0.00841
       4 <- 11         0.00629
       4 <- 14        -0.00478
       4 <- 15        -0.00498
       4 <- 17         0.00153
       4 <- 20         0.00510
       4 <- 21         0.00031
       4 <- 24        -0.00376
       4 <- 26         0.00421
       4 <- 29         0.00029
       4 <- 32        -0.00160
       4 <- 34        -0.00198
       4 <- 35         0.00028
       4 <- 39        -0.00022
       4 <- 43        -0.00033
       4 <- 45         0.00072
       4 <- 47        -0.00116
       4 <- 51        -0.00011
       5 <- 12         0.00831
       5 <- 16         0.00751
       5 <- 19         0.00105
       5 <- 22         0.00382
       5 <- 25         0.00632
       5 <- 30        -0.00047
       5 <- 33        -0.00246
       5 <- 36         0.00207
       5 <- 40         0.00135
       5 <- 42         0.00050
       5 <- 49         0.00048
       5 <- 50        -0.00055
       5 <- 53        -0.00017
       6 <- 10        -0.02212
       6 <- 11         0.03025
       6 <- 14         0.02917
       6 <- 15        -0.04162
       6 <- 17        -0.00898
       6 <- 20        -0.00964
       6 <- 21         0.00994
       6 <- 24        -0.01010
       6 <- 26        -0.00512
       6 <- 29        -0.00600
       6 <- 32         0.00072
       6 <- 34         0.00208
       6 <- 35        -0.00105
       6 <- 39         0.00074
       6 <- 41        -0.00039
       6 <- 43         0.00062
       6 <- 45        -0.00059
       6 <- 47         0.00109
       6 <- 51         0.00065
       6 <- 54        -0.00042
       7 <-  9        -0.11796
       7 <- 13         0.00913
       7 <- 18        -0.01446
       7 <- 23         0.00476
       7 <- 28        -0.00470
       7 <- 31        -0.00111
       7 <- 37         0.00013
       7 <- 44        -0.00056
       7 <- 52         0.00089
       8 <- 12        -0.00095
       8 <- 16         0.02621
       8 <- 19        -0.00964
       8 <- 22        -0.01657
       8 <- 25         0.00039
       8 <- 30        -0.00929
       8 <- 33         0.00229
       8 <- 36        -0.00296
       8 <- 40        -0.00145
       8 <- 42        -0.00027
       8 <- 49         0.00046
       8 <- 50         0.00022
       8 <- 53        -0.00073

 Excited State   3:      Singlet-B1     5.9790 eV  207.37 nm  f=0.0015  <S**2>=0.000
       3 ->  9        -0.03077
       3 -> 13         0.00223
       3 -> 18        -0.00521
       3 -> 23         0.00217
       3 -> 28        -0.00121
       3 -> 31        -0.00049
       3 -> 44         0.00030
       3 -> 48         0.00084
       3 -> 52         0.00102
       4 ->  9         0.01457
       4 -> 13        -0.00270
       4 -> 18         0.00041
       4 -> 23        -0.00247
       4 -> 28         0.00020
       4 -> 31        -0.00169
       4 -> 37        -0.00044
       4 -> 44         0.00011
       4 -> 48        -0.00125
       4 -> 52        -0.00069
       5 -> 27        -0.00049
       5 -> 38         0.00200
       5 -> 46         0.00123
       6 ->  9         0.70596
       6 -> 13        -0.02217
       6 -> 18         0.01803
       6 -> 23        -0.01135
       6 -> 28         0.00488
       6 -> 31         0.00360
       6 -> 37        -0.00235
       6 -> 44        -0.00312
       6 -> 48         0.00448
       6 -> 52         0.00159
       7 -> 10        -0.01436
       7 -> 11         0.01660
       7 -> 14         0.01062
       7 -> 15        -0.00818
       7 -> 17        -0.00969
       7 -> 20         0.00251
       7 -> 21        -0.00047
       7 -> 26        -0.00106
       7 -> 29        -0.00416
       7 -> 32        -0.00088
       7 -> 34         0.00024
       7 -> 35         0.00184
       7 -> 39         0.00012
       7 -> 41        -0.00082
       7 -> 43         0.00063
       7 -> 45         0.00171
       7 -> 47         0.00427
       7 -> 51         0.00116
       7 -> 54         0.00050
       8 -> 27         0.00087
       8 -> 38         0.00024
       8 -> 46         0.00578
       3 <-  9        -0.01017
       3 <- 13        -0.00040
       3 <- 18        -0.00307
       3 <- 23        -0.00040
       3 <- 28        -0.00080
       3 <- 31        -0.00061
       3 <- 44        -0.00027
       3 <- 48         0.00104
       3 <- 52         0.00081
       4 <-  9         0.00662
       4 <- 13        -0.00013
       4 <- 18         0.00214
       4 <- 23        -0.00047
       4 <- 28         0.00184
       4 <- 31        -0.00120
       4 <- 37        -0.00017
       4 <- 44         0.00014
       4 <- 48        -0.00108
       4 <- 52        -0.00039
       5 <- 27        -0.00096
       5 <- 38         0.00159
       5 <- 46         0.00110
       6 <-  9        -0.02362
       6 <- 13         0.00178
       6 <- 18        -0.00309
       6 <- 23        -0.00025
       6 <- 28        -0.00317
       6 <- 31         0.00162
       6 <- 37        -0.00210
       6 <- 44        -0.00180
       6 <- 48         0.00400
       6 <- 52         0.00057
       7 <- 10         0.00774
       7 <- 11        -0.01036
       7 <- 14        -0.01009
       7 <- 15         0.01634
       7 <- 17         0.00080
       7 <- 20         0.00560
       7 <- 21        -0.00495
       7 <- 24         0.00475
       7 <- 26         0.00200
       7 <- 29         0.00082
       7 <- 32        -0.00054
       7 <- 34        -0.00021
       7 <- 35         0.00289
       7 <- 39         0.00040
       7 <- 41        -0.00044
       7 <- 43         0.00052
       7 <- 45         0.00171
       7 <- 47         0.00382
       7 <- 51         0.00095
       7 <- 54         0.00109
       8 <- 27         0.00125
       8 <- 38         0.00041
       8 <- 46         0.00532

 Excited State   4:      Singlet-B2     6.6746 eV  185.76 nm  f=0.0185  <S**2>=0.000
       3 -> 12         0.00177
       3 -> 16        -0.00120
       3 -> 19         0.00355
       3 -> 22        -0.00029
       3 -> 25         0.00024
       3 -> 30         0.00247
       3 -> 33         0.00039
       3 -> 36        -0.00177
       3 -> 40        -0.00135
       3 -> 42        -0.00014
       3 -> 49         0.00174
       3 -> 50        -0.00020
       3 -> 53        -0.00023
       4 -> 12        -0.00070
       4 -> 16         0.00288
       4 -> 19         0.00070
       4 -> 22        -0.00351
       4 -> 25         0.00277
       4 -> 30        -0.00100
       4 -> 33         0.00037
       4 -> 36        -0.00036
       4 -> 40         0.00049
       4 -> 49        -0.00023
       5 -> 10        -0.00164
       5 -> 11        -0.00378
       5 -> 14        -0.01445
       5 -> 15         0.00174
       5 -> 17        -0.00159
       5 -> 20        -0.00124
       5 -> 21        -0.00667
       5 -> 24        -0.00182
       5 -> 26         0.00213
       5 -> 29         0.00176
       5 -> 32         0.00041
       5 -> 34         0.00130
       5 -> 35         0.00064
       5 -> 39         0.00069
       5 -> 41        -0.00082
       5 -> 45         0.00028
       5 -> 47         0.00067
       5 -> 51        -0.00041
       5 -> 54         0.00020
       6 -> 12        -0.00345
       6 -> 16         0.00112
       6 -> 19        -0.00184
       6 -> 22        -0.00056
       6 -> 25         0.00072
       6 -> 30         0.00039
       6 -> 33        -0.00048
       6 -> 36         0.00203
       6 -> 40         0.00143
       6 -> 42         0.00015
       6 -> 49        -0.00105
       6 -> 53         0.00023
       7 -> 27         0.00044
       7 -> 38        -0.00101
       7 -> 46        -0.00266
       8 -> 10         0.66041
       8 -> 11        -0.22500
       8 -> 14        -0.08837
       8 -> 15         0.07186
       8 -> 17         0.00659
       8 -> 20         0.00705
       8 -> 21        -0.00317
       8 -> 24         0.00420
       8 -> 26         0.00522
       8 -> 29         0.00693
       8 -> 32         0.00168
       8 -> 34         0.00101
       8 -> 35         0.00063
       8 -> 39         0.00040
       8 -> 41        -0.00049
       8 -> 43         0.00065
       8 -> 45         0.00206
       8 -> 47         0.00260
       8 -> 51        -0.00168
       8 -> 54         0.00099
       3 <- 12         0.00055
       3 <- 16        -0.00017
       3 <- 19         0.00165
       3 <- 22        -0.00079
       3 <- 30         0.00096
       3 <- 33         0.00035
       3 <- 36        -0.00144
       3 <- 40        -0.00122
       3 <- 42        -0.00012
       3 <- 49         0.00180
       3 <- 50        -0.00016
       3 <- 53        -0.00062
       4 <- 12         0.00052
       4 <- 16         0.00245
       4 <- 19         0.00078
       4 <- 22        -0.00273
       4 <- 25         0.00171
       4 <- 30        -0.00081
       4 <- 33         0.00046
       4 <- 36        -0.00054
       4 <- 40         0.00013
       4 <- 42        -0.00018
       4 <- 49        -0.00018
       5 <- 10         0.00157
       5 <- 11         0.00120
       5 <- 14        -0.00368
       5 <- 15        -0.00291
       5 <- 17        -0.00027
       5 <- 20        -0.00020
       5 <- 21        -0.00189
       5 <- 24        -0.00282
       5 <- 26         0.00090
       5 <- 29         0.00044
       5 <- 32        -0.00053
       5 <- 34         0.00052
       5 <- 39         0.00020
       5 <- 41        -0.00076
       5 <- 43        -0.00017
       5 <- 45         0.00051
       5 <- 47         0.00042
       5 <- 51        -0.00021
       6 <- 12        -0.00025
       6 <- 16        -0.00351
       6 <- 19         0.00166
       6 <- 22         0.00239
       6 <- 25         0.00028
       6 <- 30         0.00309
       6 <- 33        -0.00067
       6 <- 36         0.00200
       6 <- 40         0.00137
       6 <- 42         0.00020
       6 <- 49        -0.00108
       6 <- 53         0.00069
       7 <- 27         0.00046
       7 <- 38        -0.00078
       7 <- 46        -0.00216
       8 <- 10        -0.00569
       8 <- 11         0.00802
       8 <- 14         0.00844
       8 <- 15        -0.00596
       8 <- 17        -0.00023
       8 <- 20         0.00133
       8 <- 21         0.00221
       8 <- 24        -0.00046
       8 <- 26        -0.00186
       8 <- 29         0.00064
       8 <- 32        -0.00122
       8 <- 34        -0.00106
       8 <- 35        -0.00024
       8 <- 39        -0.00101
       8 <- 41        -0.00054
       8 <- 45         0.00231
       8 <- 47         0.00165
       8 <- 51        -0.00095
       8 <- 54         0.00023

 Excited State   5:      Singlet-B2     7.1691 eV  172.94 nm  f=0.0080  <S**2>=0.000
       3 -> 12         0.00107
       3 -> 16         0.00192
       3 -> 19        -0.00172
       3 -> 22        -0.00042
       3 -> 25         0.00093
       3 -> 30        -0.00317
       3 -> 36         0.00097
       3 -> 40         0.00082
       3 -> 49        -0.00113
       4 -> 12        -0.00156
       4 -> 16        -0.00012
       4 -> 19         0.00070
       4 -> 25        -0.00016
       4 -> 30         0.00168
       4 -> 33        -0.00034
       4 -> 36         0.00055
       4 -> 50        -0.00013
       5 -> 10        -0.00775
       5 -> 11         0.00086
       5 -> 14         0.00389
       5 -> 15         0.00577
       5 -> 17         0.00202
       5 -> 20         0.00269
       5 -> 21         0.00191
       5 -> 26        -0.00099
       5 -> 29        -0.00094
       5 -> 32        -0.00159
       5 -> 35        -0.00059
       5 -> 39        -0.00081
       5 -> 41         0.00011
       5 -> 43        -0.00037
       5 -> 45        -0.00052
       5 -> 47        -0.00057
       5 -> 51         0.00042
       6 -> 16        -0.00015
       6 -> 19         0.00097
       6 -> 22        -0.00111
       6 -> 30        -0.00111
       6 -> 33         0.00015
       6 -> 36        -0.00078
       6 -> 40        -0.00110
       6 -> 42        -0.00025
       6 -> 49         0.00163
       6 -> 50        -0.00013
       6 -> 53        -0.00016
       7 -> 27        -0.00074
       7 -> 46         0.00258
       8 -> 10         0.23617
       8 -> 11         0.66284
       8 -> 14         0.02906
       8 -> 15        -0.06071
       8 -> 17        -0.00676
       8 -> 20         0.01513
       8 -> 21         0.00421
       8 -> 24        -0.00439
       8 -> 26         0.00020
       8 -> 29        -0.00461
       8 -> 32        -0.00064
       8 -> 34        -0.00091
       8 -> 35        -0.00096
       8 -> 39         0.00011
       8 -> 41         0.00022
       8 -> 45        -0.00240
       8 -> 47        -0.00238

 The electronic state is 1-A1.
 Alpha  occ. eigenvalues --  -19.16916 -10.32003  -0.94742  -0.68871  -0.48818
 Alpha  occ. eigenvalues --   -0.42499  -0.34149  -0.29006
 Alpha virt. eigenvalues --   -0.13350  -0.00493   0.02128   0.04111   0.06151
 Alpha virt. eigenvalues --    0.10497   0.14538   0.14946   0.18956   0.21540
 Alpha virt. eigenvalues --    0.23912   0.30080   0.39592   0.41869   0.50975

 Mulliken charges:
               1
     1  C   -0.046665
     2  H    0.171390
     3  H    0.171390
     4  O   -0.296115
 Sum of Mulliken charges =   0.00000

 Dipole moment (field-independent basis, Debye):
    X=             -0.0000    Y=              0.0000    Z=             -3.5830  Tot=              3.5830
 Quadrupole moment (field-independent basis, Debye-Ang):
   XX=            -12.5872   YY=            -11.8370   ZZ=            -11.5342
   XY=              0.0000   XZ=              0.0000   YZ=              0.0000

 Normal termination of Gaussian 16 at Fri Sep 17 10:52:55 2021.
