 Gaussian 16, Revision A.03,
 Gaussian 16:  ES64L-G16RevA.03 25-Dec-2016

 --------------------------------------------------------------------
 #p B3LYP/6-311+G** #p TD=(singlets,nstates=30)IOp(6/8=3) IOp(9/40=4)
 --------------------------------------------------------------------

 ------------------------------
 Scan Step 78, Bond Length 0.89
 ------------------------------
 Symbolic Z-matrix:
 Charge =  0 Multiplicity = 1

                         Standard orientation:
 ---------------------------------------------------------------------
 Center     Atomic      Atomic             Coordinates (Angstroms)
 Number     Number       Type             X           Y           Z
 ---------------------------------------------------------------------
      1          6           0        0.000000    0.000000   -0.371081
      2          1           0        0.000000    0.937260   -0.962431
      3          1           0       -0.000000   -0.937260   -0.962431
      4          8           0        0.000000   -0.000000    0.518919
 ---------------------------------------------------------------------

 SCF Done:  E(RB3LYP) =  -114.214160336     A.U. after    9 cycles

 Excitation energies and oscillator strengths:

 Excited State   1:      Singlet-A2     5.5174 eV  224.72 nm  f=0.0000  <S**2>=0.000
       3 -> 27         0.00284
       3 -> 36         0.00222
       3 -> 46         0.00120
       4 -> 10         0.00811
       4 -> 13         0.00894
       4 -> 17         0.00605
       4 -> 22        -0.00352
       4 -> 28         0.00304
       4 -> 32         0.00186
       4 -> 37         0.00350
       4 -> 43         0.00052
       4 -> 52         0.00070
       5 -> 27         0.00350
       5 -> 36        -0.00071
       5 -> 46        -0.00067
       6 -> 12        -0.00056
       6 -> 16        -0.00100
       6 -> 18        -0.00049
       6 -> 23         0.00174
       6 -> 24         0.00048
       6 -> 29        -0.00038
       6 -> 33         0.00026
       6 -> 35         0.00053
       6 -> 42         0.00050
       6 -> 47         0.00065
       6 -> 50        -0.00018
       6 -> 53         0.00027
       7 -> 27         0.00100
       7 -> 36        -0.00027
       7 -> 46         0.00115
       8 -> 10         0.69576
       8 -> 13         0.12206
       8 -> 17         0.03018
       8 -> 22        -0.00751
       8 -> 28         0.00512
       8 -> 32         0.00342
       8 -> 37        -0.00234
       8 -> 43        -0.00020
       8 -> 52         0.00092
       3 <- 27         0.00211
       3 <- 36         0.00190
       3 <- 46         0.00124
       4 <- 10         0.00026
       4 <- 13         0.00115
       4 <- 22         0.00023
       4 <- 32        -0.00108
       4 <- 37         0.00160
       4 <- 43         0.00044
       4 <- 52         0.00018
       5 <- 27         0.00397
       5 <- 36        -0.00047
       5 <- 46        -0.00066
       6 <- 12        -0.00092
       6 <- 16         0.00185
       6 <- 18        -0.00311
       6 <- 23         0.00451
       6 <- 24        -0.00163
       6 <- 29         0.00169
       6 <- 33        -0.00088
       6 <- 35         0.00193
       6 <- 40        -0.00015
       6 <- 42         0.00087
       6 <- 47         0.00050
       6 <- 53         0.00072
       7 <- 27         0.00111
       7 <- 36        -0.00033
       7 <- 46         0.00092
       8 <- 10        -0.00845
       8 <- 13        -0.00854
       8 <- 17        -0.00423
       8 <- 22         0.00047
       8 <- 28        -0.00039
       8 <- 32         0.00280
       8 <- 37        -0.00226
       8 <- 52         0.00028
 This state for optimization and/or second-order correction.
 Total Energy, E(TD-HF/TD-DFT) =  -114.011399762
 Copying the excited state density for this state as the 1-particle RhoCI density.

 Excited State   2:      Singlet-B2     5.9025 eV  210.06 nm  f=0.0861  <S**2>=0.000
       3 -> 12         0.00090
       3 -> 16         0.00021
       3 -> 18         0.00103
       3 -> 24         0.00115
       3 -> 29        -0.00019
       3 -> 35        -0.00011
       3 -> 42         0.00014
       3 -> 50        -0.00015
       4 ->  9         0.00149
       4 -> 11        -0.00677
       4 -> 14         0.00535
       4 -> 15         0.00159
       4 -> 19         0.00373
       4 -> 20         0.00118
       4 -> 21         0.00290
       4 -> 25         0.00120
       4 -> 26        -0.00120
       4 -> 30        -0.00223
       4 -> 31         0.00021
       4 -> 34         0.00032
       4 -> 38        -0.00079
       4 -> 39         0.00015
       4 -> 41         0.00040
       4 -> 44         0.00043
       4 -> 45        -0.00057
       4 -> 48         0.00038
       5 -> 12        -0.00625
       5 -> 16         0.00114
       5 -> 18         0.00141
       5 -> 23        -0.00253
       5 -> 24         0.00408
       5 -> 29        -0.00056
       5 -> 33        -0.00101
       5 -> 35         0.00089
       5 -> 40        -0.00017
       5 -> 42         0.00045
       6 -> 27         0.00101
       6 -> 36         0.00022
       6 -> 46         0.00086
       7 -> 12         0.00237
       7 -> 16         0.00294
       7 -> 18         0.00380
       7 -> 23        -0.00220
       7 -> 24         0.00242
       7 -> 35        -0.00019
       7 -> 42        -0.00037
       7 -> 47         0.00039
       7 -> 50         0.00049
       8 ->  9         0.70625
       8 -> 11        -0.01547
       8 -> 14        -0.01917
       8 -> 15         0.01149
       8 -> 19         0.02019
       8 -> 20        -0.00802
       8 -> 21        -0.00776
       8 -> 25         0.00070
       8 -> 26        -0.00057
       8 -> 31         0.00281
       8 -> 34         0.00156
       8 -> 38         0.00084
       8 -> 39        -0.00055
       8 -> 41        -0.00037
       8 -> 44        -0.00036
       8 -> 45        -0.00107
       8 -> 48         0.00033
       8 -> 54        -0.00015
       3 <- 12         0.00029
       3 <- 18         0.00061
       3 <- 24         0.00083
       3 <- 29        -0.00017
       3 <- 35        -0.00011
       3 <- 42         0.00011
       4 <-  9         0.00209
       4 <- 14         0.00420
       4 <- 15         0.00171
       4 <- 19         0.00094
       4 <- 20         0.00038
       4 <- 21         0.00179
       4 <- 25         0.00165
       4 <- 26        -0.00126
       4 <- 30        -0.00082
       4 <- 31        -0.00023
       4 <- 34         0.00011
       4 <- 38        -0.00052
       4 <- 39         0.00016
       4 <- 41         0.00041
       4 <- 44         0.00029
       4 <- 45        -0.00051
       4 <- 48         0.00032
       5 <- 16         0.00096
       5 <- 18         0.00245
       5 <- 23        -0.00150
       5 <- 24         0.00311
       5 <- 29        -0.00045
       5 <- 33        -0.00076
       5 <- 35         0.00067
       5 <- 40        -0.00020
       5 <- 42         0.00019
       6 <- 27         0.00079
       6 <- 36         0.00018
       6 <- 46         0.00073
       7 <- 12         0.00065
       7 <- 16         0.00192
       7 <- 18         0.00136
       7 <- 23        -0.00089
       7 <- 24         0.00111
       7 <- 29         0.00070
       7 <- 42        -0.00033
       7 <- 47         0.00036
       7 <- 50         0.00055
       8 <-  9        -0.00439
       8 <- 11        -0.00208
       8 <- 14        -0.01288
       8 <- 15        -0.00202
       8 <- 19        -0.00106
       8 <- 20         0.00027
       8 <- 21        -0.00419
       8 <- 25        -0.00311
       8 <- 26        -0.00064
       8 <- 30         0.00050
       8 <- 31         0.00146
       8 <- 34         0.00155
       8 <- 38         0.00084
       8 <- 39        -0.00045
       8 <- 41        -0.00023
       8 <- 44        -0.00036
       8 <- 45        -0.00077
       8 <- 48         0.00031

 Excited State   3:      Singlet-B2     6.6936 eV  185.23 nm  f=0.0222  <S**2>=0.000
       3 -> 12        -0.00012
       3 -> 16         0.00066
       3 -> 23         0.00018
       3 -> 24         0.00043
       3 -> 29         0.00096
       3 -> 33         0.00014
       3 -> 35        -0.00029
       3 -> 42        -0.00031
       3 -> 47         0.00019
       3 -> 50         0.00021
       4 ->  9        -0.00509
       4 -> 14         0.00301
       4 -> 15         0.00467
       4 -> 19        -0.00329
       4 -> 20         0.00075
       4 -> 21         0.00137
       4 -> 25         0.00097
       4 -> 26         0.00123
       4 -> 30        -0.00073
       4 -> 31        -0.00215
       4 -> 34        -0.00047
       4 -> 39        -0.00076
       4 -> 41        -0.00070
       4 -> 44         0.00011
       4 -> 45         0.00061
       4 -> 48        -0.00043
       4 -> 51        -0.00021
       5 -> 12         0.00274
       5 -> 16         0.00429
       5 -> 18         0.00173
       5 -> 23        -0.00141
       5 -> 24         0.00369
       5 -> 29        -0.00120
       5 -> 33         0.00056
       5 -> 35        -0.00014
       5 -> 40        -0.00025
       5 -> 47         0.00014
       5 -> 50         0.00012
       6 -> 27        -0.00085
       6 -> 36        -0.00133
       6 -> 46        -0.00107
       7 -> 12        -0.00293
       7 -> 18        -0.00242
       7 -> 23         0.00131
       7 -> 24        -0.00036
       7 -> 33        -0.00025
       7 -> 35         0.00121
       7 -> 40        -0.00031
       7 -> 42         0.00066
       7 -> 47        -0.00066
       7 -> 50        -0.00059
       7 -> 53         0.00016
       8 ->  9         0.01585
       8 -> 11         0.70590
       8 -> 14        -0.01750
       8 -> 15        -0.02339
       8 -> 19        -0.01742
       8 -> 20        -0.01498
       8 -> 21        -0.00293
       8 -> 25         0.00036
       8 -> 26        -0.00030
       8 -> 30         0.00176
       8 -> 31         0.00043
       8 -> 34         0.00039
       8 -> 38        -0.00014
       8 -> 39        -0.00071
       8 -> 41        -0.00128
       8 -> 44         0.00012
       8 -> 45         0.00069
       8 -> 48        -0.00063
       8 -> 51        -0.00013
       8 -> 54         0.00016
       3 <- 12         0.00023
       3 <- 16         0.00060
       3 <- 18         0.00026
       3 <- 24         0.00049
       3 <- 29         0.00064
       3 <- 33         0.00017
       3 <- 35        -0.00032
       3 <- 42        -0.00026
       3 <- 47         0.00015
       3 <- 50         0.00012
       3 <- 53        -0.00021
       4 <-  9         0.00136
       4 <- 11        -0.00027
       4 <- 14         0.00182
       4 <- 15         0.00057
       4 <- 19         0.00064
       4 <- 20        -0.00028
       4 <- 21         0.00102
       4 <- 25         0.00093
       4 <- 26         0.00094
       4 <- 30        -0.00085
       4 <- 31        -0.00080
       4 <- 34        -0.00100
       4 <- 39        -0.00055
       4 <- 41        -0.00071
       4 <- 44         0.00011
       4 <- 45         0.00063
       4 <- 48        -0.00030
       4 <- 51        -0.00021
       5 <- 12         0.00026
       5 <- 16         0.00073
       5 <- 18         0.00114
       5 <- 23        -0.00127
       5 <- 24         0.00179
       5 <- 29        -0.00052
       5 <- 33         0.00057
       5 <- 35         0.00018
       5 <- 40        -0.00025
       5 <- 50         0.00020
       6 <- 27        -0.00039
       6 <- 36        -0.00110
       6 <- 46        -0.00093
       7 <- 12        -0.00037
       7 <- 16        -0.00036
       7 <- 18        -0.00022
       7 <- 23         0.00025
       7 <- 29        -0.00035
       7 <- 35         0.00084
       7 <- 40        -0.00025
       7 <- 42         0.00046
       7 <- 47        -0.00058
       7 <- 50        -0.00055
       8 <-  9        -0.00195
       8 <- 11         0.00130
       8 <- 14        -0.00660
       8 <- 15        -0.00152
       8 <- 19         0.00197
       8 <- 20         0.00200
       8 <- 21        -0.00269
       8 <- 25        -0.00041
       8 <- 26         0.00084
       8 <- 30         0.00117
       8 <- 31         0.00112
       8 <- 38        -0.00031
       8 <- 39        -0.00047
       8 <- 41        -0.00108
       8 <- 45         0.00059
       8 <- 48        -0.00041
       8 <- 51        -0.00015

 Excited State   4:      Singlet-A1     6.8308 eV  181.51 nm  f=0.0419  <S**2>=0.000
       3 ->  9         0.00132
       3 -> 11        -0.00082
       3 -> 14         0.00011
       3 -> 15         0.00058
       3 -> 19         0.00131
       3 -> 20        -0.00035
       3 -> 21        -0.00028
       3 -> 25         0.00024
       3 -> 30        -0.00105
       3 -> 31        -0.00024
       3 -> 34        -0.00021
       3 -> 38        -0.00035
       3 -> 39        -0.00025
       3 -> 41        -0.00013
       3 -> 48        -0.00015
       3 -> 51        -0.00029
       3 -> 54         0.00020
       4 -> 12         0.00751
       4 -> 16         0.00780
       4 -> 18         0.00728
       4 -> 23         0.00072
       4 -> 24         0.00415
       4 -> 29         0.00064
       4 -> 33        -0.00016
       4 -> 35         0.00095
       4 -> 42        -0.00023
       4 -> 50        -0.00036
       4 -> 53        -0.00013
       5 ->  9         0.00561
       5 -> 11         0.01048
       5 -> 14         0.00626
       5 -> 15         0.00199
       5 -> 19         0.00107
       5 -> 20        -0.00668
       5 -> 21         0.00209
       5 -> 25         0.00685
       5 -> 26        -0.00086
       5 -> 30         0.00080
       5 -> 31        -0.00070
       5 -> 34        -0.00103
       5 -> 38        -0.00028
       5 -> 39         0.00086
       5 -> 41         0.00014
       5 -> 45        -0.00033
       5 -> 48        -0.00028
       6 -> 10         0.00755
       6 -> 13        -0.00343
       6 -> 17         0.00515
       6 -> 22         0.00410
       6 -> 28         0.00069
       6 -> 32         0.00089
       6 -> 37         0.00053
       6 -> 43         0.00049
       6 -> 49        -0.00037
       7 ->  9         0.01311
       7 -> 11        -0.00524
       7 -> 14         0.00284
       7 -> 15        -0.00110
       7 -> 19         0.00786
       7 -> 20        -0.00296
       7 -> 21         0.00099
       7 -> 25         0.00197
       7 -> 30        -0.00021
       7 -> 31         0.00064
       7 -> 34        -0.00095
       7 -> 39         0.00024
       7 -> 48        -0.00021
       7 -> 51         0.00044
       8 -> 12         0.70546
       8 -> 16         0.04221
       8 -> 18        -0.00055
       8 -> 23         0.00352
       8 -> 24         0.00155
       8 -> 29         0.00329
       8 -> 33         0.00155
       8 -> 35        -0.00254
       8 -> 40         0.00012
       8 -> 42         0.00141
       8 -> 47        -0.00045
       8 -> 53        -0.00012
       3 <-  9         0.00057
       3 <- 11        -0.00031
       3 <- 15         0.00028
       3 <- 19         0.00073
       3 <- 20        -0.00014
       3 <- 25         0.00030
       3 <- 30        -0.00062
       3 <- 31        -0.00020
       3 <- 34        -0.00016
       3 <- 38        -0.00026
       3 <- 39        -0.00022
       3 <- 41        -0.00014
       3 <- 48        -0.00017
       3 <- 51        -0.00025
       3 <- 54         0.00018
       4 <- 12         0.00264
       4 <- 16         0.00227
       4 <- 18         0.00353
       4 <- 23         0.00077
       4 <- 24         0.00224
       4 <- 29         0.00021
       4 <- 33        -0.00029
       4 <- 35         0.00082
       4 <- 42        -0.00020
       4 <- 50        -0.00029
       4 <- 53        -0.00012
       5 <-  9         0.00580
       5 <- 11         0.00375
       5 <- 14         0.00468
       5 <- 15         0.00194
       5 <- 19         0.00080
       5 <- 20        -0.00377
       5 <- 21         0.00064
       5 <- 25         0.00417
       5 <- 26        -0.00038
       5 <- 30         0.00014
       5 <- 31        -0.00094
       5 <- 34        -0.00088
       5 <- 38        -0.00038
       5 <- 39         0.00072
       5 <- 44         0.00016
       5 <- 45        -0.00030
       5 <- 48        -0.00023
       6 <- 10         0.00269
       6 <- 13        -0.00138
       6 <- 17         0.00237
       6 <- 22         0.00245
       6 <- 28         0.00042
       6 <- 32         0.00068
       6 <- 37         0.00044
       6 <- 43         0.00041
       6 <- 49        -0.00032
       7 <-  9         0.00451
       7 <- 11        -0.00125
       7 <- 14         0.00137
       7 <- 15        -0.00039
       7 <- 19         0.00338
       7 <- 20        -0.00173
       7 <- 21         0.00031
       7 <- 25         0.00118
       7 <- 26        -0.00016
       7 <- 30        -0.00029
       7 <- 31         0.00037
       7 <- 34        -0.00066
       7 <- 38        -0.00013
       7 <- 39         0.00030
       7 <- 45        -0.00011
       7 <- 51         0.00041
       8 <- 12        -0.00368
       8 <- 16         0.00582
       8 <- 18        -0.01054
       8 <- 23        -0.00082
       8 <- 24        -0.00204
       8 <- 29         0.00166
       8 <- 33         0.00117
       8 <- 35        -0.00179
       8 <- 42         0.00115
       8 <- 47        -0.00052
       8 <- 53        -0.00014

 Excited State   5:      Singlet-A2     7.6056 eV  163.02 nm  f=0.0000  <S**2>=0.000
       3 -> 27         0.00175
       3 -> 36         0.00144
       3 -> 46         0.00071
       4 -> 10         0.00835
       4 -> 13         0.00792
       4 -> 17        -0.00229
       4 -> 22        -0.00134
       4 -> 28         0.00032
       4 -> 32         0.00222
       4 -> 37         0.00250
       4 -> 43         0.00032
       4 -> 49        -0.00010
       4 -> 52         0.00041
       5 -> 27         0.00096
       5 -> 36        -0.00075
       5 -> 46        -0.00024
       6 -> 12         0.00021
       6 -> 16        -0.00201
       6 -> 18        -0.00046
       6 -> 23         0.00132
       6 -> 24         0.00020
       6 -> 29        -0.00037
       6 -> 35         0.00038
       6 -> 42         0.00037
       6 -> 47         0.00036
       6 -> 53         0.00017
       7 -> 27         0.00023
       7 -> 36        -0.00022
       7 -> 46         0.00075
       8 -> 10        -0.12269
       8 -> 13         0.69589
       8 -> 17         0.00594
       8 -> 22        -0.02321
       8 -> 28         0.00194
       8 -> 32         0.00162
       8 -> 37        -0.00111
       8 -> 43        -0.00016
       8 -> 49        -0.00015
       8 -> 52         0.00046
       3 <- 27         0.00106
       3 <- 36         0.00117
       3 <- 46         0.00081
       4 <- 10         0.00032
       4 <- 13         0.00028
       4 <- 17        -0.00051
       4 <- 22         0.00011
       4 <- 32        -0.00029
       4 <- 37         0.00081
       4 <- 43         0.00023
       4 <- 52         0.00013
       5 <- 27         0.00153
       5 <- 46        -0.00029
       6 <- 12         0.00044
       6 <- 16        -0.00046
       6 <- 18        -0.00077
       6 <- 23         0.00257
       6 <- 24        -0.00050
       6 <- 33        -0.00072
       6 <- 35         0.00134
       6 <- 42         0.00073
       6 <- 47         0.00016
       6 <- 53         0.00038
       7 <- 27         0.00047
       7 <- 36        -0.00027
       7 <- 46         0.00039
       8 <- 10        -0.00682
       8 <- 13        -0.00129
       8 <- 17        -0.00096
       8 <- 22         0.00055
       8 <- 28        -0.00026
       8 <- 32         0.00115
       8 <- 37        -0.00102
       8 <- 52         0.00018

 Excited State   6:      Singlet-B2     9.9163 eV  125.03 nm  f=0.2686  <S**2>=0.000
       3 -> 12        -0.00041
       3 -> 16         0.00146
       3 -> 18        -0.00081
       3 -> 23         0.00117
       3 -> 24         0.00057
       3 -> 29         0.00119
       3 -> 33        -0.00089
       3 -> 40         0.00042

 The electronic state is 1-A1.
 Alpha  occ. eigenvalues --  -19.13838 -10.23643  -1.27066  -0.61102  -0.59566
 Alpha  occ. eigenvalues --   -0.56220  -0.52051  -0.24164
 Alpha virt. eigenvalues --    0.01396   0.01534   0.04397   0.04421   0.09040
 Alpha virt. eigenvalues --    0.14205   0.17754   0.20375   0.21874   0.23269
 Alpha virt. eigenvalues --    0.26101   0.36354   0.50129   0.52708   0.53611

 Mulliken charges:
               1
     1  C    0.214499
     2  H    0.001162
     3  H    0.001162
     4  O   -0.216823
 Sum of Mulliken charges =  -0.00000

 Dipole moment (field-independent basis, Debye):
    X=              0.0000    Y=              0.0000    Z=             -0.5322  Tot=              0.5322
 Quadrupole moment (field-independent basis, Debye-Ang):
   XX=            -10.7874   YY=            -12.3510   ZZ=            -13.2144
   XY=             -0.0000   XZ=             -0.0000   YZ=             -0.0000

 Normal termination of Gaussian 16 at Fri Sep 17 10:52:31 2021.
