 Gaussian 16, Revision C.01,
 Gaussian 16:  ES64L-G16RevC.01  3-Jul-2019

 ---------------------------------------
 #P wB97XD/6-311+G* NoSymm #P Field=Y-29
 ---------------------------------------

 -------
 TitleMe
 -------
 Symbolic Z-matrix:
 Charge =  1 Multiplicity = 1

                          Input orientation:
 ---------------------------------------------------------------------
 Center     Atomic      Atomic             Coordinates (Angstroms)
 Number     Number       Type             X           Y           Z
 ---------------------------------------------------------------------
      1          6           0        0.029500    1.339700    0.068200
      2          6           0        1.434800    1.286700    0.006400
      3          6           0        2.111800    0.051100   -0.005400
      4          6           0        1.445100   -1.137200    0.031200
      5          6           0       -0.687900    0.168200    0.110000
      6          1           0       -0.471300    2.298400    0.078100
      7          1           0        2.027300    2.196500   -0.032200
      8          1           0        1.989700   -2.076400    0.023200
      9          1           0       -1.771600    0.180400    0.158200
     10          7           0        3.586400    0.051000   -0.067500
     11          8           0        4.147100   -1.059700   -0.088100
     12          8           0        4.145000    1.163900   -0.090100
     13          6           0       -0.023600   -1.145800    0.083500
     14          1           0       -0.436700   -1.872500    0.788900
     15         35           0       -0.535900   -1.869700   -1.740800
 ---------------------------------------------------------------------

 SCF Done:  E(RwB97XD) =  -3010.53514923     A.U. after   19 cycles

 Alpha  occ. eigenvalues -- -483.31536 -62.86569 -56.66252 -56.65693 -56.65691
 Alpha  occ. eigenvalues --  -19.45769 -19.45644 -14.85243 -10.58496 -10.57276
 Alpha  occ. eigenvalues --  -10.57111 -10.56967 -10.56549 -10.52611  -9.02380
 Alpha  occ. eigenvalues --   -6.85032  -6.83199  -6.83186  -2.94943  -2.94455
 Alpha  occ. eigenvalues --   -2.94443  -2.92977  -2.92976  -1.49504  -1.32478
 Alpha  occ. eigenvalues --   -1.22564  -1.14071  -1.11582  -1.04573  -1.00892
 Alpha  occ. eigenvalues --   -0.95379  -0.90820  -0.85120  -0.80616  -0.80501
 Alpha  occ. eigenvalues --   -0.79857  -0.78243  -0.75954  -0.75750  -0.72258
 Alpha  occ. eigenvalues --   -0.69193  -0.67362  -0.63583  -0.60165  -0.57113
 Alpha  occ. eigenvalues --   -0.56684  -0.56014  -0.55513  -0.55358
 Alpha virt. eigenvalues --   -0.29571  -0.21193  -0.15685  -0.13314  -0.09002
 Alpha virt. eigenvalues --   -0.05866  -0.05571  -0.04954  -0.04605  -0.03197
 Alpha virt. eigenvalues --   -0.02669  -0.02061  -0.01748  -0.01280  -0.00213

 Mulliken charges:
               1
     1  C   -0.571765
     2  C    0.502875
     3  C   -0.701306
     4  C    0.278550
     5  C    0.012934
     6  H    0.345870
     7  H    0.376795
     8  H    0.364019
     9  H    0.351639
    10  N   -0.107626
    11  O    0.016357
    12  O    0.044578
    13  C   -0.465168
    14  H    0.396520
    15  Br   0.155726
 Sum of Mulliken charges =   1.00000

 Dipole moment (field-independent basis, Debye):
    X=             -0.7300    Y=              0.2466    Z=              0.0888  Tot=              0.7757
 Quadrupole moment (field-independent basis, Debye-Ang):
   XX=            -71.0888   YY=            -52.3712   ZZ=            -62.8628
   XY=              2.2308   XZ=              1.0175   YZ=              1.2804

 Normal termination of Gaussian 16 at Wed May  1 15:06:57 2024.
