 Gaussian 16, Revision C.01,
 Gaussian 16:  ES64L-G16RevC.01  3-Jul-2019

 ----------------------------------------
 #P wB97XD/6-311+G* NoSymm #P Field=Z-204
 ----------------------------------------

 -------
 TitleMe
 -------
 Symbolic Z-matrix:
 Charge =  1 Multiplicity = 1

                          Input orientation:
 ---------------------------------------------------------------------
 Center     Atomic      Atomic             Coordinates (Angstroms)
 Number     Number       Type             X           Y           Z
 ---------------------------------------------------------------------
      1          6           0        0.029500    1.339700    0.068200
      2          6           0        1.434800    1.286700    0.006400
      3          6           0        2.111800    0.051100   -0.005400
      4          6           0        1.445100   -1.137200    0.031200
      5          6           0       -0.687900    0.168200    0.110000
      6          1           0       -0.471300    2.298400    0.078100
      7          1           0        2.027300    2.196500   -0.032200
      8          1           0        1.989700   -2.076400    0.023200
      9          1           0       -1.771600    0.180400    0.158200
     10          7           0        3.586400    0.051000   -0.067500
     11          8           0        4.147100   -1.059700   -0.088100
     12          8           0        4.145000    1.163900   -0.090100
     13          6           0       -0.023600   -1.145800    0.083500
     14          1           0       -0.436700   -1.872500    0.788900
     15         35           0       -0.535900   -1.869700   -1.740800
 ---------------------------------------------------------------------

 SCF Done:  E(RwB97XD) =  -3010.54935612     A.U. after   18 cycles

 Alpha  occ. eigenvalues -- -483.34513 -62.89581 -56.69211 -56.68726 -56.68726
 Alpha  occ. eigenvalues --  -19.46596 -19.46504 -14.86085 -10.59885 -10.58544
 Alpha  occ. eigenvalues --  -10.58065 -10.57886 -10.57571 -10.53703  -9.05417
 Alpha  occ. eigenvalues --   -6.87924  -6.86317  -6.86308  -2.97869  -2.97437
 Alpha  occ. eigenvalues --   -2.97428  -2.96141  -2.96141  -1.50330  -1.33301
 Alpha  occ. eigenvalues --   -1.23695  -1.15619  -1.12698  -1.06876  -1.01819
 Alpha  occ. eigenvalues --   -0.96483  -0.91799  -0.85977  -0.81575  -0.81373
 Alpha  occ. eigenvalues --   -0.80710  -0.79024  -0.76837  -0.76728  -0.73947
 Alpha  occ. eigenvalues --   -0.70220  -0.68427  -0.65185  -0.62393  -0.60241
 Alpha  occ. eigenvalues --   -0.57841  -0.57540  -0.56754  -0.56279
 Alpha virt. eigenvalues --   -0.31028  -0.22072  -0.18717  -0.16311  -0.14593
 Alpha virt. eigenvalues --   -0.12327  -0.11045  -0.08777  -0.07373  -0.07027
 Alpha virt. eigenvalues --   -0.05039  -0.04265  -0.03384  -0.02408  -0.02032

 Mulliken charges:
               1
     1  C   -0.619565
     2  C    0.578341
     3  C   -0.732313
     4  C    0.307513
     5  C    0.064044
     6  H    0.343515
     7  H    0.370315
     8  H    0.381578
     9  H    0.360948
    10  N   -0.108241
    11  O    0.034957
    12  O    0.030601
    13  C   -0.469939
    14  H    0.474000
    15  Br  -0.015753
 Sum of Mulliken charges =   1.00000

 Dipole moment (field-independent basis, Debye):
    X=             -0.3330    Y=              0.1641    Z=              3.5187  Tot=              3.5382
 Quadrupole moment (field-independent basis, Debye-Ang):
   XX=            -70.5832   YY=            -53.0771   ZZ=            -66.8067
   XY=              0.7594   XZ=              2.7312   YZ=             -1.3670

 Normal termination of Gaussian 16 at Wed May  1 15:17:33 2024.
