 Gaussian 16, Revision A.03,
 Gaussian 16:  ES64L-G16RevA.03 25-Dec-2016

 --------------------------------------------------------------------
 #p B3LYP/6-311+G** #p TD=(singlets,nstates=30)IOp(6/8=3) IOp(9/40=4)
 --------------------------------------------------------------------

 --------------------------------
 Scan Step 287, Bond Length 1.935
 --------------------------------
 Symbolic Z-matrix:
 Charge =  0 Multiplicity = 1

                         Standard orientation:
 ---------------------------------------------------------------------
 Center     Atomic      Atomic             Coordinates (Angstroms)
 Number     Number       Type             X           Y           Z
 ---------------------------------------------------------------------
      1          6           0        0.000000    0.000000   -0.893581
      2          1           0        0.000000    0.937260   -1.484931
      3          1           0       -0.000000   -0.937260   -1.484931
      4          8           0        0.000000   -0.000000    1.041419
 ---------------------------------------------------------------------

 SCF Done:  E(RB3LYP) =  -114.314591225     A.U. after   13 cycles

 Excitation energies and oscillator strengths:

 Excited State   1:      Singlet-A2     1.0816 eV 1146.27 nm  f=0.0000  <S**2>=0.000
       3 -> 27         0.00059
       3 -> 38         0.00034
       3 -> 47         0.00328
       4 -> 27         0.00029
       4 -> 47        -0.00081
       5 ->  9         0.00022
       5 -> 13         0.00105
       5 -> 18         0.00134
       5 -> 23         0.00120
       5 -> 28         0.00097
       5 -> 37         0.00058
       5 -> 44         0.00017
       5 -> 52         0.00013
       6 -> 27        -0.00052
       6 -> 38        -0.00048
       6 -> 47         0.00080
       7 -> 12        -0.00143
       7 -> 16         0.00540
       7 -> 19        -0.00493
       7 -> 22        -0.00114
       7 -> 25        -0.00044
       7 -> 30        -0.00204
       7 -> 33         0.00025
       7 -> 49         0.00013
       7 -> 53         0.00035
       8 ->  9         0.71197
       8 -> 13        -0.00512
       8 -> 18         0.02031
       8 -> 23        -0.00036
       8 -> 28         0.00979
       8 -> 31         0.00158
       8 -> 37         0.00045
       8 -> 46        -0.00027
       8 -> 52         0.00179
       3 <- 27         0.00011
       3 <- 38         0.00014
       3 <- 47         0.00330
       4 <- 27         0.00057
       4 <- 38         0.00016
       4 <- 47        -0.00061
       5 <-  9         0.00059
       5 <- 13        -0.00027
       5 <- 18        -0.00028
       5 <- 23         0.00013
       5 <- 28        -0.00022
       5 <- 31         0.00019
       5 <- 37         0.00033
       6 <- 38        -0.00035
       6 <- 47         0.00056
       7 <- 12         0.00223
       7 <- 16        -0.01046
       7 <- 19         0.00621
       7 <- 22         0.00511
       7 <- 25        -0.00063
       7 <- 30         0.00566
       7 <- 33        -0.00033
       7 <- 49        -0.00046
       7 <- 53         0.00143
       8 <-  9        -0.08495
       8 <- 13        -0.00072
       8 <- 18        -0.00802
       8 <- 23        -0.00046
       8 <- 28        -0.00281
       8 <- 31        -0.00086
       8 <- 37        -0.00014
       8 <- 46         0.00013
       8 <- 52         0.00041
 This state for optimization and/or second-order correction.
 Total Energy, E(TD-HF/TD-DFT) =  -114.274841863
 Copying the excited state density for this state as the 1-particle RhoCI density.

 Excited State   2:      Singlet-A1     2.8270 eV  438.58 nm  f=0.0208  <S**2>=0.000
       3 -> 10        -0.01169
       3 -> 11        -0.00198
       3 -> 17        -0.00284
       3 -> 20        -0.00313
       3 -> 21         0.00070
       3 -> 26         0.00066
       3 -> 29         0.00013
       3 -> 32         0.00256
       3 -> 34         0.00091
       3 -> 36        -0.00087
       3 -> 39        -0.00028
       3 -> 43         0.00043
       3 -> 45        -0.00128
       3 -> 48         0.00231
       3 -> 50         0.00167
       3 -> 54        -0.00014
       4 -> 11         0.00886
       4 -> 14         0.00123
       4 -> 15        -0.00683
       4 -> 17         0.00187
       4 -> 20         0.00138
       4 -> 21         0.00018
       4 -> 24        -0.00352
       4 -> 26         0.00260
       4 -> 32        -0.00099
       4 -> 34        -0.00062
       4 -> 39        -0.00029
       4 -> 43        -0.00039
       4 -> 45         0.00073
       4 -> 48        -0.00064
       4 -> 50        -0.00022
       4 -> 54         0.00013
       5 -> 12         0.00757
       5 -> 16         0.00102
       5 -> 19         0.00094
       5 -> 22         0.00610
       5 -> 25        -0.00348
       5 -> 30         0.00032
       5 -> 33        -0.00220
       5 -> 35         0.00268
       5 -> 40        -0.00085
       5 -> 42        -0.00098
       5 -> 51        -0.00091
       6 -> 10         0.26527
       6 -> 11         0.02731
       6 -> 14        -0.02908
       6 -> 15        -0.01765
       6 -> 17        -0.01412
       6 -> 21         0.00352
       6 -> 24        -0.00627
       6 -> 26        -0.00220
       6 -> 29        -0.00188
       6 -> 32         0.00481
       6 -> 34         0.00135
       6 -> 36         0.00078
       6 -> 39        -0.00155
       6 -> 43         0.00076
       6 -> 45        -0.00098
       6 -> 48         0.00067
       6 -> 50         0.00042
       6 -> 54        -0.00099
       7 ->  9         0.67276
       7 -> 13        -0.00819
       7 -> 18        -0.00809
       7 -> 23        -0.00311
       7 -> 28         0.00178
       7 -> 31        -0.00330
       7 -> 37         0.00136
       7 -> 44        -0.00095
       7 -> 52         0.00104
       8 -> 12        -0.00687
       8 -> 16         0.02851
       8 -> 19        -0.01633
       8 -> 22        -0.00911
       8 -> 30        -0.00674
       8 -> 33         0.00074
       8 -> 35        -0.00039
       8 -> 40         0.00011
       8 -> 42         0.00015
       8 -> 51         0.00012
       8 -> 53        -0.00046
       3 <- 10        -0.00975
       3 <- 11        -0.00198
       3 <- 15        -0.00038
       3 <- 17        -0.00170
       3 <- 20        -0.00287
       3 <- 21         0.00028
       3 <- 24        -0.00035
       3 <- 26        -0.00011
       3 <- 29         0.00041
       3 <- 32         0.00215
       3 <- 34         0.00046
       3 <- 36        -0.00094
       3 <- 39        -0.00020
       3 <- 43         0.00045
       3 <- 45        -0.00137
       3 <- 48         0.00231
       3 <- 50         0.00168
       4 <- 10         0.00120
       4 <- 11         0.00690
       4 <- 14         0.00116
       4 <- 15        -0.00495
       4 <- 17         0.00120
       4 <- 20         0.00201
       4 <- 24        -0.00279
       4 <- 26         0.00240
       4 <- 29        -0.00042
       4 <- 32        -0.00094
       4 <- 34        -0.00053
       4 <- 36         0.00022
       4 <- 39        -0.00033
       4 <- 43        -0.00035
       4 <- 45         0.00064
       4 <- 48        -0.00038
       4 <- 54         0.00011
       5 <- 12         0.00500
       5 <- 16         0.00078
       5 <- 19         0.00081
       5 <- 22         0.00462
       5 <- 25        -0.00285
       5 <- 30         0.00032
       5 <- 33        -0.00189
       5 <- 35         0.00237
       5 <- 40        -0.00079
       5 <- 42        -0.00089
       5 <- 51        -0.00086
       6 <- 10         0.09405
       6 <- 11         0.01256
       6 <- 14        -0.01535
       6 <- 15        -0.01024
       6 <- 17        -0.00917
       6 <- 20        -0.00130
       6 <- 21         0.00269
       6 <- 24        -0.00428
       6 <- 26        -0.00093
       6 <- 29        -0.00081
       6 <- 32         0.00446
       6 <- 34         0.00150
       6 <- 36         0.00030
       6 <- 39        -0.00139
       6 <- 43         0.00064
       6 <- 45        -0.00071
       6 <- 48         0.00037
       6 <- 50         0.00029
       6 <- 54        -0.00093
       7 <-  9        -0.12925
       7 <- 13         0.00203
       7 <- 18        -0.01023
       7 <- 28        -0.00107
       7 <- 31        -0.00156
       7 <- 37         0.00066
       7 <- 44        -0.00086
       7 <- 46        -0.00046
       7 <- 52         0.00098
       8 <- 12        -0.00333
       8 <- 16         0.01600
       8 <- 19        -0.01037
       8 <- 22        -0.00645
       8 <- 25         0.00013
       8 <- 30        -0.00561
       8 <- 33         0.00060
       8 <- 35        -0.00029
       8 <- 42         0.00011
       8 <- 49        -0.00018
       8 <- 53        -0.00044

 Excited State   3:      Singlet-B2     2.8681 eV  432.28 nm  f=0.0014  <S**2>=0.000
       3 -> 12        -0.00104
       3 -> 16         0.00089
       3 -> 19        -0.00340
       3 -> 22         0.00112
       3 -> 25        -0.00087
       3 -> 30        -0.00221
       3 -> 33         0.00034
       3 -> 35         0.00106
       3 -> 40        -0.00107
       3 -> 42        -0.00032
       3 -> 49        -0.00405
       3 -> 51         0.00014
       3 -> 53         0.00023
       4 -> 12         0.00032
       4 -> 16        -0.00115
       4 -> 19         0.00027
       4 -> 22         0.00144
       4 -> 25         0.00043
       4 -> 30         0.00067
       4 -> 33        -0.00027
       4 -> 35         0.00039
       4 -> 40         0.00020
       4 -> 49         0.00072
       5 -> 10         0.00884
       5 -> 11         0.00086
       5 -> 14        -0.00218
       5 -> 15         0.00249
       5 -> 17        -0.00053
       5 -> 20         0.00180
       5 -> 21         0.00232
       5 -> 24         0.00124
       5 -> 26        -0.00023
       5 -> 29        -0.00204
       5 -> 32        -0.00065
       5 -> 34        -0.00011
       5 -> 39         0.00051
       5 -> 41         0.00033
       5 -> 48        -0.00028
       5 -> 50         0.00019
       5 -> 54        -0.00016
       6 -> 12         0.00235
       6 -> 16        -0.00289
       6 -> 19         0.00433
       6 -> 22        -0.00070
       6 -> 25         0.00115
       6 -> 30         0.00044
       6 -> 33        -0.00022
       6 -> 35        -0.00099
       6 -> 40         0.00060
       6 -> 42         0.00053
       6 -> 49         0.00096
       6 -> 53        -0.00044
       7 -> 27        -0.00044
       7 -> 38         0.00024
       7 -> 47         0.00265
       8 -> 10         0.70645
       8 -> 11         0.04261
       8 -> 14        -0.04053
       8 -> 15        -0.01753
       8 -> 17        -0.01645
       8 -> 20         0.00686
       8 -> 21         0.00471
       8 -> 24        -0.00496
       8 -> 26        -0.00365
       8 -> 29        -0.01363
       8 -> 32         0.00151
       8 -> 34        -0.00091
       8 -> 36         0.00182
       8 -> 39         0.00026
       8 -> 41        -0.00017
       8 -> 45        -0.00074
       8 -> 48        -0.00324
       8 -> 50         0.00109
       8 -> 54        -0.00251
       3 <- 12        -0.00036
       3 <- 16         0.00034
       3 <- 19        -0.00172
       3 <- 22         0.00087
       3 <- 25        -0.00079
       3 <- 30        -0.00091
       3 <- 33         0.00032
       3 <- 35         0.00064
       3 <- 40        -0.00092
       3 <- 42        -0.00016
       3 <- 49        -0.00410
       3 <- 51         0.00014
       3 <- 53         0.00064
       4 <- 12         0.00012
       4 <- 16        -0.00149
       4 <- 19         0.00019
       4 <- 22         0.00184
       4 <- 25         0.00019
       4 <- 30         0.00097
       4 <- 33        -0.00027
       4 <- 35         0.00055
       4 <- 49         0.00050
       5 <- 10        -0.00096
       5 <- 11        -0.00044
       5 <- 14        -0.00035
       5 <- 15         0.00204
       5 <- 17         0.00019
       5 <- 20         0.00075
       5 <- 21         0.00140
       5 <- 24         0.00135
       5 <- 29        -0.00045
       5 <- 32        -0.00021
       5 <- 39         0.00026
       5 <- 41         0.00036
       5 <- 45        -0.00017
       5 <- 48        -0.00030
       6 <- 12        -0.00112
       6 <- 16         0.00832
       6 <- 19        -0.00484
       6 <- 22        -0.00521
       6 <- 25         0.00138
       6 <- 30        -0.00628
       6 <- 33         0.00014
       6 <- 35        -0.00077
       6 <- 40         0.00058
       6 <- 42         0.00050
       6 <- 49         0.00151
       6 <- 53        -0.00145
       7 <- 27        -0.00045
       7 <- 38         0.00020
       7 <- 47         0.00231
       8 <- 10        -0.05706
       8 <- 11        -0.00693
       8 <- 14         0.00669
       8 <- 15         0.00222
       8 <- 17         0.00276
       8 <- 20        -0.00364
       8 <- 21        -0.00096
       8 <- 24         0.00136
       8 <- 26         0.00088
       8 <- 29         0.00290
       8 <- 32         0.00203
       8 <- 34         0.00074
       8 <- 36        -0.00093
       8 <- 39        -0.00079
       8 <- 41         0.00014
       8 <- 43         0.00028
       8 <- 45        -0.00140
       8 <- 48        -0.00273
       8 <- 50         0.00106
       8 <- 54        -0.00065

 Excited State   4:      Singlet-B1     3.1455 eV  394.17 nm  f=0.0001  <S**2>=0.000
       3 ->  9        -0.01824
       3 -> 13         0.00053
       3 -> 18        -0.00341
       3 -> 23         0.00107
       3 -> 28        -0.00142
       3 -> 31        -0.00110
       3 -> 37         0.00017
       3 -> 44         0.00020
       3 -> 46        -0.00126
       3 -> 52         0.00049
       4 ->  9        -0.00347
       4 -> 13         0.00045
       4 -> 18         0.00025
       4 -> 23         0.00031
       4 -> 28         0.00066
       4 -> 31        -0.00081
       4 -> 52        -0.00014
       5 -> 27        -0.00191
       5 -> 38         0.00011
       5 -> 47         0.00031
       6 ->  9         0.47874
       6 -> 13        -0.01270
       6 -> 18         0.01168
       6 -> 23        -0.00782
       6 -> 28         0.00380
       6 -> 31         0.00048
       6 -> 37        -0.00030
       6 -> 44        -0.00094
       6 -> 46         0.00229
       6 -> 52         0.00038
       7 -> 10         0.52566
       7 -> 11         0.03274
       7 -> 14        -0.03242
       7 -> 15        -0.01543
       7 -> 17        -0.01274
       7 -> 20         0.00450
       7 -> 21         0.00251
       7 -> 24        -0.00581
       7 -> 26        -0.00435
       7 -> 29        -0.00801
       7 -> 32         0.00159
       7 -> 34        -0.00069
       7 -> 36         0.00099
       7 -> 41        -0.00013
       7 -> 43         0.00046
       7 -> 45        -0.00106
       7 -> 48         0.00297
       7 -> 50         0.00094
       7 -> 54        -0.00108
       8 -> 27         0.00013
       8 -> 47         0.00360
       3 <-  9        -0.00606
       3 <- 13        -0.00050
       3 <- 18        -0.00219
       3 <- 23        -0.00017
       3 <- 28        -0.00090
       3 <- 31        -0.00068
       3 <- 44        -0.00012
       3 <- 46        -0.00121
       3 <- 52         0.00063
       4 <-  9        -0.00113
       4 <- 13         0.00066
       4 <- 18         0.00110
       4 <- 23         0.00044
       4 <- 28         0.00138
       4 <- 31        -0.00061
       4 <- 44        -0.00035
       5 <- 27        -0.00187
       5 <- 38         0.00014
       5 <- 47         0.00029
       6 <-  9        -0.06164
       6 <- 13         0.00233
       6 <- 18        -0.00671
       6 <- 23         0.00081
       6 <- 28        -0.00418
       6 <- 31        -0.00208
       6 <- 44         0.00032
       6 <- 46         0.00225
       6 <- 52        -0.00070
       7 <- 10        -0.06888
       7 <- 11        -0.00849
       7 <- 14         0.01111
       7 <- 15         0.00548
       7 <- 17         0.00380
       7 <- 20        -0.00022
       7 <- 21        -0.00279
       7 <- 24         0.00276
       7 <- 26         0.00164
       7 <- 29         0.00242
       7 <- 36        -0.00011
       7 <- 39        -0.00040
       7 <- 41         0.00024
       7 <- 43         0.00025
       7 <- 45        -0.00075
       7 <- 48         0.00273
       7 <- 50         0.00119
       7 <- 54         0.00028
       8 <- 27         0.00043
       8 <- 47         0.00329

 Excited State   5:      Singlet-B1     3.6873 eV  336.25 nm  f=0.0055  <S**2>=0.000
       3 ->  9        -0.00590
       3 -> 13         0.00028
       3 -> 18         0.00025
       3 -> 23         0.00016
       3 -> 28         0.00166
       3 -> 31         0.00084
       3 -> 44         0.00033
       3 -> 46         0.00322
       3 -> 52         0.00043
       4 ->  9         0.02860
       4 -> 13        -0.00580
       4 -> 18        -0.00057
       4 -> 23        -0.00463
       4 -> 28        -0.00037
       4 -> 31        -0.00083
       4 -> 37        -0.00036
       4 -> 44         0.00038
       4 -> 46        -0.00093
       4 -> 52        -0.00021
       5 -> 27         0.00553
       5 -> 38         0.00378
       6 ->  9         0.52327
       6 -> 13        -0.00963
       6 -> 18         0.00462
       6 -> 23        -0.00631
       6 -> 28        -0.00130
       6 -> 31         0.00443
       6 -> 37        -0.00283
       6 -> 44        -0.00138
       6 -> 46         0.00180
       6 -> 52         0.00108
       7 -> 10        -0.47343
       7 -> 11        -0.02253
       7 -> 14         0.02355
       7 -> 15         0.01834
       7 -> 17         0.00423
       7 -> 20         0.00229
       7 -> 21        -0.00132
       7 -> 24         0.00616
       7 -> 26         0.00307
       7 -> 29         0.00543
       7 -> 34         0.00315
       7 -> 36         0.00147
       7 -> 39        -0.00060
       7 -> 43        -0.00025
       7 -> 45         0.00050
       7 -> 48         0.00081
       7 -> 50         0.00042
       7 -> 54         0.00147
       8 -> 27        -0.00041
       8 -> 38        -0.00016
       8 -> 47         0.00095
       3 <-  9        -0.00207
       3 <- 13        -0.00096
       3 <- 18        -0.00031
       3 <- 23        -0.00067
       3 <- 28         0.00128
       3 <- 31        -0.00023
       3 <- 37         0.00032
       3 <- 44         0.00035
       3 <- 46         0.00331
       4 <-  9         0.01531
       4 <- 13        -0.00298
       4 <- 18         0.00032
       4 <- 23        -0.00303
       4 <- 28        -0.00016
       4 <- 31        -0.00061
       4 <- 37        -0.00032
       4 <- 44         0.00045
       4 <- 46        -0.00058
       4 <- 52        -0.00015
       5 <- 27         0.00405
       5 <- 38         0.00324
       6 <-  9         0.01013
       6 <- 13         0.00139
       6 <- 18         0.00103
       6 <- 23        -0.00040
       6 <- 28        -0.00154
       6 <- 31         0.00460
       6 <- 37        -0.00268
       6 <- 44        -0.00092
       6 <- 46         0.00106
       6 <- 52         0.00115
       7 <- 10        -0.00689
       7 <- 11        -0.00159
       7 <- 14         0.00368
       7 <- 15         0.00754
       7 <- 17         0.00076
       7 <- 20         0.00500
       7 <- 21        -0.00019
       7 <- 24         0.00380
       7 <- 26         0.00098
       7 <- 29         0.00083
       7 <- 32        -0.00116
       7 <- 34         0.00215
       7 <- 36         0.00237
       7 <- 39        -0.00025
       7 <- 43        -0.00034
       7 <- 45         0.00060
       7 <- 48         0.00091
       7 <- 50         0.00070
       7 <- 54         0.00112
       8 <- 47         0.00114

 Excited State   6:      Singlet-A2     6.7260 eV  184.34 nm  f=0.0000  <S**2>=0.000
       3 -> 27        -0.00095
       3 -> 38        -0.00025
       3 -> 47         0.00010
       4 -> 27        -0.00603
       4 -> 38         0.00044

 The electronic state is 1-A1.
 Alpha  occ. eigenvalues --  -19.17816 -10.34306  -0.88226  -0.71998  -0.49460
 Alpha  occ. eigenvalues --   -0.37728  -0.29963  -0.28555
 Alpha virt. eigenvalues --   -0.18048  -0.10050  -0.00286   0.04028   0.06083
 Alpha virt. eigenvalues --    0.06107   0.11507   0.12923   0.18592   0.20851
 Alpha virt. eigenvalues --    0.23877   0.30418   0.38472   0.39128   0.50416

 Mulliken charges:
               1
     1  C   -0.109434
     2  H    0.194792
     3  H    0.194792
     4  O   -0.280149
 Sum of Mulliken charges =   0.00000

 Dipole moment (field-independent basis, Debye):
    X=             -0.0000    Y=              0.0000    Z=             -4.3477  Tot=              4.3477
 Quadrupole moment (field-independent basis, Debye-Ang):
   XX=            -13.1178   YY=            -12.1044   ZZ=            -10.3297
   XY=              0.0000   XZ=              0.0000   YZ=              0.0000

 Normal termination of Gaussian 16 at Fri Sep 17 10:53:12 2021.
