 Gaussian 16, Revision C.01,
 Gaussian 16:  ES64L-G16RevC.01  3-Jul-2019

 ----------------------------------------
 #P wB97XD/6-311+G* NoSymm #P Field=Y+252
 ----------------------------------------

 -------
 TitleMe
 -------
 Symbolic Z-matrix:
 Charge =  1 Multiplicity = 1

                          Input orientation:
 ---------------------------------------------------------------------
 Center     Atomic      Atomic             Coordinates (Angstroms)
 Number     Number       Type             X           Y           Z
 ---------------------------------------------------------------------
      1          6           0        0.519300    1.233000   -0.031900
      2          6           0        1.944500    1.269200   -0.036700
      3          6           0        2.620400    0.092800   -0.025000
      4          6           0       -0.196000    0.030100    0.001000
      5          1           0       -0.020700    2.174200   -0.043400
      6          1           0        2.482800    2.208900   -0.036100
      7          1           0       -1.277700    0.039900    0.011700
      8          7           0        4.092100    0.095900    0.036600
      9          8           0        4.639300   -1.021700    0.144600
     10          8           0        4.664900    1.198400   -0.023300
     11          6           0        0.494300   -1.167100    0.021000
     12          1           0       -0.032500   -2.114900    0.054500
     13          6           0        1.962900   -1.216500   -0.021100
     14          1           0        2.443600   -1.963100    0.615100
     15         35           0        2.173000   -1.949100   -1.906200
 ---------------------------------------------------------------------

 SCF Done:  E(RwB97XD) =  -3010.57769061     A.U. after   23 cycles

 Alpha  occ. eigenvalues -- -483.27745 -62.82699 -56.62446 -56.61813 -56.61788
 Alpha  occ. eigenvalues --  -19.46484 -19.46019 -14.85430 -10.58556 -10.56678
 Alpha  occ. eigenvalues --  -10.55231 -10.54649 -10.53858 -10.51947  -8.98452
 Alpha  occ. eigenvalues --   -6.81269  -6.79204  -6.79126  -2.91138  -2.90609
 Alpha  occ. eigenvalues --   -2.90547  -2.88896  -2.88895  -1.49819  -1.32801
 Alpha  occ. eigenvalues --   -1.21236  -1.12006  -1.10790  -1.02731  -0.98853
 Alpha  occ. eigenvalues --   -0.94082  -0.89759  -0.84700  -0.80449  -0.79853
 Alpha  occ. eigenvalues --   -0.79239  -0.77133  -0.75826  -0.74276  -0.70557
 Alpha  occ. eigenvalues --   -0.67248  -0.66367  -0.61879  -0.58192  -0.57404
 Alpha  occ. eigenvalues --   -0.56469  -0.55658  -0.51739  -0.51249
 Alpha virt. eigenvalues --   -0.28505  -0.20161  -0.19702  -0.15309  -0.13425
 Alpha virt. eigenvalues --   -0.11976  -0.09170  -0.08917  -0.06975  -0.04657
 Alpha virt. eigenvalues --   -0.04563  -0.02871  -0.01355  -0.00415  -0.00213

 Mulliken charges:
               1
     1  C   -0.103083
     2  C    0.241608
     3  C   -0.149289
     4  C   -0.407575
     5  H    0.231479
     6  H    0.245189
     7  H    0.325828
     8  N   -0.249012
     9  O    0.230043
    10  O   -0.071977
    11  C   -0.157628
    12  H    0.440907
    13  C   -0.426336
    14  H    0.469607
    15  Br   0.380238
 Sum of Mulliken charges =   1.00000

 Dipole moment (field-independent basis, Debye):
    X=              3.1697    Y=             -8.3623    Z=             -1.8122  Tot=              9.1246
 Quadrupole moment (field-independent basis, Debye-Ang):
   XX=            -67.4707   YY=            -48.2245   ZZ=            -59.5649
   XY=            -18.5673   XZ=             -4.8818   YZ=              6.4287

 Normal termination of Gaussian 16 at Thu May  2 14:23:27 2024.
