 Gaussian 16, Revision C.01,
 Gaussian 16:  ES64L-G16RevC.01  3-Jul-2019

 ---------------------------------------
 #P wB97XD/6-311+G* NoSymm #P Field=Z-87
 ---------------------------------------

 -------
 TitleMe
 -------
 Symbolic Z-matrix:
 Charge =  1 Multiplicity = 1

                          Input orientation:
 ---------------------------------------------------------------------
 Center     Atomic      Atomic             Coordinates (Angstroms)
 Number     Number       Type             X           Y           Z
 ---------------------------------------------------------------------
      1          6           0        0.519300    1.233000   -0.031900
      2          6           0        1.944500    1.269200   -0.036700
      3          6           0        2.620400    0.092800   -0.025000
      4          6           0       -0.196000    0.030100    0.001000
      5          1           0       -0.020700    2.174200   -0.043400
      6          1           0        2.482800    2.208900   -0.036100
      7          1           0       -1.277700    0.039900    0.011700
      8          7           0        4.092100    0.095900    0.036600
      9          8           0        4.639300   -1.021700    0.144600
     10          8           0        4.664900    1.198400   -0.023300
     11          6           0        0.494300   -1.167100    0.021000
     12          1           0       -0.032500   -2.114900    0.054500
     13          6           0        1.962900   -1.216500   -0.021100
     14          1           0        2.443600   -1.963100    0.615100
     15         35           0        2.173000   -1.949100   -1.906200
 ---------------------------------------------------------------------

 SCF Done:  E(RwB97XD) =  -3010.53200391     A.U. after   19 cycles

 Alpha  occ. eigenvalues -- -483.32516 -62.87557 -56.67226 -56.66690 -56.66682
 Alpha  occ. eigenvalues --  -19.46418 -19.46386 -14.85852 -10.59648 -10.58771
 Alpha  occ. eigenvalues --  -10.57747 -10.57499 -10.53798 -10.53135  -9.03376
 Alpha  occ. eigenvalues --   -6.85991  -6.84221  -6.84199  -2.95910  -2.95441
 Alpha  occ. eigenvalues --   -2.95423  -2.94006  -2.94005  -1.50096  -1.33049
 Alpha  occ. eigenvalues --   -1.22948  -1.13499  -1.12937  -1.05722  -1.00816
 Alpha  occ. eigenvalues --   -0.95830  -0.90990  -0.85231  -0.81222  -0.80507
 Alpha  occ. eigenvalues --   -0.80319  -0.78293  -0.76439  -0.76003  -0.72677
 Alpha  occ. eigenvalues --   -0.68976  -0.68004  -0.64093  -0.60688  -0.57956
 Alpha  occ. eigenvalues --   -0.57564  -0.56968  -0.56124  -0.55468
 Alpha virt. eigenvalues --   -0.30719  -0.20690  -0.16735  -0.13421  -0.10293
 Alpha virt. eigenvalues --   -0.07642  -0.06966  -0.06298  -0.05123  -0.03915
 Alpha virt. eigenvalues --   -0.03694  -0.02295  -0.02051  -0.01882  -0.00984

 Mulliken charges:
               1
     1  C   -0.086918
     2  C    0.148458
     3  C   -0.087475
     4  C   -0.340716
     5  H    0.347618
     6  H    0.352532
     7  H    0.333916
     8  N   -0.222930
     9  O    0.089393
    10  O    0.071478
    11  C   -0.178074
    12  H    0.360058
    13  C   -0.324078
    14  H    0.439259
    15  Br   0.097480
 Sum of Mulliken charges =   1.00000

 Dipole moment (field-independent basis, Debye):
    X=              2.6618    Y=             -0.5620    Z=              0.8083  Tot=              2.8380
 Quadrupole moment (field-independent basis, Debye-Ang):
   XX=            -67.8226   YY=            -51.6952   ZZ=            -64.2314
   XY=             -2.2841   XZ=              0.6537   YZ=              0.9327

 Normal termination of Gaussian 16 at Thu May  2 14:18:45 2024.
