 Gaussian 16, Revision C.01,
 Gaussian 16:  ES64L-G16RevC.01  3-Jul-2019

 ----------------------------------------
 #P wB97XD/6-311+G* NoSymm #P Field=X-272
 ----------------------------------------

 -------
 TitleMe
 -------
 Symbolic Z-matrix:
 Charge =  1 Multiplicity = 1

                          Input orientation:
 ---------------------------------------------------------------------
 Center     Atomic      Atomic             Coordinates (Angstroms)
 Number     Number       Type             X           Y           Z
 ---------------------------------------------------------------------
      1          6           0        0.029500    1.339700    0.068200
      2          6           0        1.434800    1.286700    0.006400
      3          6           0        2.111800    0.051100   -0.005400
      4          6           0        1.445100   -1.137200    0.031200
      5          6           0       -0.687900    0.168200    0.110000
      6          1           0       -0.471300    2.298400    0.078100
      7          1           0        2.027300    2.196500   -0.032200
      8          1           0        1.989700   -2.076400    0.023200
      9          1           0       -1.771600    0.180400    0.158200
     10          7           0        3.586400    0.051000   -0.067500
     11          8           0        4.147100   -1.059700   -0.088100
     12          8           0        4.145000    1.163900   -0.090100
     13          6           0       -0.023600   -1.145800    0.083500
     14          1           0       -0.436700   -1.872500    0.788900
     15         35           0       -0.535900   -1.869700   -1.740800
 ---------------------------------------------------------------------

 SCF Done:  E(RwB97XD) =  -3010.57154322     A.U. after   30 cycles

 Alpha  occ. eigenvalues -- -483.29421 -62.84479 -56.64113 -56.63628 -56.63618
 Alpha  occ. eigenvalues --  -19.33530 -19.33497 -14.72690 -10.55894 -10.53525
 Alpha  occ. eigenvalues --  -10.51969 -10.51098 -10.50381 -10.50369  -9.00309
 Alpha  occ. eigenvalues --   -6.82822  -6.81217  -6.81181  -2.92765  -2.92341
 Alpha  occ. eigenvalues --   -2.92311  -2.91027  -2.91026  -1.36898  -1.19786
 Alpha  occ. eigenvalues --   -1.18362  -1.09780  -1.07056  -1.01541  -0.94053
 Alpha  occ. eigenvalues --   -0.91109  -0.85452  -0.80141  -0.75725  -0.74774
 Alpha  occ. eigenvalues --   -0.72409  -0.70217  -0.69244  -0.66929  -0.64753
 Alpha  occ. eigenvalues --   -0.64207  -0.61483  -0.59662  -0.56740  -0.55199
 Alpha  occ. eigenvalues --   -0.51903  -0.43814  -0.42301  -0.42024
 Alpha virt. eigenvalues --   -0.25949  -0.18240  -0.14283  -0.13319  -0.13038
 Alpha virt. eigenvalues --   -0.10663  -0.08891  -0.05965  -0.04428  -0.04203
 Alpha virt. eigenvalues --   -0.03253  -0.01610  -0.00263   0.00501   0.00981

 Mulliken charges:
               1
     1  C   -0.488287
     2  C    0.336971
     3  C   -0.563740
     4  C    0.309578
     5  C   -0.039441
     6  H    0.274817
     7  H    0.409302
     8  H    0.410499
     9  H    0.215497
    10  N   -0.136016
    11  O    0.183507
    12  O    0.181805
    13  C   -0.476260
    14  H    0.358118
    15  Br   0.023650
 Sum of Mulliken charges =   1.00000

 Dipole moment (field-independent basis, Debye):
    X=              8.1601    Y=              0.3652    Z=              0.6684  Tot=              8.1956
 Quadrupole moment (field-independent basis, Debye-Ang):
   XX=            -49.7798   YY=            -53.3459   ZZ=            -65.1031
   XY=             -0.3477   XZ=             -1.2194   YZ=             -0.3507

 Normal termination of Gaussian 16 at Wed May  1 14:58:11 2024.
