 Gaussian 16, Revision A.03,
 Gaussian 16:  ES64L-G16RevA.03 25-Dec-2016

 --------------------------------------------------------------------
 #p B3LYP/6-311+G** #p TD=(singlets,nstates=30)IOp(6/8=3) IOp(9/40=4)
 --------------------------------------------------------------------

 -------------------------------
 Scan Step 254, Bond Length 1.77
 -------------------------------
 Symbolic Z-matrix:
 Charge =  0 Multiplicity = 1

                         Standard orientation:
 ---------------------------------------------------------------------
 Center     Atomic      Atomic             Coordinates (Angstroms)
 Number     Number       Type             X           Y           Z
 ---------------------------------------------------------------------
      1          6           0        0.000000    0.000000   -0.811081
      2          1           0        0.000000    0.937260   -1.402431
      3          1           0       -0.000000   -0.937260   -1.402431
      4          8           0        0.000000   -0.000000    0.958919
 ---------------------------------------------------------------------

 SCF Done:  E(RB3LYP) =  -114.366665639     A.U. after   11 cycles

 Excitation energies and oscillator strengths:

 Excited State   1:      Singlet-A2     1.4442 eV  858.50 nm  f=0.0000  <S**2>=0.000
       3 -> 27         0.00082
       3 -> 38         0.00054
       3 -> 46         0.00336
       4 -> 27         0.00045
       4 -> 46        -0.00106
       5 ->  9         0.00291
       5 -> 13         0.00111
       5 -> 18         0.00197
       5 -> 23         0.00146
       5 -> 28         0.00158
       5 -> 37         0.00088
       5 -> 44         0.00024
       5 -> 52         0.00021
       6 -> 27        -0.00060
       6 -> 38        -0.00062
       6 -> 46         0.00104
       7 -> 12        -0.00118
       7 -> 16         0.00519
       7 -> 19        -0.00451
       7 -> 22        -0.00107
       7 -> 25        -0.00066
       7 -> 29        -0.00182
       7 -> 33         0.00030
       7 -> 49         0.00013
       7 -> 53         0.00040
       8 ->  9         0.71013
       8 -> 13        -0.00818
       8 -> 18         0.02107
       8 -> 23        -0.00148
       8 -> 28         0.01056
       8 -> 31         0.00155
       8 -> 37         0.00052
       8 -> 48        -0.00030
       8 -> 52         0.00189
       3 <- 27         0.00027
       3 <- 38         0.00030
       3 <- 46         0.00339
       4 <- 27         0.00083
       4 <- 38         0.00021
       4 <- 46        -0.00084
       5 <-  9         0.00019
       5 <- 13        -0.00038
       5 <- 18        -0.00045
       5 <- 23         0.00019
       5 <- 28        -0.00033
       5 <- 31         0.00025
       5 <- 37         0.00051
       6 <- 38        -0.00048
       6 <- 46         0.00078
       7 <- 12         0.00150
       7 <- 16        -0.01050
       7 <- 19         0.00512
       7 <- 22         0.00609
       7 <- 25        -0.00062
       7 <- 29         0.00556
       7 <- 33        -0.00037
       7 <- 35         0.00029
       7 <- 40        -0.00019
       7 <- 42         0.00015
       7 <- 49        -0.00048
       7 <- 53         0.00146
       8 <-  9        -0.06870
       8 <- 13        -0.00022
       8 <- 18        -0.00746
       8 <- 23        -0.00021
       8 <- 28        -0.00268
       8 <- 31        -0.00077
       8 <- 37        -0.00026
       8 <- 48         0.00013
       8 <- 52         0.00046
 This state for optimization and/or second-order correction.
 Total Energy, E(TD-HF/TD-DFT) =  -114.313592548
 Copying the excited state density for this state as the 1-particle RhoCI density.

 Excited State   2:      Singlet-A1     3.7908 eV  327.06 nm  f=0.0402  <S**2>=0.000
       3 -> 10        -0.01657
       3 -> 11        -0.00455
       3 -> 14         0.00307
       3 -> 15         0.00103
       3 -> 17        -0.00321
       3 -> 20        -0.00378
       3 -> 21         0.00017
       3 -> 24         0.00095
       3 -> 26         0.00192
       3 -> 30        -0.00104
       3 -> 32         0.00277
       3 -> 34        -0.00129
       3 -> 36        -0.00109
       3 -> 39         0.00052
       3 -> 43         0.00053
       3 -> 45         0.00076
       3 -> 47         0.00230
       3 -> 50         0.00144
       4 -> 10        -0.00321
       4 -> 11         0.01162
       4 -> 14         0.00250
       4 -> 15        -0.00844
       4 -> 17         0.00249
       4 -> 20         0.00283
       4 -> 21         0.00033
       4 -> 24        -0.00406
       4 -> 26         0.00380
       4 -> 30         0.00062
       4 -> 32        -0.00132
       4 -> 34         0.00096
       4 -> 36         0.00025
       4 -> 39         0.00013
       4 -> 41         0.00010
       4 -> 43        -0.00050
       4 -> 45        -0.00080
       4 -> 47        -0.00088
       4 -> 50        -0.00030
       4 -> 54         0.00015
       5 -> 12         0.01141
       5 -> 16         0.00435
       5 -> 19         0.00128
       5 -> 22         0.00722
       5 -> 25        -0.00551
       5 -> 29         0.00029
       5 -> 33        -0.00258
       5 -> 35         0.00277
       5 -> 40        -0.00114
       5 -> 42         0.00090
       5 -> 49         0.00023
       5 -> 51        -0.00081
       6 -> 10         0.23463
       6 -> 11         0.04946
       6 -> 14        -0.05572
       6 -> 15        -0.02924
       6 -> 17        -0.01701
       6 -> 20        -0.00338
       6 -> 21         0.00728
       6 -> 24        -0.00936
       6 -> 26        -0.00404
       6 -> 30        -0.00553
       6 -> 32         0.00298
       6 -> 34        -0.00140
       6 -> 36         0.00023
       6 -> 39         0.00121
       6 -> 41        -0.00018
       6 -> 43         0.00085
       6 -> 45         0.00084
       6 -> 47         0.00089
       6 -> 50         0.00065
       6 -> 54        -0.00091
       7 ->  9         0.67833
       7 -> 13        -0.00550
       7 -> 18        -0.01235
       7 -> 23        -0.00211
       7 -> 28         0.00067
       7 -> 31        -0.00325
       7 -> 37         0.00125
       7 -> 44        -0.00099
       7 -> 48         0.00016
       7 -> 52         0.00106
       8 -> 12        -0.00781
       8 -> 16         0.04393
       8 -> 19        -0.02012
       8 -> 22        -0.01578
       8 -> 29        -0.00903
       8 -> 33         0.00121
       8 -> 35        -0.00109
       8 -> 40         0.00047
       8 -> 42        -0.00032
       8 -> 49         0.00025
       8 -> 51         0.00017
       8 -> 53        -0.00055
       3 <- 10        -0.01253
       3 <- 11        -0.00381
       3 <- 14         0.00251
       3 <- 15         0.00040
       3 <- 17        -0.00179
       3 <- 20        -0.00311
       3 <- 21        -0.00029
       3 <- 24         0.00036
       3 <- 26         0.00086
       3 <- 30        -0.00055
       3 <- 32         0.00246
       3 <- 34        -0.00070
       3 <- 36        -0.00104
       3 <- 39         0.00049
       3 <- 43         0.00060
       3 <- 45         0.00092
       3 <- 47         0.00233
       3 <- 50         0.00144
       3 <- 54         0.00011
       4 <- 10        -0.00090
       4 <- 11         0.00814
       4 <- 14         0.00170
       4 <- 15        -0.00558
       4 <- 17         0.00144
       4 <- 20         0.00306
       4 <- 21         0.00017
       4 <- 24        -0.00301
       4 <- 26         0.00326
       4 <- 32        -0.00148
       4 <- 34         0.00081
       4 <- 36         0.00054
       4 <- 39         0.00013
       4 <- 43        -0.00046
       4 <- 45        -0.00077
       4 <- 47        -0.00054
       4 <- 50        -0.00017
       4 <- 54         0.00011
       5 <- 12         0.00639
       5 <- 16         0.00269
       5 <- 19         0.00098
       5 <- 22         0.00501
       5 <- 25        -0.00416
       5 <- 29         0.00033
       5 <- 33        -0.00212
       5 <- 35         0.00235
       5 <- 40        -0.00103
       5 <- 42         0.00079
       5 <- 49         0.00022
       5 <- 51        -0.00076
       6 <- 10         0.07815
       6 <- 11         0.01920
       6 <- 14        -0.02552
       6 <- 15        -0.01476
       6 <- 17        -0.00974
       6 <- 20        -0.00330
       6 <- 21         0.00482
       6 <- 24        -0.00609
       6 <- 26        -0.00220
       6 <- 30        -0.00384
       6 <- 32         0.00311
       6 <- 34        -0.00159
       6 <- 36        -0.00026
       6 <- 39         0.00113
       6 <- 41        -0.00015
       6 <- 43         0.00070
       6 <- 45         0.00064
       6 <- 47         0.00052
       6 <- 50         0.00051
       6 <- 54        -0.00082
       7 <-  9        -0.13053
       7 <- 13         0.00441
       7 <- 18        -0.01209
       7 <- 23         0.00144
       7 <- 28        -0.00224
       7 <- 31        -0.00159
       7 <- 37         0.00058
       7 <- 44        -0.00074
       7 <- 48        -0.00037
       7 <- 52         0.00096
       8 <- 12        -0.00283
       8 <- 16         0.02029
       8 <- 19        -0.01085
       8 <- 22        -0.00996
       8 <- 25         0.00010
       8 <- 29        -0.00706
       8 <- 33         0.00094
       8 <- 35        -0.00085
       8 <- 40         0.00038
       8 <- 42        -0.00026
       8 <- 49         0.00011
       8 <- 51         0.00014
       8 <- 53        -0.00051

 Excited State   3:      Singlet-B1     4.2589 eV  291.12 nm  f=0.0007  <S**2>=0.000
       3 ->  9        -0.02469
       3 -> 13         0.00105
       3 -> 18        -0.00387
       3 -> 23         0.00133
       3 -> 28        -0.00081
       3 -> 31        -0.00061
       3 -> 37         0.00012
       3 -> 44         0.00030
       3 -> 48         0.00074
       3 -> 52         0.00080
       4 ->  9         0.00972
       4 -> 13        -0.00215
       4 -> 18         0.00013
       4 -> 23        -0.00193
       4 -> 28         0.00043
       4 -> 31        -0.00129
       4 -> 37        -0.00031
       4 -> 48        -0.00069
       4 -> 52        -0.00038
       5 -> 38         0.00179
       5 -> 46         0.00054
       6 ->  9         0.68710
       6 -> 13        -0.01751
       6 -> 18         0.01468
       6 -> 23        -0.01033
       6 -> 28         0.00361
       6 -> 31         0.00250
       6 -> 37        -0.00169
       6 -> 44        -0.00207
       6 -> 48         0.00357
       6 -> 52         0.00111
       7 -> 10         0.16870
       7 -> 11         0.02582
       7 -> 14        -0.02368
       7 -> 15        -0.00723
       7 -> 17        -0.00938
       7 -> 20         0.00360
       7 -> 21         0.00136
       7 -> 24        -0.00212
       7 -> 26        -0.00253
       7 -> 30        -0.00432
       7 -> 34        -0.00076
       7 -> 36         0.00151
       7 -> 39         0.00018
       7 -> 41        -0.00024
       7 -> 43         0.00048
       7 -> 45         0.00043
       7 -> 47         0.00371
       7 -> 50         0.00122
       8 -> 27         0.00015
       8 -> 46         0.00457
       3 <-  9        -0.00832
       3 <- 13        -0.00084
       3 <- 18        -0.00259
       3 <- 23        -0.00058
       3 <- 28        -0.00045
       3 <- 31        -0.00075
       3 <- 37         0.00016
       3 <- 48         0.00086
       3 <- 52         0.00071
       4 <-  9         0.00583
       4 <- 13        -0.00040
       4 <- 18         0.00153
       4 <- 23        -0.00072
       4 <- 28         0.00143
       4 <- 31        -0.00089
       4 <- 37        -0.00019
       4 <- 48        -0.00061
       4 <- 52        -0.00020
       5 <- 27        -0.00045
       5 <- 38         0.00153
       5 <- 46         0.00047
       6 <-  9        -0.03503
       6 <- 13         0.00199
       6 <- 18        -0.00430
       6 <- 28        -0.00385
       6 <- 31         0.00040
       6 <- 37        -0.00140
       6 <- 44        -0.00077
       6 <- 48         0.00320
       6 <- 52         0.00017
       7 <- 10        -0.03954
       7 <- 11        -0.00961
       7 <- 14         0.01384
       7 <- 15         0.00896
       7 <- 17         0.00266
       7 <- 20         0.00346
       7 <- 21        -0.00352
       7 <- 24         0.00422
       7 <- 26         0.00174
       7 <- 30         0.00184
       7 <- 32         0.00036
       7 <- 34        -0.00106
       7 <- 36         0.00170
       7 <- 39         0.00057
       7 <- 41         0.00011
       7 <- 43         0.00028
       7 <- 45         0.00021
       7 <- 47         0.00344
       7 <- 50         0.00128
       7 <- 54         0.00090
       8 <- 27         0.00062
       8 <- 38         0.00013
       8 <- 46         0.00429

 Excited State   4:      Singlet-B2     4.3197 eV  287.02 nm  f=0.0040  <S**2>=0.000
       3 -> 12        -0.00134
       3 -> 16         0.00160
       3 -> 19        -0.00428
       3 -> 22         0.00096
       3 -> 25        -0.00082
       3 -> 29        -0.00291
       3 -> 33         0.00011
       3 -> 35         0.00171
       3 -> 40        -0.00153
       3 -> 42         0.00051
       3 -> 49        -0.00362
       3 -> 51         0.00019
       3 -> 53         0.00030
       4 -> 12         0.00044
       4 -> 16        -0.00182
       4 -> 19         0.00042
       4 -> 22         0.00212
       4 -> 25         0.00089
       4 -> 29         0.00111
       4 -> 33        -0.00039
       4 -> 35         0.00047
       4 -> 40         0.00036
       4 -> 42        -0.00012
       4 -> 49         0.00069
       4 -> 51        -0.00011
       5 -> 10         0.01085
       5 -> 11         0.00206
       5 -> 14        -0.00512
       5 -> 15         0.00379
       5 -> 17        -0.00041
       5 -> 20         0.00208
       5 -> 21         0.00391
       5 -> 24         0.00159
       5 -> 26        -0.00085
       5 -> 30        -0.00201
       5 -> 32        -0.00176
       5 -> 34         0.00048
       5 -> 39        -0.00081
       5 -> 41         0.00050
       5 -> 47        -0.00053
       5 -> 50         0.00034
       5 -> 54        -0.00022
       6 -> 12         0.00263
       6 -> 16        -0.00255
       6 -> 19         0.00394
       6 -> 22        -0.00054
       6 -> 25         0.00107
       6 -> 35        -0.00152
       6 -> 40         0.00113
       6 -> 42        -0.00067
       6 -> 49         0.00143
       6 -> 53        -0.00045
       7 -> 27        -0.00061
       7 -> 38         0.00046
       7 -> 46         0.00340
       8 -> 10         0.69751
       8 -> 11         0.08799
       8 -> 14        -0.07470
       8 -> 15        -0.02919
       8 -> 17        -0.01640
       8 -> 20         0.00310
       8 -> 21         0.00695
       8 -> 24        -0.00644
       8 -> 26        -0.00500
       8 -> 30        -0.01217
       8 -> 32        -0.00322
       8 -> 34         0.00151
       8 -> 36         0.00097
       8 -> 39        -0.00069
       8 -> 41        -0.00011
       8 -> 45         0.00098
       8 -> 47        -0.00420
       8 -> 50         0.00177
       8 -> 54        -0.00231
       3 <- 12        -0.00048
       3 <- 16         0.00052
       3 <- 19        -0.00208
       3 <- 22         0.00096
       3 <- 25        -0.00074
       3 <- 29        -0.00116
       3 <- 33         0.00012
       3 <- 35         0.00121
       3 <- 40        -0.00132
       3 <- 42         0.00039
       3 <- 49        -0.00370
       3 <- 51         0.00018
       3 <- 53         0.00080
       4 <- 16        -0.00190
       4 <- 19         0.00015
       4 <- 22         0.00232
       4 <- 25         0.00054
       4 <- 29         0.00124
       4 <- 33        -0.00042
       4 <- 35         0.00069
       4 <- 40         0.00015
       4 <- 49         0.00049
       5 <- 10        -0.00083
       5 <- 11        -0.00091
       5 <- 14        -0.00061
       5 <- 15         0.00294
       5 <- 17         0.00020
       5 <- 20         0.00076
       5 <- 21         0.00184
       5 <- 24         0.00188
       5 <- 26        -0.00022
       5 <- 30        -0.00043
       5 <- 32        -0.00032
       5 <- 39        -0.00033
       5 <- 41         0.00053
       5 <- 45         0.00028
       5 <- 47        -0.00051
       5 <- 50         0.00018
       6 <- 12        -0.00050
       6 <- 16         0.00720
       6 <- 19        -0.00362
       6 <- 22        -0.00501
       6 <- 25         0.00103
       6 <- 29        -0.00583
       6 <- 33         0.00031
       6 <- 35        -0.00141
       6 <- 40         0.00115
       6 <- 42        -0.00073
       6 <- 49         0.00184
       6 <- 53        -0.00135
       7 <- 27        -0.00060
       7 <- 38         0.00037
       7 <- 46         0.00289
       8 <- 10        -0.03440
       8 <- 11        -0.00841
       8 <- 14         0.00895
       8 <- 15         0.00248
       8 <- 17         0.00138
       8 <- 20        -0.00299
       8 <- 21        -0.00167
       8 <- 24         0.00161
       8 <- 26         0.00149
       8 <- 30         0.00053
       8 <- 32         0.00307
       8 <- 34        -0.00098
       8 <- 36        -0.00065
       8 <- 39         0.00131
       8 <- 41         0.00031
       8 <- 43         0.00049
       8 <- 45         0.00176
       8 <- 47        -0.00339
       8 <- 50         0.00129
       8 <- 54        -0.00062

 Excited State   5:      Singlet-B1     5.1709 eV  239.78 nm  f=0.0074  <S**2>=0.000
       3 ->  9        -0.00858
       3 -> 13         0.00040
       3 -> 18        -0.00253
       3 -> 23         0.00063
       3 -> 28        -0.00288
       3 -> 31        -0.00154
       3 -> 37         0.00011
       3 -> 44         0.00031
       3 -> 48        -0.00283
       3 -> 52        -0.00013
       4 ->  9        -0.03139
       4 -> 13         0.00609
       4 -> 18         0.00108
       4 -> 23         0.00461
       4 -> 28         0.00139
       4 -> 31         0.00014
       4 -> 37         0.00033
       4 -> 44        -0.00045
       4 -> 48         0.00076
       4 -> 52         0.00014
       5 -> 27        -0.00672
       5 -> 38        -0.00329
       5 -> 46         0.00030
       6 ->  9        -0.16946
       6 -> 18         0.00126
       6 -> 23         0.00059
       6 -> 28         0.00312
       6 -> 31        -0.00375
       6 -> 37         0.00220
       6 -> 44         0.00052
       6 -> 48         0.00016
       6 -> 52        -0.00070
       7 -> 10         0.67830
       7 -> 11         0.07429
       7 -> 14        -0.06640
       7 -> 15        -0.03515
       7 -> 17        -0.00959
       7 -> 20        -0.00310
       7 -> 21         0.00366
       7 -> 24        -0.00975
       7 -> 26        -0.00646
       7 -> 30        -0.00720
       7 -> 32        -0.00194
       7 -> 34         0.00383
       7 -> 36        -0.00148
       7 -> 39        -0.00063
       7 -> 43         0.00059
       7 -> 45         0.00097
       7 -> 47         0.00131
       7 -> 50         0.00063
       7 -> 54        -0.00160
       8 -> 27         0.00077
       8 -> 38         0.00023
       8 -> 46         0.00158
       3 <-  9        -0.00184
       3 <- 13         0.00067
       3 <- 18        -0.00099
       3 <- 23         0.00059
       3 <- 28        -0.00190
       3 <- 31        -0.00024
       3 <- 37        -0.00021
       3 <- 48        -0.00297
       3 <- 52         0.00033
       4 <-  9        -0.01264
       4 <- 13         0.00269
       4 <- 18         0.00035
       4 <- 23         0.00261
       4 <- 28         0.00134
       4 <- 37         0.00037
       4 <- 44        -0.00066
       4 <- 48         0.00035
       4 <- 52         0.00012
       5 <- 27        -0.00472
       5 <- 38        -0.00263
       5 <- 46         0.00031
       6 <-  9        -0.02813
       6 <- 18        -0.00369
       6 <- 23         0.00054
       6 <- 28        -0.00044
       6 <- 31        -0.00452
       6 <- 37         0.00202

 The electronic state is 1-A1.
 Alpha  occ. eigenvalues --  -19.17645 -10.33673  -0.89960  -0.71040  -0.49118
 Alpha  occ. eigenvalues --   -0.39589  -0.31235  -0.28783
 Alpha virt. eigenvalues --   -0.16583  -0.05564   0.00128   0.04056   0.06098
 Alpha virt. eigenvalues --    0.06758   0.11960   0.13579   0.18798   0.21109
 Alpha virt. eigenvalues --    0.23974   0.30364   0.38601   0.39912   0.50729

 Mulliken charges:
               1
     1  C   -0.089304
     2  H    0.189985
     3  H    0.189985
     4  O   -0.290667
 Sum of Mulliken charges =   0.00000

 Dipole moment (field-independent basis, Debye):
    X=             -0.0000    Y=              0.0000    Z=             -4.0790  Tot=              4.0790
 Quadrupole moment (field-independent basis, Debye-Ang):
   XX=            -12.9778   YY=            -12.0022   ZZ=            -10.8114
   XY=              0.0000   XZ=              0.0000   YZ=             -0.0000

 Normal termination of Gaussian 16 at Fri Sep 17 10:53:06 2021.
