 Gaussian 16, Revision C.01,
 Gaussian 16:  ES64L-G16RevC.01  3-Jul-2019

 ----------------------------------------
 #P wB97XD/6-311+G* NoSymm #P Field=X+145
 ----------------------------------------

 -------
 TitleMe
 -------
 Symbolic Z-matrix:
 Charge =  1 Multiplicity = 1

                          Input orientation:
 ---------------------------------------------------------------------
 Center     Atomic      Atomic             Coordinates (Angstroms)
 Number     Number       Type             X           Y           Z
 ---------------------------------------------------------------------
      1          6           0        0.029500    1.339700    0.068200
      2          6           0        1.434800    1.286700    0.006400
      3          6           0        2.111800    0.051100   -0.005400
      4          6           0        1.445100   -1.137200    0.031200
      5          6           0       -0.687900    0.168200    0.110000
      6          1           0       -0.471300    2.298400    0.078100
      7          1           0        2.027300    2.196500   -0.032200
      8          1           0        1.989700   -2.076400    0.023200
      9          1           0       -1.771600    0.180400    0.158200
     10          7           0        3.586400    0.051000   -0.067500
     11          8           0        4.147100   -1.059700   -0.088100
     12          8           0        4.145000    1.163900   -0.090100
     13          6           0       -0.023600   -1.145800    0.083500
     14          1           0       -0.436700   -1.872500    0.788900
     15         35           0       -0.535900   -1.869700   -1.740800
 ---------------------------------------------------------------------

 SCF Done:  E(RwB97XD) =  -3010.55251484     A.U. after   19 cycles

 Alpha  occ. eigenvalues -- -483.32190 -62.87191 -56.66904 -56.66307 -56.66300
 Alpha  occ. eigenvalues --  -19.53136 -19.53054 -14.92410 -10.60583 -10.59822
 Alpha  occ. eigenvalues --  -10.59700 -10.59377 -10.58120 -10.54248  -9.02979
 Alpha  occ. eigenvalues --   -6.85710  -6.83760  -6.83730  -2.95601  -2.95088
 Alpha  occ. eigenvalues --   -2.95063  -2.93504  -2.93503  -1.56862  -1.39921
 Alpha  occ. eigenvalues --   -1.25051  -1.16724  -1.13723  -1.06148  -1.04573
 Alpha  occ. eigenvalues --   -0.97406  -0.93802  -0.90233  -0.86794  -0.85296
 Alpha  occ. eigenvalues --   -0.84233  -0.81183  -0.79907  -0.77855  -0.74220
 Alpha  occ. eigenvalues --   -0.70797  -0.69338  -0.65778  -0.64379  -0.64054
 Alpha  occ. eigenvalues --   -0.63104  -0.61668  -0.56949  -0.56267
 Alpha virt. eigenvalues --   -0.31291  -0.27095  -0.17442  -0.15863  -0.12624
 Alpha virt. eigenvalues --   -0.09823  -0.09231  -0.07811  -0.07669  -0.05744
 Alpha virt. eigenvalues --   -0.04268  -0.04082  -0.03552  -0.02113  -0.01845

 Mulliken charges:
               1
     1  C   -0.611713
     2  C    0.561678
     3  C   -0.746816
     4  C    0.205749
     5  C    0.053567
     6  H    0.363978
     7  H    0.339646
     8  H    0.352732
     9  H    0.412725
    10  N   -0.103699
    11  O   -0.033970
    12  O   -0.037146
    13  C   -0.442365
    14  H    0.428141
    15  Br   0.257491
 Sum of Mulliken charges =   1.00000

 Dipole moment (field-independent basis, Debye):
    X=             -5.2219    Y=             -1.0962    Z=             -0.3873  Tot=              5.3497
 Quadrupole moment (field-independent basis, Debye-Ang):
   XX=            -81.8652   YY=            -51.5496   ZZ=            -61.5823
   XY=              1.9579   XZ=              2.2351   YZ=              2.6938

 Normal termination of Gaussian 16 at Wed May  1 14:46:33 2024.
