 Gaussian 16, Revision A.03,
 Gaussian 16:  ES64L-G16RevA.03 25-Dec-2016

 --------------------------------------------------------------------
 #p B3LYP/6-311+G** #p TD=(singlets,nstates=30)IOp(6/8=3) IOp(9/40=4)
 --------------------------------------------------------------------

 -------------------------------
 Scan Step 33, Bond Length 0.665
 -------------------------------
 Symbolic Z-matrix:
 Charge =  0 Multiplicity = 1

                         Standard orientation:
 ---------------------------------------------------------------------
 Center     Atomic      Atomic             Coordinates (Angstroms)
 Number     Number       Type             X           Y           Z
 ---------------------------------------------------------------------
      1          6           0        0.000000    0.000000   -0.258581
      2          1           0        0.000000    0.937260   -0.849931
      3          1           0       -0.000000   -0.937260   -0.849931
      4          8           0        0.000000   -0.000000    0.406419
 ---------------------------------------------------------------------

 SCF Done:  E(RB3LYP) =  -112.636131320     A.U. after   10 cycles

 Excitation energies and oscillator strengths:

 Excited State   1:      Singlet-B2     4.7916 eV  258.75 nm  f=0.1260  <S**2>=0.000
       3 -> 11         0.00075
       3 -> 16         0.00065
       3 -> 19         0.00075
       3 -> 22         0.00049
       3 -> 24        -0.00102
       3 -> 29         0.00019
       3 -> 32        -0.00019
       3 -> 40        -0.00024
       3 -> 43         0.00021
       3 -> 53         0.00015
       4 ->  9        -0.00284
       4 -> 12         0.00287
       4 -> 13         0.00346
       4 -> 15         0.00150
       4 -> 18         0.00271
       4 -> 20         0.00206
       4 -> 21         0.00168
       4 -> 25         0.00145
       4 -> 26        -0.00077
       4 -> 30         0.00075
       4 -> 31         0.00152
       4 -> 33         0.00024
       4 -> 38        -0.00065
       4 -> 42        -0.00048
       4 -> 44        -0.00030
       4 -> 47        -0.00077
       4 -> 49         0.00015
       4 -> 51        -0.00011
       5 -> 28         0.00184
       5 -> 35         0.00082
       5 -> 45         0.00079
       6 -> 11        -0.00524
       6 -> 16         0.00352
       6 -> 19         0.00050
       6 -> 22        -0.00074
       6 -> 24        -0.00464
       6 -> 29         0.00070
       6 -> 32        -0.00072
       6 -> 37         0.00019
       6 -> 43         0.00015
       6 -> 46         0.00034
       7 -> 11         0.00835
       7 -> 16         0.00351
       7 -> 19         0.00301
       7 -> 22         0.00010
       7 -> 24        -0.00056
       7 -> 29        -0.00111
       7 -> 32         0.00089
       7 -> 37        -0.00071
       7 -> 43        -0.00042
       7 -> 46         0.00040
       7 -> 50         0.00043
       7 -> 53        -0.00011
       8 ->  9         0.70522
       8 -> 12        -0.00033
       8 -> 13         0.04944
       8 -> 15        -0.00620
       8 -> 18        -0.02217
       8 -> 20         0.00542
       8 -> 21         0.01035
       8 -> 25        -0.00022
       8 -> 26        -0.00043
       8 -> 30        -0.00313
       8 -> 31        -0.00204
       8 -> 33        -0.00101
       8 -> 38        -0.00111
       8 -> 42        -0.00075
       8 -> 44         0.00034
       8 -> 47         0.00075
       8 -> 49        -0.00028
       8 -> 51         0.00011
       3 <- 11         0.00032
       3 <- 16         0.00031
       3 <- 19         0.00049
       3 <- 22         0.00039
       3 <- 24        -0.00077
       3 <- 29         0.00015
       3 <- 32        -0.00021
       3 <- 40        -0.00024
       3 <- 43         0.00021
       3 <- 53         0.00016
       4 <-  9        -0.00125
       4 <- 12        -0.00022
       4 <- 13         0.00284
       4 <- 15         0.00176
       4 <- 18         0.00053
       4 <- 20         0.00120
       4 <- 21         0.00132
       4 <- 25         0.00116
       4 <- 26        -0.00132
       4 <- 30         0.00058
       4 <- 31         0.00064
       4 <- 33         0.00022
       4 <- 38        -0.00042
       4 <- 39         0.00015
       4 <- 42        -0.00040
       4 <- 44        -0.00024
       4 <- 47        -0.00069
       5 <- 28         0.00154
       5 <- 35         0.00066
       5 <- 45         0.00066
       6 <- 11        -0.00098
       6 <- 16         0.00311
       6 <- 19         0.00073
       6 <- 24        -0.00341
       6 <- 29         0.00022
       6 <- 32        -0.00063
       6 <- 37         0.00024
       6 <- 43         0.00011
       6 <- 46         0.00032
       6 <- 50         0.00018
       7 <- 11         0.00181
       7 <- 16         0.00146
       7 <- 19         0.00032
       7 <- 24         0.00012
       7 <- 29        -0.00161
       7 <- 32         0.00072
       7 <- 37        -0.00044
       7 <- 43        -0.00028
       7 <- 46         0.00043
       7 <- 50         0.00049
       8 <-  9        -0.00891
       8 <- 12        -0.00555
       8 <- 13         0.02064
       8 <- 15         0.00636
       8 <- 18         0.00134
       8 <- 20         0.00060
       8 <- 21         0.00529
       8 <- 25         0.00306
       8 <- 30        -0.00207
       8 <- 31        -0.00138
       8 <- 33        -0.00137
       8 <- 38        -0.00107
       8 <- 42        -0.00063
       8 <- 47         0.00064
       8 <- 49        -0.00019
 This state for optimization and/or second-order correction.
 Total Energy, E(TD-HF/TD-DFT) =  -112.460043358
 Copying the excited state density for this state as the 1-particle RhoCI density.

 Excited State   2:      Singlet-A2     5.1226 eV  242.03 nm  f=0.0000  <S**2>=0.000
       3 -> 28        -0.00185
       3 -> 35        -0.00114
       3 -> 45        -0.00040
       4 -> 10        -0.00087
       4 -> 14         0.00070
       4 -> 17        -0.00351
       4 -> 23         0.00153
       4 -> 27        -0.00219
       4 -> 36        -0.00144
       4 -> 41        -0.00015
       4 -> 48        -0.00014
       4 -> 52        -0.00027
       5 -> 11         0.00027
       5 -> 16        -0.00016
       5 -> 19         0.00035
       5 -> 22        -0.00089
       5 -> 24        -0.00023
       5 -> 29         0.00024
       5 -> 32        -0.00011
       5 -> 37        -0.00033
       5 -> 40         0.00010
       5 -> 43        -0.00038
       5 -> 46        -0.00035
       5 -> 50         0.00018
       6 -> 28        -0.00322
       6 -> 35         0.00048
       7 -> 28         0.00154
       7 -> 35        -0.00033
       7 -> 45        -0.00044
       8 -> 10         0.70616
       8 -> 14        -0.02441
       8 -> 17         0.02783
       8 -> 23         0.00314
       8 -> 27         0.00142
       8 -> 34         0.00323
       8 -> 36        -0.00188
       8 -> 41         0.00028
       8 -> 48         0.00014
       8 -> 52         0.00036
       3 <- 28        -0.00152
       3 <- 35        -0.00098
       3 <- 45        -0.00039
       4 <- 10        -0.00018
       4 <- 14         0.00066
       4 <- 17        -0.00076
       4 <- 23         0.00013
       4 <- 27        -0.00038
       4 <- 34         0.00074
       4 <- 36        -0.00080
       4 <- 41        -0.00022
       5 <- 11         0.00059
       5 <- 16        -0.00056
       5 <- 19         0.00146
       5 <- 22        -0.00129
       5 <- 24        -0.00112
       5 <- 29         0.00131
       5 <- 32         0.00021
       5 <- 37        -0.00073
       5 <- 43        -0.00043
       5 <- 46        -0.00035
       5 <- 53        -0.00024
       6 <- 28        -0.00313
       6 <- 35         0.00062
       7 <- 28         0.00160
       7 <- 35        -0.00043
       7 <- 45        -0.00044
       8 <- 10         0.00156
       8 <- 14         0.00499
       8 <- 17        -0.00630
       8 <- 23         0.00019
       8 <- 27        -0.00054
       8 <- 34         0.00310
       8 <- 36        -0.00150
       8 <- 41         0.00019
       8 <- 52         0.00013

 Excited State   3:      Singlet-B2     5.7419 eV  215.93 nm  f=0.0343  <S**2>=0.000
       3 -> 11        -0.00015
       3 -> 16         0.00046
       3 -> 19        -0.00030
       3 -> 22         0.00030
       3 -> 24        -0.00032
       3 -> 29        -0.00037
       3 -> 32         0.00012
       3 -> 37        -0.00021
       3 -> 40         0.00011
       3 -> 43        -0.00021
       3 -> 46         0.00014
       3 -> 50         0.00010
       3 -> 53        -0.00017
       4 ->  9         0.00171
       4 -> 12         0.00031
       4 -> 13         0.00122
       4 -> 15         0.00240
       4 -> 18        -0.00130
       4 -> 20        -0.00051
       4 -> 21         0.00120
       4 -> 25         0.00086
       4 -> 26         0.00055
       4 -> 30        -0.00218
       4 -> 31        -0.00049
       4 -> 38         0.00026
       4 -> 39        -0.00096
       4 -> 42         0.00031
       4 -> 47         0.00051
       5 -> 28        -0.00099
       5 -> 35        -0.00122
       5 -> 45        -0.00068
       6 -> 11        -0.00057
       6 -> 16         0.00367
       6 -> 19        -0.00174
       6 -> 24        -0.00191
       6 -> 29         0.00184
       6 -> 32         0.00040
       6 -> 37         0.00061
       6 -> 40         0.00043
       6 -> 43         0.00030
       6 -> 46        -0.00030
       6 -> 50        -0.00024
       6 -> 53         0.00014
       7 -> 11        -0.00207
       7 -> 16        -0.00428
       7 -> 19        -0.00120
       7 -> 22         0.00064
       7 -> 24         0.00315
       7 -> 29        -0.00101
       7 -> 32        -0.00046
       7 -> 37         0.00055
       7 -> 43         0.00016
       7 -> 46        -0.00056
       7 -> 50        -0.00030
       7 -> 53         0.00014
       8 ->  9        -0.00117
       8 -> 12         0.70570
       8 -> 13         0.03230
       8 -> 15         0.02704
       8 -> 18         0.00801
       8 -> 20         0.01579
       8 -> 21         0.00535
       8 -> 25        -0.00089
       8 -> 26         0.00179
       8 -> 30        -0.00260
       8 -> 31         0.00048
       8 -> 33        -0.00024
       8 -> 38        -0.00041
       8 -> 39         0.00142
       8 -> 42        -0.00086
       8 -> 47        -0.00042
       8 -> 49         0.00010
       8 -> 54        -0.00015
       3 <- 16         0.00044
       3 <- 22         0.00015
       3 <- 24        -0.00038
       3 <- 29        -0.00022
       3 <- 32         0.00013
       3 <- 37        -0.00022
       3 <- 43        -0.00019
       3 <- 46         0.00010
       3 <- 53        -0.00022
       4 <-  9        -0.00118
       4 <- 12        -0.00016
       4 <- 13         0.00126
       4 <- 15         0.00069
       4 <- 18         0.00061
       4 <- 20        -0.00043
       4 <- 21         0.00082
       4 <- 25         0.00097
       4 <- 26         0.00061
       4 <- 30        -0.00144
       4 <- 33        -0.00058
       4 <- 38         0.00018
       4 <- 39        -0.00072
       4 <- 42         0.00033
       4 <- 47         0.00048
       5 <- 28        -0.00060
       5 <- 35        -0.00105
       5 <- 45        -0.00061
       6 <- 11        -0.00045
       6 <- 16         0.00076
       6 <- 19         0.00032
       6 <- 22        -0.00058
       6 <- 24        -0.00158
       6 <- 29         0.00138
       6 <- 32         0.00058
       6 <- 37         0.00058
       6 <- 40         0.00037
       6 <- 43         0.00020
       6 <- 46        -0.00026
       6 <- 50        -0.00018
       7 <- 16        -0.00141
       7 <- 19        -0.00058
       7 <- 22         0.00043
       7 <- 24         0.00180
       7 <- 29        -0.00022
       7 <- 32        -0.00037
       7 <- 37         0.00019
       7 <- 46        -0.00050
       7 <- 50        -0.00038
       8 <-  9        -0.00510
       8 <- 12         0.00104
       8 <- 13         0.01114
       8 <- 15         0.00434
       8 <- 18        -0.00117
       8 <- 20        -0.00304
       8 <- 21         0.00331
       8 <- 25         0.00065
       8 <- 30        -0.00222
       8 <- 31         0.00044
       8 <- 33        -0.00011
       8 <- 38        -0.00024
       8 <- 39         0.00124
       8 <- 42        -0.00075
       8 <- 47        -0.00034

 Excited State   4:      Singlet-A1     5.9153 eV  209.60 nm  f=0.0079  <S**2>=0.000
       3 ->  9         0.00127
       3 -> 12        -0.00049
       3 -> 13         0.00021
       3 -> 15        -0.00072
       3 -> 18        -0.00151
       3 -> 20        -0.00012
       3 -> 21         0.00079
       3 -> 25        -0.00064
       3 -> 26        -0.00030
       3 -> 30         0.00070
       3 -> 31        -0.00076
       3 -> 33         0.00042
       3 -> 38         0.00036
       3 -> 39         0.00033
       3 -> 47        -0.00012
       3 -> 51         0.00019
       3 -> 54        -0.00012
       4 -> 11        -0.00611
       4 -> 16        -0.00629
       4 -> 19        -0.00465
       4 -> 22        -0.00241
       4 -> 24         0.00326
       4 -> 29         0.00021
       4 -> 37        -0.00102
       4 -> 40        -0.00012
       4 -> 43         0.00026
       4 -> 50         0.00019
       5 -> 10        -0.00343
       5 -> 14        -0.00352
       5 -> 17        -0.00278
       5 -> 23        -0.00344
       5 -> 27        -0.00090
       5 -> 34        -0.00088
       5 -> 36        -0.00059
       5 -> 41        -0.00011
       5 -> 48         0.00021
       6 ->  9         0.01147
       6 -> 12         0.00622
       6 -> 13        -0.00409
       6 -> 15        -0.00424
       6 -> 18        -0.00719
       6 -> 20         0.00462
       6 -> 21         0.00125
       6 -> 25        -0.00571
       6 -> 26         0.00088
       6 -> 30        -0.00035
       6 -> 31         0.00151
       6 -> 33         0.00198
       6 -> 38         0.00122
       6 -> 39        -0.00114
       6 -> 42         0.00014
       6 -> 44         0.00060
       6 -> 49         0.00044
       7 ->  9         0.00699
       7 -> 12        -0.01220
       7 -> 13         0.00128
       7 -> 15         0.00512
       7 -> 18        -0.00700
       7 -> 20        -0.00378
       7 -> 21        -0.00066
       7 -> 25         0.00180
       7 -> 26        -0.00296
       7 -> 30        -0.00064
       7 -> 31        -0.00181
       7 -> 33         0.00012
       7 -> 38        -0.00068
       7 -> 39         0.00056
       7 -> 42        -0.00013
       7 -> 44        -0.00035
       7 -> 51        -0.00016
       8 -> 11         0.70473
       8 -> 16         0.05265
       8 -> 19        -0.01931
       8 -> 22        -0.00062
       8 -> 24        -0.00677
       8 -> 29        -0.00387
       8 -> 32         0.00196
       8 -> 37        -0.00327
       8 -> 40        -0.00039
       8 -> 43         0.00184
       8 -> 46        -0.00091
       8 -> 50         0.00019
       3 <-  9         0.00070
       3 <- 12        -0.00024
       3 <- 13         0.00016
       3 <- 15        -0.00045
       3 <- 18        -0.00096
       3 <- 21         0.00052
       3 <- 25        -0.00050
       3 <- 26        -0.00024
       3 <- 30         0.00053
       3 <- 31        -0.00051
       3 <- 33         0.00036
       3 <- 38         0.00027
       3 <- 39         0.00027
       3 <- 47        -0.00015
       3 <- 51         0.00016
       3 <- 54        -0.00011
       4 <- 11        -0.00250
       4 <- 16        -0.00258
       4 <- 19        -0.00266
       4 <- 22        -0.00173
       4 <- 24         0.00178
       4 <- 32         0.00014
       4 <- 37        -0.00086
       4 <- 40        -0.00011
       4 <- 43         0.00024
       4 <- 50         0.00017
       5 <- 10        -0.00188
       5 <- 14        -0.00202
       5 <- 17        -0.00169
       5 <- 23        -0.00238
       5 <- 27        -0.00066
       5 <- 34        -0.00072
       5 <- 36        -0.00050
       5 <- 48         0.00019
       6 <-  9         0.00812
       6 <- 12         0.00315
       6 <- 13        -0.00322
       6 <- 15        -0.00344
       6 <- 18        -0.00389
       6 <- 20         0.00260
       6 <- 21         0.00166
       6 <- 25        -0.00382
       6 <- 26         0.00054
       6 <- 31         0.00111
       6 <- 33         0.00142
       6 <- 38         0.00122
       6 <- 39        -0.00089
       6 <- 42         0.00013
       6 <- 44         0.00059
       6 <- 49         0.00037
       7 <- 12        -0.00497
       7 <- 13         0.00170
       7 <- 15         0.00358
       7 <- 18        -0.00327
       7 <- 20        -0.00182
       7 <- 21        -0.00085
       7 <- 25         0.00125
       7 <- 26        -0.00193
       7 <- 30        -0.00068
       7 <- 31        -0.00139
       7 <- 38        -0.00063
       7 <- 39         0.00032
       7 <- 44        -0.00035
       7 <- 47         0.00011
       7 <- 51        -0.00015
       8 <- 11        -0.00985
       8 <- 16         0.00506
       8 <- 19        -0.01547
       8 <- 22        -0.00403
       8 <- 24        -0.00273
       8 <- 29        -0.00275
       8 <- 32         0.00177
       8 <- 37        -0.00259
       8 <- 40        -0.00013
       8 <- 43         0.00148
       8 <- 46        -0.00088
       8 <- 50         0.00019

 Excited State   5:      Singlet-A2     8.1597 eV  151.95 nm  f=0.0000  <S**2>=0.000
       3 -> 28         0.00261
       3 -> 35         0.00170
       3 -> 45         0.00057
       4 -> 10         0.00044
       4 -> 14        -0.00731
       4 -> 17         0.00161
       4 -> 23        -0.00340
       4 -> 27         0.00069
       4 -> 34         0.00097
       4 -> 36         0.00261
       4 -> 52         0.00034
       5 -> 16        -0.00051
       5 -> 19        -0.00048
       5 -> 22         0.00141
       5 -> 24         0.00069
       5 -> 37         0.00046
       5 -> 40        -0.00014
       5 -> 43         0.00062
       5 -> 46         0.00046
       5 -> 50        -0.00013
       5 -> 53         0.00014
       6 -> 28         0.00282
       6 -> 35        -0.00066
       6 -> 45         0.00014
       7 -> 28        -0.00138
       7 -> 35         0.00044
       7 -> 45         0.00053
       8 -> 10         0.02662
       8 -> 14         0.70368
       8 -> 17        -0.06081
       8 -> 23         0.02010
       8 -> 27        -0.00263
       8 -> 34        -0.00283
       8 -> 36         0.00284
       8 -> 41        -0.00010
       8 -> 52        -0.00041
       3 <- 28         0.00180
       3 <- 35         0.00139
       3 <- 45         0.00063
       4 <- 10         0.00033
       4 <- 14        -0.00072
       4 <- 17         0.00050
       4 <- 23        -0.00020
       4 <- 27         0.00026
       4 <- 34        -0.00064
       4 <- 36         0.00100
       4 <- 41         0.00029
       4 <- 52         0.00012
       5 <- 11         0.00036
       5 <- 16        -0.00021
       5 <- 19        -0.00054
       5 <- 22         0.00179
       5 <- 24         0.00158
       5 <- 29        -0.00042
       5 <- 32        -0.00058
       5 <- 37         0.00118
       5 <- 43         0.00073
       5 <- 46         0.00019
       5 <- 53         0.00030
       6 <- 28         0.00298
       6 <- 35        -0.00055
       7 <- 28        -0.00139
       7 <- 35         0.00010
       7 <- 45         0.00034
       8 <- 10         0.00530
       8 <- 14        -0.00328
       8 <- 17         0.00421
       8 <- 23        -0.00078
       8 <- 27         0.00048
       8 <- 34        -0.00310
       8 <- 36         0.00163
       8 <- 41        -0.00021
       8 <- 52        -0.00017

 Excited State   6:      Singlet-B2     8.9733 eV  138.17 nm  f=0.0924  <S**2>=0.000
       3 -> 11         0.00043
       3 -> 16        -0.00079
       3 -> 19         0.00093
       3 -> 22        -0.00048
       3 -> 24         0.00023

 The electronic state is 1-A1.
 Alpha  occ. eigenvalues --  -19.20241 -10.32989  -1.31363  -0.79824  -0.76795
 Alpha  occ. eigenvalues --   -0.58107  -0.54315  -0.20378
 Alpha virt. eigenvalues --    0.00743   0.02771   0.04430   0.04673   0.14371
 Alpha virt. eigenvalues --    0.14895   0.17809   0.18431   0.21708   0.23241
 Alpha virt. eigenvalues --    0.27203   0.36575   0.50706   0.57406   0.58543

 Mulliken charges:
               1
     1  C    0.303774
     2  H   -0.101685
     3  H   -0.101685
     4  O   -0.100404
 Sum of Mulliken charges =  -0.00000

 Dipole moment (field-independent basis, Debye):
    X=              0.0000    Y=              0.0000    Z=              1.1893  Tot=              1.1893
 Quadrupole moment (field-independent basis, Debye-Ang):
   XX=            -10.2044   YY=            -13.6980   ZZ=            -13.6471
   XY=             -0.0000   XZ=             -0.0000   YZ=              0.0000

 Normal termination of Gaussian 16 at Fri Sep 17 10:52:24 2021.
