 Gaussian 16, Revision A.03,
 Gaussian 16:  ES64L-G16RevA.03 25-Dec-2016

 --------------------------------------------------------------------
 #p B3LYP/6-311+G** #p TD=(singlets,nstates=30)IOp(6/8=3) IOp(9/40=4)
 --------------------------------------------------------------------

 -------------------------------
 Scan Step 218, Bond Length 1.59
 -------------------------------
 Symbolic Z-matrix:
 Charge =  0 Multiplicity = 1

                         Standard orientation:
 ---------------------------------------------------------------------
 Center     Atomic      Atomic             Coordinates (Angstroms)
 Number     Number       Type             X           Y           Z
 ---------------------------------------------------------------------
      1          6           0        0.000000    0.000000   -0.721081
      2          1           0        0.000000    0.937260   -1.312431
      3          1           0       -0.000000   -0.937260   -1.312431
      4          8           0        0.000000   -0.000000    0.868919
 ---------------------------------------------------------------------

 SCF Done:  E(RB3LYP) =  -114.431581043     A.U. after   10 cycles

 Excitation energies and oscillator strengths:

 Excited State   1:      Singlet-A2     2.0209 eV  613.50 nm  f=0.0000  <S**2>=0.000
       3 -> 27         0.00121
       3 -> 38         0.00090
       3 -> 46         0.00328
       4 -> 27         0.00072
       4 -> 38        -0.00014
       4 -> 46        -0.00130
       5 ->  9         0.00774
       5 -> 13         0.00090
       5 -> 18         0.00294
       5 -> 23         0.00161
       5 -> 28         0.00257
       5 -> 31        -0.00019
       5 -> 37         0.00142
       5 -> 44         0.00034
       5 -> 52         0.00035
       6 -> 27        -0.00062
       6 -> 38        -0.00078
       6 -> 46         0.00135
       7 -> 12        -0.00090
       7 -> 16         0.00471
       7 -> 19        -0.00401
       7 -> 22        -0.00076
       7 -> 25         0.00096
       7 -> 30        -0.00153
       7 -> 33         0.00037
       7 -> 49         0.00013
       7 -> 50         0.00016
       7 -> 53         0.00045
       8 ->  9         0.70846
       8 -> 13        -0.01359
       8 -> 18         0.02166
       8 -> 23        -0.00356
       8 -> 28         0.01104
       8 -> 31         0.00102
       8 -> 37         0.00063
       8 -> 48        -0.00031
       8 -> 52         0.00194
       3 <- 27         0.00056
       3 <- 38         0.00062
       3 <- 46         0.00333
       4 <- 27         0.00125
       4 <- 38         0.00023
       4 <- 46        -0.00105
       5 <-  9        -0.00026
       5 <- 13        -0.00053
       5 <- 18        -0.00069
       5 <- 23         0.00028
       5 <- 28        -0.00048
       5 <- 31         0.00036
       5 <- 37         0.00079
       5 <- 44         0.00011
       6 <- 38        -0.00063
       6 <- 46         0.00104
       7 <- 12         0.00060
       7 <- 16        -0.01001
       7 <- 19         0.00366
       7 <- 22         0.00694
       7 <- 25         0.00052
       7 <- 30         0.00524
       7 <- 33        -0.00053
       7 <- 36         0.00085
       7 <- 40         0.00050
       7 <- 42         0.00014
       7 <- 49        -0.00039
       7 <- 50         0.00010
       7 <- 53         0.00146
       8 <-  9        -0.05083
       8 <- 13         0.00051
       8 <- 18        -0.00655
       8 <- 23         0.00018
       8 <- 28        -0.00235
       8 <- 31        -0.00062
       8 <- 37        -0.00048
       8 <- 52         0.00051
 This state for optimization and/or second-order correction.
 Total Energy, E(TD-HF/TD-DFT) =  -114.357313035
 Copying the excited state density for this state as the 1-particle RhoCI density.

 Excited State   2:      Singlet-A1     5.1831 eV  239.21 nm  f=0.0782  <S**2>=0.000
       3 -> 10        -0.01485
       3 -> 11        -0.01457
       3 -> 14         0.01187
       3 -> 15         0.00746
       3 -> 17        -0.00354
       3 -> 20        -0.00385
       3 -> 21        -0.00132
       3 -> 24         0.00263
       3 -> 26         0.00415
       3 -> 29        -0.00111
       3 -> 32         0.00277
       3 -> 34         0.00261
       3 -> 35        -0.00093
       3 -> 39         0.00085
       3 -> 43         0.00044
       3 -> 47         0.00225
       3 -> 51         0.00100
       3 -> 54         0.00020
       4 -> 10        -0.01298
       4 -> 11         0.01210
       4 -> 14         0.00649
       4 -> 15        -0.00973
       4 -> 17         0.00315
       4 -> 20         0.00553
       4 -> 21         0.00041
       4 -> 24        -0.00518
       4 -> 26         0.00514
       4 -> 29         0.00111
       4 -> 32        -0.00132
       4 -> 34        -0.00183
       4 -> 35         0.00036
       4 -> 39        -0.00010
       4 -> 41         0.00013
       4 -> 43        -0.00043
       4 -> 45        -0.00076
       4 -> 47        -0.00129
       4 -> 51        -0.00031
       5 -> 12         0.01790
       5 -> 16         0.01188
       5 -> 19         0.00151
       5 -> 22         0.00729
       5 -> 25         0.00854
       5 -> 30        -0.00037
       5 -> 33        -0.00310
       5 -> 36         0.00273
       5 -> 40         0.00150
       5 -> 42         0.00063
       5 -> 49         0.00048
       5 -> 50        -0.00066
       5 -> 53        -0.00015
       6 -> 10         0.13021
       6 -> 11         0.11040
       6 -> 14        -0.09632
       6 -> 15        -0.07313
       6 -> 17        -0.02024
       6 -> 20        -0.01218
       6 -> 21         0.01447
       6 -> 24        -0.01463
       6 -> 26        -0.00714
       6 -> 29        -0.00820
       6 -> 32         0.00070
       6 -> 34         0.00150
       6 -> 35        -0.00083
       6 -> 39         0.00080
       6 -> 41        -0.00044
       6 -> 43         0.00080
       6 -> 45         0.00077
       6 -> 47         0.00131
       6 -> 51         0.00083
       6 -> 54        -0.00064
       7 ->  9         0.68445
       7 -> 13         0.00169
       7 -> 18        -0.01899
       7 -> 23         0.00039
       7 -> 28        -0.00162
       7 -> 31        -0.00297
       7 -> 37         0.00084
       7 -> 44        -0.00106
       7 -> 48         0.00043
       7 -> 52         0.00104
       8 -> 12        -0.00708
       8 -> 16         0.07273
       8 -> 19        -0.02458
       8 -> 22        -0.02774
       8 -> 25         0.00073
       8 -> 30        -0.01231
       8 -> 33         0.00241
       8 -> 36        -0.00293
       8 -> 40        -0.00140
       8 -> 42        -0.00035
       8 -> 49         0.00060
       8 -> 50         0.00024
       8 -> 53        -0.00073
       3 <- 10        -0.00984
       3 <- 11        -0.01015
       3 <- 14         0.00874
       3 <- 15         0.00501
       3 <- 17        -0.00181
       3 <- 20        -0.00274
       3 <- 21        -0.00159
       3 <- 24         0.00166
       3 <- 26         0.00250
       3 <- 29        -0.00066
       3 <- 32         0.00254
       3 <- 34         0.00169
       3 <- 35        -0.00080
       3 <- 39         0.00075
       3 <- 43         0.00052
       3 <- 45         0.00015
       3 <- 47         0.00236
       3 <- 51         0.00097
       3 <- 54         0.00030
       4 <- 10        -0.00641
       4 <- 11         0.00754
       4 <- 14         0.00326
       4 <- 15        -0.00576
       4 <- 17         0.00157
       4 <- 20         0.00454
       4 <- 21         0.00030
       4 <- 24        -0.00350
       4 <- 26         0.00403
       4 <- 29         0.00029
       4 <- 32        -0.00163
       4 <- 34        -0.00160
       4 <- 35         0.00059
       4 <- 39        -0.00016
       4 <- 43        -0.00042
       4 <- 45        -0.00089
       4 <- 47        -0.00089
       4 <- 51        -0.00015
       5 <- 12         0.00785
       5 <- 16         0.00597
       5 <- 19         0.00103
       5 <- 22         0.00446
       5 <- 25         0.00574
       5 <- 30        -0.00012
       5 <- 33        -0.00239
       5 <- 36         0.00222
       5 <- 40         0.00131
       5 <- 42         0.00052
       5 <- 49         0.00042
       5 <- 50        -0.00061
       5 <- 53        -0.00013
       6 <- 10         0.03784
       6 <- 11         0.03431
       6 <- 14        -0.03712
       6 <- 15        -0.03065
       6 <- 17        -0.00965
       6 <- 20        -0.00747
       6 <- 21         0.00830
       6 <- 24        -0.00882
       6 <- 26        -0.00419
       6 <- 29        -0.00558
       6 <- 32         0.00117
       6 <- 34         0.00184
       6 <- 35        -0.00093
       6 <- 39         0.00088
       6 <- 41        -0.00030
       6 <- 43         0.00068
       6 <- 45         0.00072
       6 <- 47         0.00084
       6 <- 51         0.00065
       6 <- 54        -0.00054
       7 <-  9        -0.12317
       7 <- 13         0.00774
       7 <- 18        -0.01397
       7 <- 23         0.00373
       7 <- 28        -0.00402
       7 <- 31        -0.00134
       7 <- 37         0.00028
       7 <- 44        -0.00062
       7 <- 48        -0.00015
       7 <- 52         0.00091
       8 <- 12        -0.00157
       8 <- 16         0.02494
       8 <- 19        -0.01028
       8 <- 22        -0.01480
       8 <- 25         0.00019
       8 <- 30        -0.00881
       8 <- 33         0.00179
       8 <- 36        -0.00223
       8 <- 40        -0.00113
       8 <- 42        -0.00028
       8 <- 49         0.00040
       8 <- 50         0.00020
       8 <- 53        -0.00066

 Excited State   3:      Singlet-B1     5.4822 eV  226.16 nm  f=0.0014  <S**2>=0.000
       3 ->  9        -0.02921
       3 -> 13         0.00181
       3 -> 18        -0.00477
       3 -> 23         0.00186
       3 -> 28        -0.00099
       3 -> 31        -0.00048
       3 -> 44         0.00025
       3 -> 48         0.00095
       3 -> 52         0.00097
       4 ->  9         0.01377
       4 -> 13        -0.00268
       4 -> 18         0.00029
       4 -> 23        -0.00243
       4 -> 28         0.00023
       4 -> 31        -0.00156
       4 -> 37        -0.00042
       4 -> 44         0.00013
       4 -> 48        -0.00113
       4 -> 52        -0.00061
       5 -> 27        -0.00018
       5 -> 38         0.00201
       5 -> 46         0.00098
       6 ->  9         0.70539
       6 -> 13        -0.02053
       6 -> 18         0.01704
       6 -> 23        -0.01104
       6 -> 28         0.00438
       6 -> 31         0.00334
       6 -> 37        -0.00221
       6 -> 44        -0.00290
       6 -> 48         0.00421
       6 -> 52         0.00148
       7 -> 10         0.03226
       7 -> 11         0.02439
       7 -> 14        -0.01640
       7 -> 15        -0.00738
       7 -> 17        -0.00925
       7 -> 20         0.00285
       7 -> 24        -0.00050
       7 -> 26        -0.00143
       7 -> 29        -0.00395
       7 -> 32        -0.00066
       7 -> 34         0.00066
       7 -> 35         0.00181
       7 -> 39         0.00013
       7 -> 41        -0.00060
       7 -> 43         0.00056
       7 -> 45        -0.00059
       7 -> 47         0.00429
       7 -> 51         0.00118
       7 -> 54         0.00043
       8 -> 27         0.00057
       8 -> 38         0.00012
       8 -> 46         0.00542
       3 <-  9        -0.00977
       3 <- 13        -0.00059
       3 <- 18        -0.00294
       3 <- 23        -0.00053
       3 <- 28        -0.00064
       3 <- 31        -0.00066
       3 <- 44        -0.00026
       3 <- 48         0.00113
       3 <- 52         0.00078
       4 <-  9         0.00673
       4 <- 13        -0.00024
       4 <- 18         0.00198
       4 <- 23        -0.00058
       4 <- 28         0.00168
       4 <- 31        -0.00106
       4 <- 37        -0.00021
       4 <- 44         0.00010
       4 <- 48        -0.00097
       4 <- 52        -0.00034
       5 <- 27        -0.00072
       5 <- 38         0.00163
       5 <- 46         0.00087
       6 <-  9        -0.02498
       6 <- 13         0.00171
       6 <- 18        -0.00323
       6 <- 23        -0.00028
       6 <- 28        -0.00333
       6 <- 31         0.00130
       6 <- 37        -0.00193
       6 <- 44        -0.00158
       6 <- 48         0.00377
       6 <- 52         0.00050
       7 <- 10        -0.01404
       7 <- 11        -0.01258
       7 <- 14         0.01426
       7 <- 15         0.01338
       7 <- 17         0.00137
       7 <- 20         0.00511
       7 <- 21        -0.00444
       7 <- 24         0.00453
       7 <- 26         0.00179
       7 <- 29         0.00105
       7 <- 32        -0.00023
       7 <- 34         0.00054
       7 <- 35         0.00275
       7 <- 39         0.00043
       7 <- 41        -0.00025
       7 <- 43         0.00043
       7 <- 45        -0.00070
       7 <- 47         0.00390
       7 <- 51         0.00103
       7 <- 54         0.00108
       8 <- 27         0.00102
       8 <- 38         0.00030
       8 <- 46         0.00503

 Excited State   4:      Singlet-B2     6.1766 eV  200.73 nm  f=0.0150  <S**2>=0.000
       3 -> 12        -0.00158
       3 -> 16         0.00191
       3 -> 19        -0.00443
       3 -> 22         0.00044
       3 -> 25         0.00031
       3 -> 30        -0.00332
       3 -> 33        -0.00030
       3 -> 36         0.00214
       3 -> 40         0.00174
       3 -> 42         0.00020
       3 -> 49        -0.00254
       3 -> 50         0.00022
       3 -> 53         0.00028
       4 -> 12         0.00044
       4 -> 16        -0.00278
       4 -> 22         0.00322
       4 -> 25        -0.00213
       4 -> 30         0.00144
       4 -> 33        -0.00048
       4 -> 36         0.00053
       4 -> 40        -0.00051
       4 -> 49         0.00039
       4 -> 50        -0.00011
       5 -> 10         0.00530
       5 -> 11         0.00589
       5 -> 14        -0.01311
       5 -> 15         0.00283
       5 -> 17         0.00087
       5 -> 20         0.00202
       5 -> 21         0.00639
       5 -> 24         0.00189
       5 -> 26        -0.00191
       5 -> 29        -0.00199
       5 -> 32        -0.00143
       5 -> 34        -0.00128
       5 -> 35        -0.00054
       5 -> 39        -0.00100
       5 -> 41         0.00077
       5 -> 45         0.00021
       5 -> 47        -0.00084
       5 -> 51         0.00050
       5 -> 54        -0.00024
       6 -> 12         0.00333
       6 -> 16        -0.00156
       6 -> 19         0.00285
       6 -> 25        -0.00080
       6 -> 30        -0.00056
       6 -> 33         0.00038
       6 -> 36        -0.00217
       6 -> 40        -0.00174
       6 -> 42        -0.00035
       6 -> 49         0.00157
       6 -> 53        -0.00034
       7 -> 27        -0.00065
       7 -> 38         0.00090
       7 -> 46         0.00360
       8 -> 10         0.62978
       8 -> 11         0.28874
       8 -> 14        -0.12327
       8 -> 15        -0.06807
       8 -> 17        -0.01245
       8 -> 20        -0.00222
       8 -> 21         0.00637
       8 -> 24        -0.00632
       8 -> 26        -0.00560
       8 -> 29        -0.00953
       8 -> 32        -0.00271
       8 -> 34        -0.00180
       8 -> 35        -0.00051
       8 -> 39        -0.00058
       8 -> 41         0.00031
       8 -> 43        -0.00049
       8 -> 45         0.00193
       8 -> 47        -0.00414
       8 -> 51         0.00217
       8 -> 54        -0.00153
       3 <- 12        -0.00056
       3 <- 16         0.00048
       3 <- 19        -0.00209
       3 <- 22         0.00088
       3 <- 25         0.00033
       3 <- 30        -0.00132
       3 <- 33        -0.00026
       3 <- 36         0.00167
       3 <- 40         0.00155
       3 <- 42         0.00018
       3 <- 49        -0.00262
       3 <- 50         0.00019
       3 <- 53         0.00082
       4 <- 12        -0.00025
       4 <- 16        -0.00239
       4 <- 19        -0.00029
       4 <- 22         0.00279
       4 <- 25        -0.00131
       4 <- 30         0.00124
       4 <- 33        -0.00055
       4 <- 36         0.00073
       4 <- 40        -0.00016
       4 <- 42         0.00013
       4 <- 49         0.00030
       5 <- 10         0.00057
       5 <- 11        -0.00159
       5 <- 14        -0.00205
       5 <- 15         0.00387
       5 <- 17         0.00023
       5 <- 20         0.00049
       5 <- 21         0.00211
       5 <- 24         0.00265
       5 <- 26        -0.00061
       5 <- 29        -0.00051
       5 <- 32         0.00013
       5 <- 34        -0.00034
       5 <- 39        -0.00033
       5 <- 41         0.00076
       5 <- 43         0.00012
       5 <- 45         0.00051
       5 <- 47        -0.00067
       5 <- 51         0.00027
       6 <- 16         0.00512
       6 <- 19        -0.00230
       6 <- 22        -0.00370
       6 <- 25        -0.00045
       6 <- 30        -0.00442
       6 <- 33         0.00064
       6 <- 36        -0.00217
       6 <- 40        -0.00173
       6 <- 42        -0.00041
       6 <- 49         0.00167
       6 <- 53        -0.00098
       7 <- 27        -0.00064
       7 <- 38         0.00070
       7 <- 46         0.00296
       8 <- 10        -0.01245
       8 <- 11        -0.01177
       8 <- 14         0.01145
       8 <- 15         0.00516
       8 <- 17         0.00029
       8 <- 20        -0.00230
       8 <- 21        -0.00235
       8 <- 24         0.00121
       8 <- 26         0.00202
       8 <- 29        -0.00085
       8 <- 32         0.00221
       8 <- 34         0.00141
       8 <- 35        -0.00015
       8 <- 39         0.00144
       8 <- 41         0.00058
       8 <- 43         0.00024
       8 <- 45         0.00248
       8 <- 47        -0.00301
       8 <- 51         0.00131
       8 <- 54        -0.00037

 Excited State   5:      Singlet-B2     7.0543 eV  175.76 nm  f=0.0022  <S**2>=0.000
       3 -> 12         0.00147
       3 -> 16         0.00149
       3 -> 19        -0.00085
       3 -> 22        -0.00037
       3 -> 25         0.00094
       3 -> 30        -0.00233
       3 -> 33         0.00011
       3 -> 36         0.00048
       3 -> 40         0.00045
       3 -> 49        -0.00069
       4 -> 12        -0.00129
       4 -> 16         0.00064
       4 -> 19         0.00095
       4 -> 22        -0.00091
       4 -> 25         0.00070
       4 -> 30         0.00123
       4 -> 33        -0.00015
       4 -> 36         0.00033
       4 -> 50        -0.00011
       5 -> 10         0.00736
       5 -> 11        -0.00315
       5 -> 14         0.00239
       5 -> 15         0.00549
       5 -> 17         0.00091
       5 -> 20         0.00173
       5 -> 24        -0.00038
       5 -> 26        -0.00034
       5 -> 29        -0.00044
       5 -> 32        -0.00150
       5 -> 34         0.00032
       5 -> 35        -0.00035
       5 -> 39        -0.00057
       5 -> 41        -0.00015
       5 -> 43        -0.00032
       5 -> 45         0.00031
       5 -> 47        -0.00037
       5 -> 51         0.00026
       6 -> 12        -0.00165
       6 -> 16        -0.00035
       6 -> 19         0.00035
       6 -> 22        -0.00095
       6 -> 25         0.00014
       6 -> 30        -0.00078
       6 -> 40        -0.00056
       6 -> 42        -0.00020
       6 -> 49         0.00121
       6 -> 50        -0.00011
       6 -> 53        -0.00010
       7 -> 27        -0.00061
       7 -> 38        -0.00023
       7 -> 46         0.00170
       8 -> 10        -0.29836
       8 -> 11         0.63980
       8 -> 14        -0.00651
       8 -> 15        -0.03542
       8 -> 17        -0.00537
       8 -> 20         0.01503
       8 -> 21         0.00387
       8 -> 24        -0.00343
       8 -> 26         0.00155
       8 -> 29        -0.00283
       8 -> 32        -0.00053
       8 -> 34        -0.00077
       8 -> 35        -0.00065
       8 -> 39         0.00012

 The electronic state is 1-A1.
 Alpha  occ. eigenvalues --  -19.17168 -10.32547  -0.93135  -0.69544  -0.48842
 Alpha  occ. eigenvalues --   -0.41723  -0.33221  -0.28974
 Alpha virt. eigenvalues --   -0.14354  -0.01160   0.01358   0.04093   0.06130
 Alpha virt. eigenvalues --    0.09189   0.13166   0.14528   0.18940   0.21425
 Alpha virt. eigenvalues --    0.23960   0.30148   0.39182   0.41239   0.50947

 Mulliken charges:
               1
     1  C   -0.058925
     2  H    0.178075
     3  H    0.178075
     4  O   -0.297224
 Sum of Mulliken charges =   0.00000

 Dipole moment (field-independent basis, Debye):
    X=             -0.0000    Y=             -0.0000    Z=             -3.7322  Tot=              3.7322
 Quadrupole moment (field-independent basis, Debye-Ang):
   XX=            -12.7129   YY=            -11.8804   ZZ=            -11.3430
   XY=              0.0000   XZ=              0.0000   YZ=              0.0000

 Normal termination of Gaussian 16 at Fri Sep 17 10:53:00 2021.
