 Gaussian 16, Revision A.03,
 Gaussian 16:  ES64L-G16RevA.03 25-Dec-2016

 --------------------------------------------------------------------
 #p B3LYP/6-311+G** #p TD=(singlets,nstates=30)IOp(6/8=3) IOp(9/40=4)
 --------------------------------------------------------------------

 --------------------------------
 Scan Step 149, Bond Length 1.245
 --------------------------------
 Symbolic Z-matrix:
 Charge =  0 Multiplicity = 1

                         Standard orientation:
 ---------------------------------------------------------------------
 Center     Atomic      Atomic             Coordinates (Angstroms)
 Number     Number       Type             X           Y           Z
 ---------------------------------------------------------------------
      1          6           0        0.000000    0.000000   -0.548581
      2          1           0        0.000000    0.937260   -1.139931
      3          1           0       -0.000000   -0.937260   -1.139931
      4          8           0        0.000000   -0.000000    0.696419
 ---------------------------------------------------------------------

 SCF Done:  E(RB3LYP) =  -114.539043766     A.U. after    9 cycles

 Excitation energies and oscillator strengths:

 Excited State   1:      Singlet-A2     3.7097 eV  334.22 nm  f=0.0000  <S**2>=0.000
       3 -> 27         0.00235
       3 -> 38         0.00198
       3 -> 45         0.00259
       4 -> 27         0.00177
       4 -> 38        -0.00051
       4 -> 45        -0.00134
       5 ->  9         0.02041
       5 -> 13        -0.00249
       5 -> 17         0.00544
       5 -> 23         0.00012
       5 -> 29         0.00437
       5 -> 31        -0.00202
       5 -> 37         0.00324
       5 -> 44         0.00060
       5 -> 47         0.00014
       5 -> 52         0.00074
       6 -> 27        -0.00020
       6 -> 38        -0.00086
       6 -> 45         0.00177
       7 -> 12        -0.00062
       7 -> 15         0.00303
       7 -> 18        -0.00291
       7 -> 22         0.00055
       7 -> 25         0.00142
       7 -> 30        -0.00096
       7 -> 33         0.00044
       7 -> 35        -0.00023
       7 -> 40         0.00021
       7 -> 42        -0.00011
       7 -> 49         0.00030
       7 -> 50         0.00033
       7 -> 53         0.00047
       8 ->  9         0.70577
       8 -> 13        -0.03887
       8 -> 17         0.02286
       8 -> 23        -0.00974
       8 -> 29         0.00945
       8 -> 31        -0.00225
       8 -> 44        -0.00010
       8 -> 47        -0.00026
       8 -> 52         0.00173
       3 <- 27         0.00150
       3 <- 38         0.00163
       3 <- 45         0.00268
       4 <- 27         0.00257
       4 <- 45        -0.00113
       5 <-  9        -0.00047
       5 <- 13        -0.00081
       5 <- 17        -0.00100
       5 <- 23         0.00053
       5 <- 29        -0.00069
       5 <- 31         0.00084
       5 <- 37         0.00157
       5 <- 44         0.00024
       5 <- 47         0.00015
       5 <- 52         0.00020
       6 <- 27         0.00038
       6 <- 38        -0.00076
       6 <- 45         0.00139
       7 <- 12        -0.00072
       7 <- 15        -0.00754
       7 <- 18         0.00056
       7 <- 22         0.00739
       7 <- 30         0.00362
       7 <- 33        -0.00128
       7 <- 35        -0.00231
       7 <- 40         0.00095
       7 <- 50         0.00022
       7 <- 53         0.00131
       8 <-  9        -0.02587
       8 <- 13         0.00275
       8 <- 17        -0.00450
       8 <- 23         0.00079
       8 <- 29        -0.00108
       8 <- 31        -0.00075
       8 <- 37        -0.00134
       8 <- 52         0.00049
 This state for optimization and/or second-order correction.
 Total Energy, E(TD-HF/TD-DFT) =  -114.402715952
 Copying the excited state density for this state as the 1-particle RhoCI density.

 Excited State   2:      Singlet-B2     6.9022 eV  179.63 nm  f=0.0255  <S**2>=0.000
       3 -> 12         0.00156
       3 -> 15         0.00070
       3 -> 18         0.00121
       3 -> 22        -0.00032
       3 -> 25         0.00126
       3 -> 33         0.00022
       3 -> 35         0.00044
       3 -> 40        -0.00013
       4 -> 12        -0.00293
       4 -> 15         0.00191
       4 -> 18         0.00199
       4 -> 22        -0.00329
       4 -> 25         0.00326
       4 -> 30         0.00032
       4 -> 33        -0.00044
       4 -> 35        -0.00055
       4 -> 40         0.00045
       4 -> 42        -0.00012
       5 -> 10        -0.00734
       5 -> 11        -0.00815
       5 -> 14         0.00701
       5 -> 16        -0.00076
       5 -> 19        -0.00067
       5 -> 20         0.00262
       5 -> 21         0.00586
       5 -> 24         0.00025
       5 -> 26         0.00235
       5 -> 28         0.00110
       5 -> 32        -0.00098
       5 -> 34        -0.00100
       5 -> 36        -0.00018
       5 -> 39        -0.00028
       5 -> 41        -0.00040
       5 -> 43        -0.00052
       5 -> 46        -0.00029
       5 -> 54         0.00012
       6 -> 12        -0.00025
       6 -> 15         0.00150
       6 -> 18         0.00178
       6 -> 22        -0.00244
       6 -> 25         0.00110
       6 -> 30        -0.00053
       6 -> 33        -0.00024
       6 -> 35        -0.00044
       6 -> 42        -0.00018
       6 -> 49         0.00047
       6 -> 50        -0.00028
       7 -> 27         0.00013
       7 -> 38        -0.00060
       7 -> 45         0.00035
       8 -> 10         0.70276
       8 -> 11        -0.07296
       8 -> 14         0.01592
       8 -> 16        -0.00543
       8 -> 19         0.00799
       8 -> 20         0.01602
       8 -> 21        -0.00273
       8 -> 26         0.00263
       8 -> 28         0.00084
       8 -> 32         0.00100
       8 -> 34         0.00104
       8 -> 36         0.00036
       8 -> 39         0.00035
       8 -> 41        -0.00020
       8 -> 43         0.00060
       8 -> 46        -0.00054
       8 -> 48         0.00015
       8 -> 54         0.00020
       3 <- 12         0.00036
       3 <- 15         0.00053
       3 <- 18         0.00046
       3 <- 22        -0.00048
       3 <- 25         0.00072
       3 <- 30        -0.00011
       3 <- 33         0.00018
       3 <- 35         0.00040
       3 <- 40        -0.00015
       3 <- 49         0.00011
       4 <- 12         0.00076
       4 <- 15         0.00194
       4 <- 18         0.00191
       4 <- 22        -0.00204
       4 <- 25         0.00223
       4 <- 30         0.00024
       4 <- 33        -0.00024
       4 <- 35        -0.00029
       4 <- 40         0.00013
       4 <- 42        -0.00023
       4 <- 50        -0.00013
       5 <- 10         0.00234
       5 <- 11        -0.00025
       5 <- 14         0.00477
       5 <- 16        -0.00066
       5 <- 19        -0.00012
       5 <- 20         0.00084
       5 <- 21         0.00197
       5 <- 24         0.00199
       5 <- 26         0.00150
       5 <- 28         0.00014
       5 <- 32        -0.00070
       5 <- 34        -0.00094
       5 <- 36        -0.00026
       5 <- 39        -0.00015
       5 <- 41        -0.00022
       5 <- 43        -0.00040
       5 <- 46        -0.00026
       6 <- 15        -0.00014
       6 <- 18         0.00109
       6 <- 22        -0.00063
       6 <- 25         0.00037
       6 <- 30         0.00031
       6 <- 33        -0.00030
       6 <- 35        -0.00052
       6 <- 42        -0.00017
       6 <- 49         0.00039
       6 <- 50        -0.00029
       6 <- 53         0.00015
       7 <- 27         0.00013
       7 <- 38        -0.00045
       7 <- 45         0.00032
       8 <- 10        -0.00162
       8 <- 11        -0.00052
       8 <- 14        -0.00498
       8 <- 16        -0.00047
       8 <- 20        -0.00064
       8 <- 21        -0.00170
       8 <- 24        -0.00211
       8 <- 26        -0.00077
       8 <- 28        -0.00051
       8 <- 32         0.00104
       8 <- 34         0.00014
       8 <- 36         0.00033
       8 <- 39         0.00026
       8 <- 43         0.00040
       8 <- 46        -0.00033

 Excited State   3:      Singlet-B2     7.6725 eV  161.60 nm  f=0.0267  <S**2>=0.000
       3 -> 12        -0.00033
       3 -> 15        -0.00089
       3 -> 18         0.00097
       3 -> 22         0.00046
       3 -> 30         0.00231
       3 -> 33         0.00014
       3 -> 35         0.00054
       3 -> 40        -0.00048
       3 -> 49         0.00053
       3 -> 50        -0.00020
       4 -> 12         0.00260
       4 -> 15         0.00024
       4 -> 18         0.00212
       4 -> 22        -0.00149
       4 -> 25         0.00290
       4 -> 30        -0.00132
       4 -> 33         0.00049
       4 -> 35         0.00056
       4 -> 42        -0.00011
       4 -> 49         0.00024
       5 -> 10        -0.00647
       5 -> 11        -0.00019
       5 -> 14         0.00927
       5 -> 16        -0.00703
       5 -> 19        -0.00144
       5 -> 20        -0.00476
       5 -> 21         0.00198
       5 -> 24         0.00094
       5 -> 26         0.00133
       5 -> 28         0.00159
       5 -> 32        -0.00018
       5 -> 34        -0.00097
       5 -> 36        -0.00032
       5 -> 39         0.00043
       5 -> 41        -0.00070
       5 -> 43         0.00017
       5 -> 46         0.00090
       5 -> 51        -0.00042
       6 -> 12        -0.00296
       6 -> 15        -0.00161
       6 -> 18        -0.00080
       6 -> 22         0.00119
       6 -> 25         0.00016
       6 -> 30         0.00109
       6 -> 33        -0.00055
       6 -> 35        -0.00149
       6 -> 40         0.00108
       6 -> 49        -0.00121
       6 -> 50         0.00036
       6 -> 53         0.00011
       7 -> 27         0.00011
       7 -> 38        -0.00087
       7 -> 45        -0.00189
       8 -> 10         0.07325
       8 -> 11         0.70233
       8 -> 14        -0.00383
       8 -> 16         0.00954
       8 -> 19        -0.03248
       8 -> 20         0.00318
       8 -> 21        -0.00294
       8 -> 26        -0.00098
       8 -> 28         0.00164
       8 -> 32         0.00015
       8 -> 34        -0.00020
       8 -> 36        -0.00016
       8 -> 39        -0.00024
       8 -> 41        -0.00116
       8 -> 43         0.00035
       8 -> 46         0.00215
       8 -> 48        -0.00013
       8 -> 51        -0.00102
       3 <- 12         0.00034
       3 <- 15        -0.00028
       3 <- 18         0.00096
       3 <- 25         0.00026
       3 <- 30         0.00127
       3 <- 33         0.00025
       3 <- 35         0.00058
       3 <- 40        -0.00044
       3 <- 49         0.00047
       3 <- 50        -0.00013
       3 <- 53        -0.00030
       4 <- 12         0.00032
       4 <- 15         0.00081
       4 <- 18         0.00049
       4 <- 22        -0.00115
       4 <- 25         0.00122
       4 <- 30        -0.00067
       4 <- 33         0.00046
       4 <- 35         0.00025
       4 <- 42        -0.00012
       4 <- 49         0.00018
       5 <- 10         0.00123
       5 <- 11        -0.00128
       5 <- 14         0.00268
       5 <- 16        -0.00043
       5 <- 19         0.00128
       5 <- 20        -0.00046
       5 <- 21         0.00077
       5 <- 24         0.00139
       5 <- 28         0.00068
       5 <- 32        -0.00097
       5 <- 36         0.00014
       5 <- 39         0.00011
       5 <- 41        -0.00074
       5 <- 46         0.00085
       5 <- 48        -0.00013
       5 <- 51        -0.00030
       6 <- 12        -0.00029
       6 <- 15        -0.00089
       6 <- 18         0.00024
       6 <- 22         0.00081
       6 <- 25        -0.00013
       6 <- 30         0.00095
       6 <- 33        -0.00044
       6 <- 35        -0.00126
       6 <- 40         0.00084
       6 <- 49        -0.00099
       6 <- 50         0.00028
       7 <- 27         0.00029
       7 <- 38        -0.00069
       7 <- 45        -0.00158
       8 <- 10        -0.00074
       8 <- 11        -0.00136
       8 <- 14        -0.00363
       8 <- 16         0.00043
       8 <- 19         0.00481
       8 <- 20        -0.00047
       8 <- 21        -0.00199
       8 <- 24         0.00042
       8 <- 26        -0.00166
       8 <- 28         0.00048
       8 <- 32        -0.00120
       8 <- 34         0.00150
       8 <- 39        -0.00064
       8 <- 41        -0.00105
       8 <- 43         0.00018
       8 <- 46         0.00172
       8 <- 48        -0.00029
       8 <- 51        -0.00068

 Excited State   4:      Singlet-A1     7.9006 eV  156.93 nm  f=0.0440  <S**2>=0.000
       3 -> 10         0.00209
       3 -> 11        -0.00056
       3 -> 14         0.00114
       3 -> 19        -0.00124
       3 -> 20         0.00214
       3 -> 21         0.00099
       3 -> 24        -0.00077
       3 -> 26         0.00127
       3 -> 28         0.00086
       3 -> 32         0.00012
       3 -> 34        -0.00077
       3 -> 36        -0.00016
       3 -> 41        -0.00020
       3 -> 46         0.00018
       3 -> 48        -0.00031
       3 -> 51        -0.00016
       3 -> 54        -0.00018
       4 -> 10         0.00477
       4 -> 11         0.00474
       4 -> 14         0.00456
       4 -> 16         0.00059
       4 -> 19         0.00021
       4 -> 20         0.00330
       4 -> 21        -0.00020
       4 -> 24         0.00693
       4 -> 26         0.00206
       4 -> 28        -0.00032
       4 -> 32        -0.00063
       4 -> 34         0.00016
       4 -> 43         0.00016
       4 -> 46        -0.00020
       4 -> 51        -0.00014
       5 -> 12         0.00569
       5 -> 15         0.00307
       5 -> 18         0.00952
       5 -> 22        -0.00254
       5 -> 25         0.00543
       5 -> 30        -0.00029
       5 -> 33        -0.00019
       5 -> 35        -0.00074
       5 -> 50         0.00018
       5 -> 53        -0.00012
       6 -> 10         0.01114
       6 -> 11        -0.00234
       6 -> 14         0.00417
       6 -> 19         0.00185
       6 -> 20         0.00270
       6 -> 21        -0.00067
       6 -> 24         0.00435
       6 -> 26        -0.00033
       6 -> 28        -0.00216
       6 -> 32        -0.00030
       6 -> 39         0.00018
       6 -> 43         0.00015
       6 -> 48         0.00069
       6 -> 51         0.00019
       6 -> 54        -0.00011
       7 ->  9         0.02747
       7 -> 13         0.01175
       7 -> 17         0.00116
       7 -> 23         0.00517
       7 -> 29        -0.00079
       7 -> 31        -0.00096
       7 -> 37         0.00058
       7 -> 44         0.00062
       7 -> 47        -0.00032
       7 -> 52        -0.00010
       8 -> 12         0.70555
       8 -> 15        -0.00124
       8 -> 18         0.02977
       8 -> 22         0.00304
       8 -> 25         0.00448
       8 -> 30        -0.00055
       8 -> 33         0.00166
       8 -> 35         0.00198
       8 -> 40         0.00043
       8 -> 42         0.00012
       8 -> 49        -0.00047
       8 -> 50         0.00025
       8 -> 53        -0.00025
       3 <- 10         0.00065
       3 <- 11         0.00026
       3 <- 14         0.00060
       3 <- 16         0.00014
       3 <- 19        -0.00081
       3 <- 20         0.00095
       3 <- 21         0.00067
       3 <- 24        -0.00019
       3 <- 26         0.00086
       3 <- 28         0.00057
       3 <- 32         0.00024
       3 <- 34        -0.00053
       3 <- 36        -0.00011
       3 <- 41        -0.00012
       3 <- 46         0.00026
       3 <- 48        -0.00024
       3 <- 51        -0.00014
       3 <- 54        -0.00016
       4 <- 10         0.00401
       4 <- 11         0.00096
       4 <- 14         0.00336
       4 <- 20         0.00191
       4 <- 21        -0.00028
       4 <- 24         0.00374
       4 <- 26         0.00126
       4 <- 32        -0.00081
       4 <- 34        -0.00025
       4 <- 39        -0.00010
       4 <- 41        -0.00011
       4 <- 43         0.00012
       4 <- 46        -0.00015
       4 <- 51        -0.00012
       5 <- 12         0.00270
       5 <- 15         0.00287
       5 <- 18         0.00337
       5 <- 22        -0.00096
       5 <- 25         0.00295
       5 <- 30        -0.00017
       5 <- 33        -0.00035
       5 <- 35        -0.00067
       5 <- 50         0.00010
       5 <- 53        -0.00011
       6 <- 10         0.00265
       6 <- 14         0.00158
       6 <- 19         0.00044
       6 <- 20         0.00122
       6 <- 21        -0.00052
       6 <- 24         0.00210
       6 <- 28        -0.00141
       6 <- 32        -0.00036
       6 <- 34        -0.00015
       6 <- 41         0.00010
       6 <- 46        -0.00016
       6 <- 48         0.00057
       6 <- 51         0.00022
       6 <- 54        -0.00010
       7 <-  9        -0.00123
       7 <- 13         0.00243
       7 <- 23         0.00259
       7 <- 29        -0.00063
       7 <- 31        -0.00064
       7 <- 37         0.00045
       7 <- 44         0.00052
       7 <- 47        -0.00028
       8 <- 12        -0.00052
       8 <- 15        -0.00433
       8 <- 18        -0.00164
       8 <- 22         0.00035
       8 <- 25        -0.00141
       8 <- 30        -0.00101
       8 <- 33         0.00064
       8 <- 35         0.00076
       8 <- 40         0.00048
       8 <- 42         0.00013
       8 <- 49        -0.00046
       8 <- 50         0.00016
       8 <- 53        -0.00025

 Excited State   5:      Singlet-A2     8.4152 eV  147.33 nm  f=0.0000  <S**2>=0.000
       3 -> 27        -0.00040
       3 -> 38        -0.00035
       3 -> 45        -0.00017
       4 -> 27         0.00017
       4 -> 38         0.00045
       5 ->  9        -0.00281
       5 -> 13        -0.00555
       5 -> 17         0.00665
       5 -> 23        -0.00220
       5 -> 29        -0.00022
       5 -> 31         0.00129
       5 -> 37        -0.00087
       5 -> 44        -0.00018
       6 -> 27         0.00023
       6 -> 38         0.00030
       6 -> 45        -0.00017
       7 -> 15        -0.00192
       7 -> 18         0.00203
       7 -> 22        -0.00073
       7 -> 35         0.00012
       8 ->  9         0.03836
       8 -> 13         0.70547
       8 -> 17         0.02203
       8 -> 23         0.01600
       8 -> 29         0.00022
       8 -> 31         0.00172
       8 -> 37        -0.00039
       8 -> 47         0.00017
       3 <- 27        -0.00010
       3 <- 38        -0.00021
       3 <- 45        -0.00024
       5 <-  9        -0.00039
       5 <- 13        -0.00032
       5 <- 17         0.00047
       5 <- 37        -0.00018
       6 <- 38         0.00018
       7 <- 12        -0.00054
       7 <- 15        -0.00107
       7 <- 18         0.00078
       7 <- 22        -0.00085
       7 <- 25        -0.00043
       7 <- 30         0.00023
       7 <- 33         0.00034
       7 <- 35         0.00054
       7 <- 40        -0.00034
       8 <-  9         0.00131
       8 <- 13         0.00120
       8 <- 17         0.00024
       8 <- 23        -0.00012
       8 <- 37         0.00011

 Excited State   6:      Singlet-B1     8.6104 eV  143.99 nm  f=0.0011  <S**2>=0.000
       3 ->  9        -0.03321
       3 -> 13         0.00541
       3 -> 17        -0.00717
       3 -> 23         0.00422
       3 -> 29        -0.00272
       3 -> 31        -0.00015
       3 -> 44         0.00068
       3 -> 52         0.00113
       4 ->  9         0.01695
       4 -> 13        -0.00278
       4 -> 17         0.00103
       4 -> 23        -0.00248
       4 -> 31        -0.00261
       4 -> 37        -0.00037
       4 -> 47        -0.00164
       4 -> 52        -0.00099
       5 -> 27        -0.00182
       5 -> 38         0.00217
       5 -> 45         0.00308
       6 ->  9         0.70480
       6 -> 13        -0.03729
       6 -> 17         0.02343
       6 -> 23        -0.01249
       6 -> 29         0.00837
       6 -> 31         0.00350

 The electronic state is 1-A1.
 Alpha  occ. eigenvalues --  -19.15383 -10.28577  -1.05429  -0.65198  -0.50124
 Alpha  occ. eigenvalues --   -0.45921  -0.40120  -0.28452
 Alpha virt. eigenvalues --   -0.07548   0.00649   0.03817   0.04237   0.06392
 Alpha virt. eigenvalues --    0.12726   0.17351   0.18668   0.21944   0.23347
 Alpha virt. eigenvalues --    0.26356   0.31924   0.44415   0.45746   0.50921

 Mulliken charges:
               1
     1  C    0.008639
     2  H    0.122458
     3  H    0.122458
     4  O   -0.253554
 Sum of Mulliken charges =  -0.00000

 Dipole moment (field-independent basis, Debye):
    X=             -0.0000    Y=             -0.0000    Z=             -2.6723  Tot=              2.6723
 Quadrupole moment (field-independent basis, Debye-Ang):
   XX=            -11.8774   YY=            -11.7315   ZZ=            -12.3265
   XY=              0.0000   XZ=              0.0000   YZ=              0.0000

 Normal termination of Gaussian 16 at Fri Sep 17 10:52:45 2021.
