 Gaussian 16, Revision C.01,
 Gaussian 16:  ES64L-G16RevC.01  3-Jul-2019

 ----------------------------------------
 #P wB97XD/6-311+G* NoSymm #P Field=X+272
 ----------------------------------------

 -------
 TitleMe
 -------
 Symbolic Z-matrix:
 Charge =  1 Multiplicity = 1

                          Input orientation:
 ---------------------------------------------------------------------
 Center     Atomic      Atomic             Coordinates (Angstroms)
 Number     Number       Type             X           Y           Z
 ---------------------------------------------------------------------
      1          6           0        0.029500    1.339700    0.068200
      2          6           0        1.434800    1.286700    0.006400
      3          6           0        2.111800    0.051100   -0.005400
      4          6           0        1.445100   -1.137200    0.031200
      5          6           0       -0.687900    0.168200    0.110000
      6          1           0       -0.471300    2.298400    0.078100
      7          1           0        2.027300    2.196500   -0.032200
      8          1           0        1.989700   -2.076400    0.023200
      9          1           0       -1.771600    0.180400    0.158200
     10          7           0        3.586400    0.051000   -0.067500
     11          8           0        4.147100   -1.059700   -0.088100
     12          8           0        4.145000    1.163900   -0.090100
     13          6           0       -0.023600   -1.145800    0.083500
     14          1           0       -0.436700   -1.872500    0.788900
     15         35           0       -0.535900   -1.869700   -1.740800
 ---------------------------------------------------------------------

 SCF Done:  E(RwB97XD) =  -3010.58874889     A.U. after   24 cycles

 Alpha  occ. eigenvalues -- -483.33615 -62.88585 -56.68315 -56.67703 -56.67682
 Alpha  occ. eigenvalues --  -19.59520 -19.59424 -14.98531 -10.63917 -10.62766
 Alpha  occ. eigenvalues --  -10.61838 -10.60791 -10.59763 -10.55923  -9.04349
 Alpha  occ. eigenvalues --   -6.87121  -6.85123  -6.85052  -2.97001  -2.96487
 Alpha  occ. eigenvalues --   -2.96430  -2.94833  -2.94832  -1.63220  -1.46343
 Alpha  occ. eigenvalues --   -1.27874  -1.19649  -1.15818  -1.09239  -1.06854
 Alpha  occ. eigenvalues --   -0.99525  -0.97855  -0.94422  -0.92974  -0.91608
 Alpha  occ. eigenvalues --   -0.86718  -0.83843  -0.81604  -0.80090  -0.76365
 Alpha  occ. eigenvalues --   -0.72611  -0.71446  -0.70970  -0.70227  -0.69616
 Alpha  occ. eigenvalues --   -0.67827  -0.63563  -0.57882  -0.57474
 Alpha virt. eigenvalues --   -0.33268  -0.32747  -0.21102  -0.19952  -0.17550
 Alpha virt. eigenvalues --   -0.16927  -0.15164  -0.13911  -0.12767  -0.11118
 Alpha virt. eigenvalues --   -0.08764  -0.08310  -0.07020  -0.06626  -0.06056

 Mulliken charges:
               1
     1  C   -0.633800
     2  C    0.583786
     3  C   -0.745109
     4  C    0.106197
     5  C    0.104526
     6  H    0.390155
     7  H    0.316150
     8  H    0.335887
     9  H    0.462094
    10  N   -0.112040
    11  O   -0.092441
    12  O   -0.095280
    13  C   -0.410127
    14  H    0.450120
    15  Br   0.339880
 Sum of Mulliken charges =   1.00000

 Dipole moment (field-independent basis, Debye):
    X=             -9.3506    Y=             -1.6060    Z=             -0.7518  Tot=              9.5173
 Quadrupole moment (field-independent basis, Debye-Ang):
   XX=            -92.7420   YY=            -51.1519   ZZ=            -60.6570
   XY=              2.5017   XZ=              3.2979   YZ=              3.6981

 Normal termination of Gaussian 16 at Wed May  1 14:52:18 2024.
