 Gaussian 16, Revision C.01,
 Gaussian 16:  ES64L-G16RevC.01  3-Jul-2019

 ----------------------------------------
 #P wB97XD/6-311+G* NoSymm #P Field=X+175
 ----------------------------------------

 -------
 TitleMe
 -------
 Symbolic Z-matrix:
 Charge =  1 Multiplicity = 1

                          Input orientation:
 ---------------------------------------------------------------------
 Center     Atomic      Atomic             Coordinates (Angstroms)
 Number     Number       Type             X           Y           Z
 ---------------------------------------------------------------------
      1          6           0        0.029500    1.339700    0.068200
      2          6           0        1.434800    1.286700    0.006400
      3          6           0        2.111800    0.051100   -0.005400
      4          6           0        1.445100   -1.137200    0.031200
      5          6           0       -0.687900    0.168200    0.110000
      6          1           0       -0.471300    2.298400    0.078100
      7          1           0        2.027300    2.196500   -0.032200
      8          1           0        1.989700   -2.076400    0.023200
      9          1           0       -1.771600    0.180400    0.158200
     10          7           0        3.586400    0.051000   -0.067500
     11          8           0        4.147100   -1.059700   -0.088100
     12          8           0        4.145000    1.163900   -0.090100
     13          6           0       -0.023600   -1.145800    0.083500
     14          1           0       -0.436700   -1.872500    0.788900
     15         35           0       -0.535900   -1.869700   -1.740800
 ---------------------------------------------------------------------

 SCF Done:  E(RwB97XD) =  -3010.55923175     A.U. after   19 cycles

 Alpha  occ. eigenvalues -- -483.32480 -62.87474 -56.67191 -56.66590 -56.66580
 Alpha  occ. eigenvalues --  -19.54670 -19.54585 -14.93888 -10.61352 -10.60488
 Alpha  occ. eigenvalues --  -10.60198 -10.59681 -10.58483 -10.54611  -9.03257
 Alpha  occ. eigenvalues --   -6.85998  -6.84034  -6.83998  -2.95887  -2.95372
 Alpha  occ. eigenvalues --   -2.95342  -2.93771  -2.93771  -1.58388  -1.41463
 Alpha  occ. eigenvalues --   -1.25671  -1.17385  -1.14196  -1.06760  -1.05195
 Alpha  occ. eigenvalues --   -0.97882  -0.94593  -0.91361  -0.88269  -0.86741
 Alpha  occ. eigenvalues --   -0.84836  -0.81862  -0.80290  -0.78350  -0.74696
 Alpha  occ. eigenvalues --   -0.71169  -0.69759  -0.66353  -0.65843  -0.65658
 Alpha  occ. eigenvalues --   -0.64669  -0.62100  -0.57134  -0.56528
 Alpha virt. eigenvalues --   -0.31707  -0.28444  -0.17993  -0.16333  -0.14239
 Alpha virt. eigenvalues --   -0.11259  -0.10482  -0.09097  -0.08765  -0.06543
 Alpha virt. eigenvalues --   -0.05408  -0.04931  -0.04231  -0.03084  -0.02678

 Mulliken charges:
               1
     1  C   -0.617606
     2  C    0.568191
     3  C   -0.749044
     4  C    0.184533
     5  C    0.065135
     6  H    0.370168
     7  H    0.334053
     8  H    0.348555
     9  H    0.424773
    10  N   -0.104272
    11  O   -0.047568
    12  O   -0.050684
    13  C   -0.435329
    14  H    0.433250
    15  Br   0.275844
 Sum of Mulliken charges =   1.00000

 Dipole moment (field-independent basis, Debye):
    X=             -6.1626    Y=             -1.2093    Z=             -0.4684  Tot=              6.2976
 Quadrupole moment (field-independent basis, Debye-Ang):
   XX=            -84.2548   YY=            -51.4598   ZZ=            -61.3687
   XY=              2.0875   XZ=              2.4762   YZ=              2.9193

 Normal termination of Gaussian 16 at Wed May  1 14:47:32 2024.
