 Gaussian 16, Revision C.01,
 Gaussian 16:  ES64L-G16RevC.01  3-Jul-2019

 ----------------------------------------
 #P wB97XD/6-311+G* NoSymm #P Field=Z-262
 ----------------------------------------

 -------
 TitleMe
 -------
 Symbolic Z-matrix:
 Charge =  1 Multiplicity = 1

                          Input orientation:
 ---------------------------------------------------------------------
 Center     Atomic      Atomic             Coordinates (Angstroms)
 Number     Number       Type             X           Y           Z
 ---------------------------------------------------------------------
      1          6           0        0.029500    1.339700    0.068200
      2          6           0        1.434800    1.286700    0.006400
      3          6           0        2.111800    0.051100   -0.005400
      4          6           0        1.445100   -1.137200    0.031200
      5          6           0       -0.687900    0.168200    0.110000
      6          1           0       -0.471300    2.298400    0.078100
      7          1           0        2.027300    2.196500   -0.032200
      8          1           0        1.989700   -2.076400    0.023200
      9          1           0       -1.771600    0.180400    0.158200
     10          7           0        3.586400    0.051000   -0.067500
     11          8           0        4.147100   -1.059700   -0.088100
     12          8           0        4.145000    1.163900   -0.090100
     13          6           0       -0.023600   -1.145800    0.083500
     14          1           0       -0.436700   -1.872500    0.788900
     15         35           0       -0.535900   -1.869700   -1.740800
 ---------------------------------------------------------------------

 SCF Done:  E(RwB97XD) =  -3010.55854902     A.U. after   20 cycles

 Alpha  occ. eigenvalues -- -483.35602 -62.90679 -56.70293 -56.69832 -56.69831
 Alpha  occ. eigenvalues --  -19.46905 -19.46806 -14.86384 -10.60465 -10.58940
 Alpha  occ. eigenvalues --  -10.58426 -10.58245 -10.57915 -10.54030  -9.06521
 Alpha  occ. eigenvalues --   -6.88983  -6.87446  -6.87440  -2.98938  -2.98523
 Alpha  occ. eigenvalues --   -2.98517  -2.97286  -2.97286  -1.50622  -1.33593
 Alpha  occ. eigenvalues --   -1.24118  -1.16235  -1.13069  -1.07662  -1.02146
 Alpha  occ. eigenvalues --   -0.96878  -0.92149  -0.86277  -0.81933  -0.81669
 Alpha  occ. eigenvalues --   -0.81013  -0.79346  -0.77166  -0.77063  -0.74575
 Alpha  occ. eigenvalues --   -0.70575  -0.68796  -0.65691  -0.63343  -0.61413
 Alpha  occ. eigenvalues --   -0.58295  -0.57961  -0.57041  -0.56562
 Alpha virt. eigenvalues --   -0.31586  -0.22555  -0.21520  -0.18351  -0.15706
 Alpha virt. eigenvalues --   -0.14648  -0.13502  -0.10468  -0.09063  -0.08859
 Alpha virt. eigenvalues --   -0.06089  -0.05116  -0.03944  -0.02936  -0.02715

 Mulliken charges:
               1
     1  C   -0.632783
     2  C    0.593837
     3  C   -0.735000
     4  C    0.309220
     5  C    0.078914
     6  H    0.347372
     7  H    0.372475
     8  H    0.384648
     9  H    0.364688
    10  N   -0.110218
    11  O    0.037402
    12  O    0.032560
    13  C   -0.464994
    14  H    0.493466
    15  Br  -0.071587
 Sum of Mulliken charges =   1.00000

 Dipole moment (field-independent basis, Debye):
    X=             -0.1905    Y=              0.3723    Z=              4.5407  Tot=              4.5599
 Quadrupole moment (field-independent basis, Debye-Ang):
   XX=            -70.4033   YY=            -53.4027   ZZ=            -68.1714
   XY=              0.6139   XZ=              3.1929   YZ=             -2.2418

 Normal termination of Gaussian 16 at Wed May  1 15:13:44 2024.
