 Gaussian 16, Revision C.01,
 Gaussian 16:  ES64L-G16RevC.01  3-Jul-2019

 ----------------------------------------
 #P wB97XD/6-311+G* NoSymm #P Field=Y+145
 ----------------------------------------

 -------
 TitleMe
 -------
 Symbolic Z-matrix:
 Charge =  1 Multiplicity = 1

                          Input orientation:
 ---------------------------------------------------------------------
 Center     Atomic      Atomic             Coordinates (Angstroms)
 Number     Number       Type             X           Y           Z
 ---------------------------------------------------------------------
      1          6           0        0.519300    1.233000   -0.031900
      2          6           0        1.944500    1.269200   -0.036700
      3          6           0        2.620400    0.092800   -0.025000
      4          6           0       -0.196000    0.030100    0.001000
      5          1           0       -0.020700    2.174200   -0.043400
      6          1           0        2.482800    2.208900   -0.036100
      7          1           0       -1.277700    0.039900    0.011700
      8          7           0        4.092100    0.095900    0.036600
      9          8           0        4.639300   -1.021700    0.144600
     10          8           0        4.664900    1.198400   -0.023300
     11          6           0        0.494300   -1.167100    0.021000
     12          1           0       -0.032500   -2.114900    0.054500
     13          6           0        1.962900   -1.216500   -0.021100
     14          1           0        2.443600   -1.963100    0.615100
     15         35           0        2.173000   -1.949100   -1.906200
 ---------------------------------------------------------------------

 SCF Done:  E(RwB97XD) =  -3010.54922256     A.U. after   20 cycles

 Alpha  occ. eigenvalues -- -483.28999 -62.83985 -56.63711 -56.63102 -56.63083
 Alpha  occ. eigenvalues --  -19.46284 -19.45992 -14.85472 -10.58763 -10.56693
 Alpha  occ. eigenvalues --  -10.56074 -10.55961 -10.53563 -10.52144  -8.99763
 Alpha  occ. eigenvalues --   -6.82529  -6.80537  -6.80478  -2.92411  -2.91896
 Alpha  occ. eigenvalues --   -2.91848  -2.90255  -2.90255  -1.49784  -1.32755
 Alpha  occ. eigenvalues --   -1.21603  -1.12227  -1.11402  -1.03419  -0.99394
 Alpha  occ. eigenvalues --   -0.94535  -0.90001  -0.84634  -0.80535  -0.79844
 Alpha  occ. eigenvalues --   -0.79507  -0.77305  -0.75949  -0.74780  -0.71031
 Alpha  occ. eigenvalues --   -0.67735  -0.66910  -0.62462  -0.58672  -0.57272
 Alpha  occ. eigenvalues --   -0.56444  -0.55753  -0.53498  -0.52657
 Alpha virt. eigenvalues --   -0.29074  -0.20155  -0.14198  -0.13545  -0.12373
 Alpha virt. eigenvalues --   -0.09547  -0.06570  -0.06149  -0.04839  -0.03296
 Alpha virt. eigenvalues --   -0.02010  -0.01358  -0.00633  -0.00108   0.00662

 Mulliken charges:
               1
     1  C   -0.103248
     2  C    0.198854
     3  C   -0.109411
     4  C   -0.373931
     5  H    0.281933
     6  H    0.291879
     7  H    0.327383
     8  N   -0.245565
     9  O    0.169637
    10  O   -0.012851
    11  C   -0.179634
    12  H    0.406744
    13  C   -0.391127
    14  H    0.445505
    15  Br   0.293836
 Sum of Mulliken charges =   1.00000

 Dipole moment (field-independent basis, Debye):
    X=              2.9998    Y=             -5.1719    Z=             -1.3464  Tot=              6.1286
 Quadrupole moment (field-independent basis, Debye-Ang):
   XX=            -67.6380   YY=            -49.2589   ZZ=            -60.6425
   XY=            -11.8853   XZ=             -3.8637   YZ=              4.7176

 Normal termination of Gaussian 16 at Thu May  2 14:19:38 2024.
