 Gaussian 16, Revision C.01,
 Gaussian 16:  ES64L-G16RevC.01  3-Jul-2019

 ----------------------------------------
 #P wB97XD/6-311+G* NoSymm #P Field=X-262
 ----------------------------------------

 -------
 TitleMe
 -------
 Symbolic Z-matrix:
 Charge =  1 Multiplicity = 1

                          Input orientation:
 ---------------------------------------------------------------------
 Center     Atomic      Atomic             Coordinates (Angstroms)
 Number     Number       Type             X           Y           Z
 ---------------------------------------------------------------------
      1          6           0        0.029500    1.339700    0.068200
      2          6           0        1.434800    1.286700    0.006400
      3          6           0        2.111800    0.051100   -0.005400
      4          6           0        1.445100   -1.137200    0.031200
      5          6           0       -0.687900    0.168200    0.110000
      6          1           0       -0.471300    2.298400    0.078100
      7          1           0        2.027300    2.196500   -0.032200
      8          1           0        1.989700   -2.076400    0.023200
      9          1           0       -1.771600    0.180400    0.158200
     10          7           0        3.586400    0.051000   -0.067500
     11          8           0        4.147100   -1.059700   -0.088100
     12          8           0        4.145000    1.163900   -0.090100
     13          6           0       -0.023600   -1.145800    0.083500
     14          1           0       -0.436700   -1.872500    0.788900
     15         35           0       -0.535900   -1.869700   -1.740800
 ---------------------------------------------------------------------

 SCF Done:  E(RwB97XD) =  -3010.56841992     A.U. after   30 cycles

 Alpha  occ. eigenvalues -- -483.29524 -62.84581 -56.64218 -56.63728 -56.63719
 Alpha  occ. eigenvalues --  -19.33780 -19.33740 -14.73023 -10.56012 -10.53689
 Alpha  occ. eigenvalues --  -10.52241 -10.51354 -10.50613 -10.50494  -9.00410
 Alpha  occ. eigenvalues --   -6.82931  -6.81312  -6.81279  -2.92872  -2.92444
 Alpha  occ. eigenvalues --   -2.92417  -2.91120  -2.91120  -1.37211  -1.20090
 Alpha  occ. eigenvalues --   -1.18536  -1.09942  -1.07252  -1.01676  -0.94267
 Alpha  occ. eigenvalues --   -0.91296  -0.85651  -0.80303  -0.75919  -0.74946
 Alpha  occ. eigenvalues --   -0.72566  -0.70486  -0.69442  -0.67205  -0.64975
 Alpha  occ. eigenvalues --   -0.64459  -0.61782  -0.59811  -0.56873  -0.55280
 Alpha  occ. eigenvalues --   -0.52082  -0.44152  -0.42628  -0.42408
 Alpha virt. eigenvalues --   -0.26098  -0.17791  -0.14374  -0.13322  -0.12770
 Alpha virt. eigenvalues --   -0.10415  -0.08679  -0.06080  -0.04374  -0.04076
 Alpha virt. eigenvalues --   -0.03125  -0.01534  -0.00258   0.00444   0.01016

 Mulliken charges:
               1
     1  C   -0.492363
     2  C    0.348041
     3  C   -0.572453
     4  C    0.313867
     5  C   -0.039338
     6  H    0.277238
     7  H    0.408178
     8  H    0.409505
     9  H    0.221078
    10  N   -0.133356
    11  O    0.174450
    12  O    0.172742
    13  C   -0.478311
    14  H    0.360082
    15  Br   0.030639
 Sum of Mulliken charges =   1.00000

 Dipole moment (field-independent basis, Debye):
    X=              7.7201    Y=              0.3215    Z=              0.6363  Tot=              7.7530
 Quadrupole moment (field-independent basis, Debye-Ang):
   XX=            -50.9661   YY=            -53.2485   ZZ=            -64.9620
   XY=             -0.2605   XZ=             -1.1057   YZ=             -0.2513

 Normal termination of Gaussian 16 at Wed May  1 14:58:08 2024.
