 Gaussian 16, Revision C.01,
 Gaussian 16:  ES64L-G16RevC.01  3-Jul-2019

 ---------------------------------------
 #P wB97XD/6-311+G* NoSymm #P Field=X-97
 ---------------------------------------

 -------
 TitleMe
 -------
 Symbolic Z-matrix:
 Charge =  1 Multiplicity = 1

                          Input orientation:
 ---------------------------------------------------------------------
 Center     Atomic      Atomic             Coordinates (Angstroms)
 Number     Number       Type             X           Y           Z
 ---------------------------------------------------------------------
      1          6           0        0.029500    1.339700    0.068200
      2          6           0        1.434800    1.286700    0.006400
      3          6           0        2.111800    0.051100   -0.005400
      4          6           0        1.445100   -1.137200    0.031200
      5          6           0       -0.687900    0.168200    0.110000
      6          1           0       -0.471300    2.298400    0.078100
      7          1           0        2.027300    2.196500   -0.032200
      8          1           0        1.989700   -2.076400    0.023200
      9          1           0       -1.771600    0.180400    0.158200
     10          7           0        3.586400    0.051000   -0.067500
     11          8           0        4.147100   -1.059700   -0.088100
     12          8           0        4.145000    1.163900   -0.090100
     13          6           0       -0.023600   -1.145800    0.083500
     14          1           0       -0.436700   -1.872500    0.788900
     15         35           0       -0.535900   -1.869700   -1.740800
 ---------------------------------------------------------------------

 SCF Done:  E(RwB97XD) =  -3010.53770707     A.U. after   21 cycles

 Alpha  occ. eigenvalues -- -483.30525 -62.85565 -56.65238 -56.64693 -56.64691
 Alpha  occ. eigenvalues --  -19.40744 -19.40674 -14.80345 -10.57362 -10.55631
 Alpha  occ. eigenvalues --  -10.55555 -10.54854 -10.54593 -10.51891  -9.01382
 Alpha  occ. eigenvalues --   -6.84005  -6.82217  -6.82204  -2.93922  -2.93446
 Alpha  occ. eigenvalues --   -2.93434  -2.92004  -2.92004  -1.44513  -1.27428
 Alpha  occ. eigenvalues --   -1.20934  -1.12266  -1.10045  -1.03289  -0.98202
 Alpha  occ. eigenvalues --   -0.93842  -0.88867  -0.82876  -0.78669  -0.77383
 Alpha  occ. eigenvalues --   -0.76510  -0.75258  -0.74215  -0.71234  -0.70492
 Alpha  occ. eigenvalues --   -0.67902  -0.65843  -0.62035  -0.58783  -0.55969
 Alpha  occ. eigenvalues --   -0.54249  -0.51768  -0.50580  -0.50276
 Alpha virt. eigenvalues --   -0.28207  -0.17926  -0.14620  -0.10911  -0.10175
 Alpha virt. eigenvalues --   -0.07318  -0.05809  -0.05691  -0.03413  -0.02187
 Alpha virt. eigenvalues --   -0.01954  -0.00943  -0.00780  -0.00394   0.00231

 Mulliken charges:
               1
     1  C   -0.549290
     2  C    0.472893
     3  C   -0.679207
     4  C    0.319571
     5  C   -0.020696
     6  H    0.313566
     7  H    0.383270
     8  H    0.387895
     9  H    0.305729
    10  N   -0.112305
    11  O    0.075470
    12  O    0.072696
    13  C   -0.481462
    14  H    0.388147
    15  Br   0.123725
 Sum of Mulliken charges =   1.00000

 Dipole moment (field-independent basis, Debye):
    X=              2.0742    Y=             -0.2644    Z=              0.2126  Tot=              2.1017
 Quadrupole moment (field-independent basis, Debye-Ang):
   XX=            -64.5760   YY=            -52.3232   ZZ=            -63.3511
   XY=              0.8095   XZ=              0.3627   YZ=              1.0001

 Normal termination of Gaussian 16 at Wed May  1 14:48:31 2024.
