 Gaussian 16, Revision A.03,
 Gaussian 16:  ES64L-G16RevA.03 25-Dec-2016

 --------------------------------------------------------------------
 #p B3LYP/6-311+G** #p TD=(singlets,nstates=30)IOp(6/8=3) IOp(9/40=4)
 --------------------------------------------------------------------

 --------------------------------------------
 Scan Step 61, Bond Length 0.8049999999999999
 --------------------------------------------
 Symbolic Z-matrix:
 Charge =  0 Multiplicity = 1

                         Standard orientation:
 ---------------------------------------------------------------------
 Center     Atomic      Atomic             Coordinates (Angstroms)
 Number     Number       Type             X           Y           Z
 ---------------------------------------------------------------------
      1          6           0        0.000000    0.000000   -0.328581
      2          1           0        0.000000    0.937260   -0.919931
      3          1           0       -0.000000   -0.937260   -0.919931
      4          8           0        0.000000   -0.000000    0.476419
 ---------------------------------------------------------------------

 SCF Done:  E(RB3LYP) =  -113.866433904     A.U. after    9 cycles

 Excitation energies and oscillator strengths:

 Excited State   1:      Singlet-B2     5.4875 eV  225.94 nm  f=0.1008  <S**2>=0.000
       3 -> 11         0.00081
       3 -> 16         0.00039
       3 -> 18         0.00088
       3 -> 23         0.00014
       3 -> 24         0.00105
       3 -> 29        -0.00021
       3 -> 42         0.00017
       3 -> 50        -0.00014
       3 -> 53         0.00011
       4 ->  9         0.00254
       4 -> 12         0.00516
       4 -> 14         0.00455
       4 -> 15         0.00164
       4 -> 19         0.00357
       4 -> 20         0.00161
       4 -> 21         0.00229
       4 -> 25         0.00145
       4 -> 26        -0.00091
       4 -> 30        -0.00165
       4 -> 31         0.00089
       4 -> 34         0.00046
       4 -> 38        -0.00080
       4 -> 41         0.00051
       4 -> 44        -0.00040
       4 -> 46        -0.00065
       4 -> 48         0.00035
       5 -> 28         0.00132
       5 -> 35         0.00048
       5 -> 45         0.00087
       6 -> 11        -0.00700
       6 -> 16         0.00157
       6 -> 18         0.00062
       6 -> 23        -0.00194
       6 -> 24         0.00420
       6 -> 29        -0.00082
       6 -> 32        -0.00106
       6 -> 36         0.00079
       6 -> 42         0.00040
       7 -> 11         0.00334
       7 -> 16         0.00394
       7 -> 18         0.00312
       7 -> 23        -0.00150
       7 -> 24         0.00247
       7 -> 29         0.00031
       7 -> 32         0.00015
       7 -> 36        -0.00036
       7 -> 42        -0.00038
       7 -> 47         0.00044
       7 -> 50         0.00047
       7 -> 53        -0.00011
       8 ->  9         0.70608
       8 -> 12         0.00362
       8 -> 14        -0.03045
       8 -> 15         0.01045
       8 -> 19         0.02111
       8 -> 20        -0.00676
       8 -> 21        -0.00887
       8 -> 25         0.00049
       8 -> 26        -0.00026
       8 -> 30         0.00044
       8 -> 31         0.00320
       8 -> 34         0.00134
       8 -> 38         0.00101
       8 -> 39        -0.00042
       8 -> 41        -0.00059
       8 -> 46        -0.00100
       8 -> 48         0.00035
       8 -> 54        -0.00012
       3 <- 11         0.00029
       3 <- 18         0.00056
       3 <- 24         0.00079
       3 <- 29        -0.00019
       3 <- 40         0.00010
       3 <- 42         0.00015
       3 <- 53         0.00012
       4 <-  9         0.00178
       4 <- 12        -0.00020
       4 <- 14         0.00367
       4 <- 15         0.00187
       4 <- 19         0.00088
       4 <- 20         0.00072
       4 <- 21         0.00155
       4 <- 25         0.00156
       4 <- 26        -0.00125
       4 <- 30        -0.00060
       4 <- 31         0.00022
       4 <- 34         0.00025
       4 <- 38        -0.00051
       4 <- 39         0.00017
       4 <- 41         0.00046
       4 <- 44        -0.00029
       4 <- 46        -0.00059
       4 <- 48         0.00029
       5 <- 28         0.00106
       5 <- 35         0.00038
       5 <- 45         0.00073
       6 <- 11        -0.00051
       6 <- 16         0.00169
       6 <- 18         0.00183
       6 <- 23        -0.00103
       6 <- 24         0.00327
       6 <- 29        -0.00065
       6 <- 32        -0.00083
       6 <- 36         0.00063
       6 <- 40        -0.00014
       6 <- 42         0.00021
       7 <- 11         0.00080
       7 <- 16         0.00234
       7 <- 18         0.00084
       7 <- 23        -0.00060
       7 <- 24         0.00116
       7 <- 29         0.00093
       7 <- 42        -0.00030
       7 <- 47         0.00044
       7 <- 50         0.00054
       8 <-  9        -0.00557
       8 <- 12         0.00314
       8 <- 14        -0.01542
       8 <- 15        -0.00352
       8 <- 19        -0.00132
       8 <- 21        -0.00458
       8 <- 25        -0.00315
       8 <- 26        -0.00059
       8 <- 30         0.00055
       8 <- 31         0.00184
       8 <- 34         0.00151
       8 <- 38         0.00098
       8 <- 39        -0.00035
       8 <- 41        -0.00043
       8 <- 46        -0.00078
       8 <- 48         0.00031
 This state for optimization and/or second-order correction.
 Total Energy, E(TD-HF/TD-DFT) =  -113.664772270
 Copying the excited state density for this state as the 1-particle RhoCI density.

 Excited State   2:      Singlet-A2     5.5464 eV  223.54 nm  f=0.0000  <S**2>=0.000
       3 -> 28         0.00239
       3 -> 35         0.00174
       3 -> 45         0.00080
       4 -> 10         0.00316
       4 -> 13         0.00564
       4 -> 17         0.00538
       4 -> 22        -0.00309
       4 -> 27         0.00265
       4 -> 33         0.00089
       4 -> 37         0.00262
       4 -> 43         0.00035
       4 -> 49         0.00010
       4 -> 52         0.00051
       5 -> 11        -0.00046
       5 -> 16        -0.00031
       5 -> 18        -0.00039
       5 -> 23         0.00144
       5 -> 29        -0.00011
       5 -> 32         0.00019
       5 -> 36         0.00045
       5 -> 42         0.00047
       5 -> 47         0.00055
       5 -> 50        -0.00019
       5 -> 53         0.00018
       6 -> 28         0.00366
       6 -> 35        -0.00061
       6 -> 45        -0.00043
       7 -> 28         0.00077
       7 -> 45         0.00080
       8 -> 10         0.70111
       8 -> 13         0.08671
       8 -> 17         0.03059
       8 -> 22        -0.00211
       8 -> 27         0.00371
       8 -> 33         0.00324
       8 -> 37        -0.00236
       8 -> 52         0.00065
       3 <- 28         0.00185
       3 <- 35         0.00150
       3 <- 45         0.00081
       4 <- 10         0.00020
       4 <- 13         0.00108
       4 <- 17         0.00044
       4 <- 27         0.00013
       4 <- 33        -0.00096
       4 <- 37         0.00127
       4 <- 43         0.00038
       4 <- 52         0.00012
       5 <- 11        -0.00083
       5 <- 16         0.00097
       5 <- 18        -0.00250
       5 <- 23         0.00298
       5 <- 24        -0.00168
       5 <- 29         0.00149
       5 <- 32        -0.00056
       5 <- 36         0.00136
       5 <- 42         0.00065
       5 <- 47         0.00046
       5 <- 53         0.00049
       6 <- 28         0.00386
       6 <- 35        -0.00060
       6 <- 45        -0.00043
       7 <- 28         0.00072
       7 <- 35        -0.00012
       7 <- 45         0.00069
       8 <- 10        -0.00337
       8 <- 13        -0.00812
       8 <- 17        -0.00476
       8 <- 22         0.00030
       8 <- 27        -0.00038
       8 <- 33         0.00300
       8 <- 37        -0.00203
       8 <- 43         0.00010
       8 <- 52         0.00020

 Excited State   3:      Singlet-B2     6.3077 eV  196.56 nm  f=0.0259  <S**2>=0.000
       3 -> 11         0.00010
       3 -> 16        -0.00057
       3 -> 18         0.00017
       3 -> 23        -0.00022
       3 -> 24        -0.00044
       3 -> 29        -0.00073
       3 -> 32        -0.00014
       3 -> 36         0.00027
       3 -> 42         0.00028
       3 -> 47        -0.00018
       3 -> 50        -0.00018
       3 -> 53         0.00013
       4 ->  9         0.00368
       4 -> 12        -0.00025
       4 -> 14        -0.00213
       4 -> 15        -0.00375
       4 -> 19         0.00253
       4 -> 21        -0.00143
       4 -> 25        -0.00084
       4 -> 26        -0.00104
       4 -> 30         0.00093
       4 -> 31         0.00216
       4 -> 34         0.00026
       4 -> 39         0.00089
       4 -> 41         0.00050
       4 -> 46        -0.00062
       4 -> 48         0.00032
       4 -> 51         0.00016
       5 -> 28         0.00095
       5 -> 35         0.00133
       5 -> 45         0.00091
       6 -> 11        -0.00195
       6 -> 16        -0.00499
       6 -> 18        -0.00043
       6 -> 23         0.00101
       6 -> 24        -0.00373
       6 -> 29         0.00147
       6 -> 32        -0.00054
       6 -> 40         0.00030
       7 -> 11         0.00280
       7 -> 16         0.00095
       7 -> 18         0.00231
       7 -> 23        -0.00118
       7 -> 24         0.00098
       7 -> 29         0.00013
       7 -> 32         0.00022
       7 -> 36        -0.00105
       7 -> 40         0.00028
       7 -> 42        -0.00053
       7 -> 47         0.00066
       7 -> 50         0.00051
       7 -> 53        -0.00018
       8 ->  9        -0.00356
       8 -> 12         0.70599
       8 -> 14         0.02162
       8 -> 15         0.02547
       8 -> 19         0.01402
       8 -> 20         0.01563
       8 -> 21         0.00397
       8 -> 25        -0.00055
       8 -> 26         0.00099
       8 -> 30        -0.00189
       8 -> 31        -0.00074
       8 -> 34        -0.00034
       8 -> 39         0.00110
       8 -> 41         0.00104
       8 -> 46        -0.00067
       8 -> 48         0.00040
       8 -> 54        -0.00015
       3 <- 11        -0.00017
       3 <- 16        -0.00057
       3 <- 24        -0.00049
       3 <- 29        -0.00049
       3 <- 32        -0.00015
       3 <- 36         0.00028
       3 <- 42         0.00024
       3 <- 47        -0.00014
       3 <- 53         0.00021
       4 <-  9        -0.00134
       4 <- 14        -0.00164
       4 <- 15        -0.00065
       4 <- 19        -0.00064
       4 <- 20         0.00039
       4 <- 21        -0.00100
       4 <- 25        -0.00093
       4 <- 26        -0.00091
       4 <- 30         0.00097
       4 <- 31         0.00095
       4 <- 34         0.00079
       4 <- 39         0.00068
       4 <- 41         0.00050
       4 <- 46        -0.00063
       4 <- 48         0.00020
       4 <- 51         0.00015
       5 <- 28         0.00050
       5 <- 35         0.00112
       5 <- 45         0.00079
       6 <- 16        -0.00112
       6 <- 18        -0.00095
       6 <- 23         0.00114
       6 <- 24        -0.00207
       6 <- 29         0.00074
       6 <- 32        -0.00060
       6 <- 36        -0.00032
       6 <- 40         0.00029
       6 <- 50        -0.00013
       7 <- 11         0.00036
       7 <- 16         0.00057
       7 <- 18         0.00023
       7 <- 23        -0.00027
       7 <- 24         0.00027
       7 <- 29         0.00048
       7 <- 36        -0.00069
       7 <- 40         0.00022
       7 <- 42        -0.00037
       7 <- 47         0.00058
       7 <- 50         0.00051
       8 <-  9         0.00289
       8 <- 12         0.00138
       8 <- 14         0.00821
       8 <- 15         0.00244
       8 <- 19        -0.00154
       8 <- 20        -0.00239
       8 <- 21         0.00302
       8 <- 25         0.00057
       8 <- 26        -0.00051
       8 <- 30        -0.00150
       8 <- 31        -0.00108
       8 <- 38         0.00024
       8 <- 39         0.00085
       8 <- 41         0.00089
       8 <- 46        -0.00056
       8 <- 48         0.00024

 Excited State   4:      Singlet-A1     6.4505 eV  192.21 nm  f=0.0299  <S**2>=0.000
       3 ->  9         0.00124
       3 -> 12         0.00068
       3 -> 15         0.00062
       3 -> 19         0.00136
       3 -> 20        -0.00013
       3 -> 21        -0.00048
       3 -> 25         0.00036
       3 -> 26         0.00012
       3 -> 30        -0.00100
       3 -> 34        -0.00026
       3 -> 38        -0.00032
       3 -> 39        -0.00029
       3 -> 48        -0.00010
       3 -> 51        -0.00024
       3 -> 54         0.00019
       4 -> 11         0.00702
       4 -> 16         0.00801
       4 -> 18         0.00529
       4 -> 23         0.00149
       4 -> 24         0.00370
       4 -> 29         0.00072
       4 -> 32        -0.00014
       4 -> 36         0.00100
       4 -> 42        -0.00027
       4 -> 50        -0.00032
       4 -> 53        -0.00010
       5 -> 10         0.00583
       5 -> 13        -0.00265
       5 -> 17         0.00476
       5 -> 22         0.00362
       5 -> 27         0.00095
       5 -> 33         0.00093
       5 -> 37         0.00055
       5 -> 43         0.00035
       5 -> 49        -0.00034
       6 ->  9         0.00639
       6 -> 12        -0.01095
       6 -> 14         0.00602
       6 -> 15         0.00334
       6 -> 19         0.00207
       6 -> 20        -0.00689
       6 -> 21         0.00114
       6 -> 25         0.00671
       6 -> 26        -0.00113
       6 -> 30         0.00094
       6 -> 31        -0.00103
       6 -> 34        -0.00128
       6 -> 38        -0.00059
       6 -> 39         0.00112
       6 -> 44        -0.00034
       6 -> 46        -0.00022
       6 -> 48        -0.00036
       7 ->  9         0.01232
       7 -> 12         0.00631
       7 -> 14         0.00160
       7 -> 15        -0.00120
       7 -> 19         0.00870
       7 -> 20        -0.00124
       7 -> 21         0.00022
       7 -> 25         0.00138
       7 -> 26         0.00070
       7 -> 30        -0.00039
       7 -> 31         0.00087
       7 -> 34        -0.00094
       7 -> 38        -0.00013
       7 -> 39         0.00018
       7 -> 48        -0.00022
       7 -> 51         0.00033
       8 -> 11         0.70527
       8 -> 16         0.04544
       8 -> 18        -0.01087
       8 -> 23         0.00187
       8 -> 24         0.00252
       8 -> 29         0.00396
       8 -> 32         0.00165
       8 -> 36        -0.00279
       8 -> 40         0.00020
       8 -> 42         0.00161
       8 -> 47        -0.00058
       3 <-  9         0.00058
       3 <- 12         0.00030
       3 <- 15         0.00034
       3 <- 19         0.00080
       3 <- 21        -0.00024
       3 <- 25         0.00035
       3 <- 26         0.00013
       3 <- 30        -0.00063
       3 <- 31        -0.00011
       3 <- 34        -0.00023
       3 <- 38        -0.00023
       3 <- 39        -0.00025
       3 <- 46         0.00012
       3 <- 48        -0.00012
       3 <- 51        -0.00021
       3 <- 54         0.00017
       4 <- 11         0.00255
       4 <- 16         0.00282
       4 <- 18         0.00281
       4 <- 23         0.00121
       4 <- 24         0.00197
       4 <- 29         0.00031
       4 <- 32        -0.00025
       4 <- 36         0.00085
       4 <- 42        -0.00023
       4 <- 50        -0.00027
       5 <- 10         0.00254
       5 <- 13        -0.00122
       5 <- 17         0.00246
       5 <- 22         0.00229
       5 <- 27         0.00063
       5 <- 33         0.00073
       5 <- 37         0.00046
       5 <- 43         0.00030
       5 <- 49        -0.00031
       6 <-  9         0.00645
       6 <- 12        -0.00440
       6 <- 14         0.00462
       6 <- 15         0.00290
       6 <- 19         0.00134
       6 <- 20        -0.00387
       6 <- 25         0.00424
       6 <- 26        -0.00057
       6 <- 30         0.00027
       6 <- 31        -0.00114
       6 <- 34        -0.00097
       6 <- 38        -0.00068
       6 <- 39         0.00089
       6 <- 44        -0.00038
       6 <- 46        -0.00020
       6 <- 48        -0.00029
       7 <-  9         0.00428
       7 <- 12         0.00190
       7 <- 14         0.00066
       7 <- 15        -0.00058
       7 <- 19         0.00399
       7 <- 20        -0.00087
       7 <- 25         0.00086
       7 <- 26         0.00036
       7 <- 30        -0.00037
       7 <- 31         0.00061
       7 <- 34        -0.00064
       7 <- 38        -0.00016
       7 <- 39         0.00025
       7 <- 46        -0.00014
       7 <- 48        -0.00013
       7 <- 51         0.00031
       8 <- 11        -0.00533
       8 <- 16         0.00472
       8 <- 18        -0.01277
       8 <- 23        -0.00210
       8 <- 24        -0.00099
       8 <- 29         0.00234
       8 <- 32         0.00136
       8 <- 36        -0.00209
       8 <- 42         0.00129
       8 <- 47        -0.00062
       8 <- 53        -0.00010

 Excited State   5:      Singlet-A2     7.6603 eV  161.85 nm  f=0.0000  <S**2>=0.000
       3 -> 28         0.00239
       3 -> 35         0.00183
       3 -> 45         0.00079
       4 -> 10         0.00508
       4 -> 13         0.01008
       4 -> 17        -0.00025
       4 -> 22        -0.00281
       4 -> 27         0.00066
       4 -> 33         0.00204
       4 -> 37         0.00304
       4 -> 43         0.00029
       4 -> 52         0.00049
       5 -> 16        -0.00158
       5 -> 18        -0.00032
       5 -> 23         0.00166
       5 -> 24        -0.00010
       5 -> 29        -0.00035
       5 -> 32         0.00012
       5 -> 36         0.00048
       5 -> 42         0.00054
       5 -> 47         0.00050
       5 -> 53         0.00020
       6 -> 28         0.00206
       6 -> 35        -0.00085
       6 -> 45        -0.00022
       7 -> 28         0.00044
       7 -> 45         0.00085
       8 -> 10        -0.08778
       8 -> 13         0.70080
       8 -> 17         0.02276
       8 -> 22        -0.02384
       8 -> 27         0.00288
       8 -> 33         0.00222
       8 -> 37        -0.00206
       8 -> 43        -0.00015
       8 -> 52         0.00053
       3 <- 28         0.00156
       3 <- 35         0.00151
       3 <- 45         0.00088
       4 <- 10         0.00034
       4 <- 13         0.00067
       4 <- 17        -0.00019
       4 <- 33        -0.00053
       4 <- 37         0.00108
       4 <- 43         0.00034
       4 <- 52         0.00015
       5 <- 11         0.00030
       5 <- 16        -0.00040
       5 <- 18        -0.00098
       5 <- 23         0.00284
       5 <- 24        -0.00123
       5 <- 29         0.00030
       5 <- 32        -0.00078
       5 <- 36         0.00152
       5 <- 42         0.00084
       5 <- 47         0.00024
       5 <- 53         0.00044
       6 <- 28         0.00259
       6 <- 35        -0.00027
       6 <- 45        -0.00032
       7 <- 28         0.00056
       7 <- 35        -0.00024
       7 <- 45         0.00048
       8 <- 10        -0.00731
       8 <- 13        -0.00362
       8 <- 17        -0.00207
       8 <- 22         0.00067
       8 <- 27        -0.00037
       8 <- 33         0.00211
       8 <- 37        -0.00154
       8 <- 43         0.00011
       8 <- 52         0.00021

 Excited State   6:      Singlet-B2     9.5769 eV  129.46 nm  f=0.1458  <S**2>=0.000
       3 -> 11        -0.00037
       3 -> 16         0.00090
       3 -> 18        -0.00078
       3 -> 23         0.00054
       3 -> 24         0.00033
       3 -> 29         0.00079
       3 -> 32        -0.00064
       3 -> 40         0.00041
       3 -> 42         0.00039
       3 -> 47         0.00025
       4 ->  9         0.00559
       4 -> 12         0.00602
       4 -> 14         0.01390
       4 -> 15         0.00094
       4 -> 19         0.00275
       4 -> 20         0.00853
       4 -> 21         0.00979

 The electronic state is 1-A1.
 Alpha  occ. eigenvalues --  -19.14561 -10.24342  -1.31322  -0.66685  -0.62628
 Alpha  occ. eigenvalues --   -0.58341  -0.53900  -0.22631
 Alpha virt. eigenvalues --    0.01310   0.02501   0.04437   0.04504   0.11118
 Alpha virt. eigenvalues --    0.14385   0.17649   0.19821   0.21758   0.24600
 Alpha virt. eigenvalues --    0.25228   0.36517   0.50474   0.54256   0.55501

 Mulliken charges:
               1
     1  C    0.300241
     2  H   -0.037556
     3  H   -0.037556
     4  O   -0.225130
 Sum of Mulliken charges =   0.00000

 Dipole moment (field-independent basis, Debye):
    X=              0.0000    Y=              0.0000    Z=              0.1325  Tot=              0.1325
 Quadrupole moment (field-independent basis, Debye-Ang):
   XX=            -10.5483   YY=            -12.7637   ZZ=            -13.4030
   XY=             -0.0000   XZ=             -0.0000   YZ=              0.0000

 Normal termination of Gaussian 16 at Fri Sep 17 10:52:28 2021.
