 Gaussian 16, Revision C.01,
 Gaussian 16:  ES64L-G16RevC.01  3-Jul-2019

 ----------------------------------------
 #P wB97XD/6-311+G* NoSymm #P Field=X-214
 ----------------------------------------

 -------
 TitleMe
 -------
 Symbolic Z-matrix:
 Charge =  1 Multiplicity = 1

                          Input orientation:
 ---------------------------------------------------------------------
 Center     Atomic      Atomic             Coordinates (Angstroms)
 Number     Number       Type             X           Y           Z
 ---------------------------------------------------------------------
      1          6           0        0.519300    1.233000   -0.031900
      2          6           0        1.944500    1.269200   -0.036700
      3          6           0        2.620400    0.092800   -0.025000
      4          6           0       -0.196000    0.030100    0.001000
      5          1           0       -0.020700    2.174200   -0.043400
      6          1           0        2.482800    2.208900   -0.036100
      7          1           0       -1.277700    0.039900    0.011700
      8          7           0        4.092100    0.095900    0.036600
      9          8           0        4.639300   -1.021700    0.144600
     10          8           0        4.664900    1.198400   -0.023300
     11          6           0        0.494300   -1.167100    0.021000
     12          1           0       -0.032500   -2.114900    0.054500
     13          6           0        1.962900   -1.216500   -0.021100
     14          1           0        2.443600   -1.963100    0.615100
     15         35           0        2.173000   -1.949100   -1.906200
 ---------------------------------------------------------------------

 SCF Done:  E(RwB97XD) =  -3010.58125960     A.U. after   27 cycles

 Alpha  occ. eigenvalues -- -483.23912 -62.78906 -56.58616 -56.58032 -56.58009
 Alpha  occ. eigenvalues --  -19.33205 -19.33024 -14.72807 -10.51702 -10.51413
 Alpha  occ. eigenvalues --  -10.51076 -10.50497 -10.48134 -10.45505  -8.94689
 Alpha  occ. eigenvalues --   -6.77408  -6.75495  -6.75425  -2.87302  -2.86809
 Alpha  occ. eigenvalues --   -2.86753  -2.85222  -2.85221  -1.36878  -1.19676
 Alpha  occ. eigenvalues --   -1.15550  -1.06178  -1.04998  -0.97433  -0.91990
 Alpha  occ. eigenvalues --   -0.88726  -0.83412  -0.77631  -0.73272  -0.71778
 Alpha  occ. eigenvalues --   -0.69685  -0.69283  -0.67850  -0.64745  -0.63201
 Alpha  occ. eigenvalues --   -0.62348  -0.60373  -0.57071  -0.52398  -0.48604
 Alpha  occ. eigenvalues --   -0.47763  -0.43894  -0.42314  -0.42218
 Alpha virt. eigenvalues --   -0.23148  -0.12896  -0.12053  -0.08262  -0.08074
 Alpha virt. eigenvalues --   -0.05289  -0.04164  -0.02788  -0.00732  -0.00114
 Alpha virt. eigenvalues --    0.01233   0.02101   0.03911   0.04513   0.05415

 Mulliken charges:
               1
     1  C   -0.095589
     2  C    0.139712
     3  C    0.056136
     4  C   -0.291530
     5  H    0.287901
     6  H    0.377578
     7  H    0.218907
     8  N   -0.242556
     9  O    0.171533
    10  O    0.173743
    11  C   -0.330486
    12  H    0.302508
    13  C   -0.442832
    14  H    0.437988
    15  Br   0.236988
 Sum of Mulliken charges =   1.00000

 Dipole moment (field-independent basis, Debye):
    X=              9.0059    Y=             -1.2150    Z=             -1.0651  Tot=              9.1497
 Quadrupole moment (field-independent basis, Debye-Ang):
   XX=            -44.2452   YY=            -50.8664   ZZ=            -61.6212
   XY=             -4.3456   XZ=             -4.2685   YZ=              3.2057

 Normal termination of Gaussian 16 at Thu May  2 14:26:40 2024.
