 Gaussian 16, Revision A.03,
 Gaussian 16:  ES64L-G16RevA.03 25-Dec-2016

 --------------------------------------------------------------------
 #p B3LYP/6-311+G** #p TD=(singlets,nstates=30)IOp(6/8=3) IOp(9/40=4)
 --------------------------------------------------------------------

 -------------------------------
 Scan Step 71, Bond Length 0.855
 -------------------------------
 Symbolic Z-matrix:
 Charge =  0 Multiplicity = 1

                         Standard orientation:
 ---------------------------------------------------------------------
 Center     Atomic      Atomic             Coordinates (Angstroms)
 Number     Number       Type             X           Y           Z
 ---------------------------------------------------------------------
      1          6           0        0.000000    0.000000   -0.353581
      2          1           0        0.000000    0.937260   -0.944931
      3          1           0       -0.000000   -0.937260   -0.944931
      4          8           0        0.000000   -0.000000    0.501419
 ---------------------------------------------------------------------

 SCF Done:  E(RB3LYP) =  -114.094987432     A.U. after    9 cycles

 Excitation energies and oscillator strengths:

 Excited State   1:      Singlet-A2     5.5660 eV  222.75 nm  f=0.0000  <S**2>=0.000
       3 -> 27         0.00268
       3 -> 35         0.00204
       3 -> 46         0.00103
       4 -> 10         0.00571
       4 -> 13         0.00784
       4 -> 17         0.00585
       4 -> 22        -0.00345
       4 -> 28         0.00288
       4 -> 32         0.00145
       4 -> 37         0.00317
       4 -> 43         0.00045
       4 -> 52         0.00063
       5 -> 27         0.00359
       5 -> 35        -0.00067
       5 -> 46        -0.00058
       6 -> 11        -0.00052
       6 -> 16        -0.00069
       6 -> 18        -0.00042
       6 -> 23         0.00165
       6 -> 24         0.00029
       6 -> 29        -0.00027
       6 -> 33         0.00023
       6 -> 36         0.00050
       6 -> 42         0.00050
       6 -> 47         0.00062
       6 -> 50        -0.00018
       6 -> 53         0.00023
       7 -> 27         0.00099
       7 -> 35        -0.00019
       7 -> 46         0.00100
       8 -> 10         0.69737
       8 -> 13         0.11260
       8 -> 17         0.03072
       8 -> 22        -0.00534
       8 -> 28         0.00457
       8 -> 32         0.00335
       8 -> 37        -0.00240
       8 -> 43        -0.00015
       8 -> 52         0.00080
       3 <- 27         0.00202
       3 <- 35         0.00175
       3 <- 46         0.00106
       4 <- 10         0.00024
       4 <- 13         0.00115
       4 <- 17         0.00023
       4 <- 22         0.00015
       4 <- 32        -0.00104
       4 <- 37         0.00148
       4 <- 43         0.00042
       4 <- 52         0.00016
       5 <- 27         0.00395
       5 <- 35        -0.00053
       5 <- 46        -0.00057
       6 <- 11        -0.00089
       6 <- 16         0.00137
       6 <- 18        -0.00292
       6 <- 23         0.00389
       6 <- 24        -0.00170
       6 <- 29         0.00160
       6 <- 33        -0.00075
       6 <- 36         0.00170
       6 <- 40        -0.00011
       6 <- 42         0.00078
       6 <- 47         0.00049
       6 <- 53         0.00063
       7 <- 27         0.00103
       7 <- 35        -0.00025
       7 <- 46         0.00082
       8 <- 10        -0.00626
       8 <- 13        -0.00862
       8 <- 17        -0.00443
       8 <- 22         0.00040
       8 <- 28        -0.00038
       8 <- 32         0.00292
       8 <- 37        -0.00220
       8 <- 52         0.00025
 This state for optimization and/or second-order correction.
 Total Energy, E(TD-HF/TD-DFT) =  -113.890439804
 Copying the excited state density for this state as the 1-particle RhoCI density.

 Excited State   2:      Singlet-B2     5.7359 eV  216.15 nm  f=0.0922  <S**2>=0.000
       3 -> 11         0.00086
       3 -> 16         0.00031
       3 -> 18         0.00096
       3 -> 24         0.00111
       3 -> 29        -0.00020
       3 -> 42         0.00016
       3 -> 50        -0.00015
       4 ->  9         0.00202
       4 -> 12         0.00611
       4 -> 14         0.00501
       4 -> 15         0.00162
       4 -> 19         0.00371
       4 -> 20         0.00136
       4 -> 21         0.00263
       4 -> 25         0.00132
       4 -> 26        -0.00106
       4 -> 30        -0.00203
       4 -> 31         0.00045
       4 -> 34         0.00041
       4 -> 38        -0.00081
       4 -> 39         0.00012
       4 -> 41         0.00047
       4 -> 44         0.00042
       4 -> 45        -0.00059
       4 -> 48         0.00038
       5 -> 11        -0.00660
       5 -> 16         0.00132
       5 -> 18         0.00104
       5 -> 23        -0.00229
       5 -> 24         0.00411
       5 -> 29        -0.00067
       5 -> 33        -0.00104
       5 -> 36         0.00086
       5 -> 40        -0.00014
       5 -> 42         0.00044
       6 -> 27         0.00114
       6 -> 35         0.00033
       6 -> 46         0.00087
       7 -> 11         0.00268
       7 -> 16         0.00349
       7 -> 18         0.00348
       7 -> 23        -0.00197
       7 -> 24         0.00251
       7 -> 29         0.00015
       7 -> 36        -0.00025
       7 -> 42        -0.00037
       7 -> 47         0.00041
       7 -> 50         0.00048
       8 ->  9         0.70623
       8 -> 12         0.01003
       8 -> 14        -0.02374
       8 -> 15         0.01127
       8 -> 19         0.02056
       8 -> 20        -0.00749
       8 -> 21        -0.00824
       8 -> 25         0.00062
       8 -> 26        -0.00045
       8 -> 30         0.00011
       8 -> 31         0.00300
       8 -> 34         0.00146
       8 -> 38         0.00092
       8 -> 39        -0.00050
       8 -> 41        -0.00047
       8 -> 44        -0.00016
       8 -> 45        -0.00107
       8 -> 48         0.00035
       8 -> 54        -0.00014
       3 <- 11         0.00029
       3 <- 18         0.00059
       3 <- 24         0.00082
       3 <- 29        -0.00018
       3 <- 42         0.00013
       3 <- 53         0.00011
       4 <-  9         0.00197
       4 <- 12        -0.00014
       4 <- 14         0.00399
       4 <- 15         0.00179
       4 <- 19         0.00093
       4 <- 20         0.00052
       4 <- 21         0.00168
       4 <- 25         0.00163
       4 <- 26        -0.00125
       4 <- 30        -0.00075
       4 <- 34         0.00019
       4 <- 38        -0.00052
       4 <- 39         0.00016
       4 <- 41         0.00045
       4 <- 44         0.00029
       4 <- 45        -0.00053
       4 <- 48         0.00032
       5 <- 11        -0.00024
       5 <- 16         0.00130
       5 <- 18         0.00219
       5 <- 23        -0.00132
       5 <- 24         0.00317
       5 <- 29        -0.00055
       5 <- 33        -0.00079
       5 <- 36         0.00066
       5 <- 40        -0.00018
       5 <- 42         0.00021
       6 <- 27         0.00089
       6 <- 35         0.00026
       6 <- 46         0.00074
       7 <- 11         0.00071
       7 <- 16         0.00216
       7 <- 18         0.00114
       7 <- 23        -0.00080
       7 <- 24         0.00118
       7 <- 29         0.00078
       7 <- 42        -0.00032
       7 <- 47         0.00039
       7 <- 50         0.00054
       8 <-  9        -0.00481
       8 <- 12         0.00249
       8 <- 14        -0.01389
       8 <- 15        -0.00259
       8 <- 19        -0.00119
       8 <- 20         0.00021
       8 <- 21        -0.00435
       8 <- 25        -0.00314
       8 <- 26        -0.00065
       8 <- 30         0.00048
       8 <- 31         0.00164
       8 <- 34         0.00153
       8 <- 38         0.00090
       8 <- 39        -0.00042
       8 <- 41        -0.00032
       8 <- 44        -0.00024
       8 <- 45        -0.00079
       8 <- 48         0.00032

 Excited State   3:      Singlet-B2     6.5352 eV  189.72 nm  f=0.0236  <S**2>=0.000
       3 -> 11         0.00011
       3 -> 16        -0.00063
       3 -> 18         0.00011
       3 -> 23        -0.00019
       3 -> 24        -0.00044
       3 -> 29        -0.00087
       3 -> 33        -0.00014
       3 -> 36         0.00028
       3 -> 42         0.00030
       3 -> 47        -0.00019
       3 -> 50        -0.00020
       3 -> 53         0.00011
       4 ->  9         0.00451
       4 -> 12        -0.00011
       4 -> 14        -0.00262
       4 -> 15        -0.00428
       4 -> 19         0.00300
       4 -> 20        -0.00044
       4 -> 21        -0.00141
       4 -> 25        -0.00090
       4 -> 26        -0.00117
       4 -> 30         0.00075
       4 -> 31         0.00219
       4 -> 34         0.00037
       4 -> 39         0.00082
       4 -> 41         0.00062
       4 -> 45        -0.00061
       4 -> 48         0.00040
       4 -> 51         0.00019
       5 -> 11        -0.00249
       5 -> 16        -0.00467
       5 -> 18        -0.00117
       5 -> 23         0.00129
       5 -> 24        -0.00374
       5 -> 29         0.00129
       5 -> 33        -0.00055
       5 -> 40         0.00027
       5 -> 47        -0.00012
       6 -> 27         0.00090
       6 -> 35         0.00134
       6 -> 46         0.00100
       7 -> 11         0.00288
       7 -> 16         0.00036
       7 -> 18         0.00238
       7 -> 23        -0.00126
       7 -> 24         0.00054
       7 -> 29         0.00011
       7 -> 33         0.00023
       7 -> 36        -0.00115
       7 -> 40         0.00030
       7 -> 42        -0.00061
       7 -> 47         0.00066
       7 -> 50         0.00056
       7 -> 53        -0.00017
       8 ->  9        -0.01026
       8 -> 12         0.70598
       8 -> 14         0.01900
       8 -> 15         0.02431
       8 -> 19         0.01598
       8 -> 20         0.01530
       8 -> 21         0.00334
       8 -> 25        -0.00043
       8 -> 26         0.00060
       8 -> 30        -0.00180
       8 -> 31        -0.00059
       8 -> 34        -0.00037
       8 -> 38         0.00013
       8 -> 39         0.00088
       8 -> 41         0.00118
       8 -> 44        -0.00011
       8 -> 45        -0.00068
       8 -> 48         0.00054
       8 -> 54        -0.00016
       3 <- 11        -0.00021
       3 <- 16        -0.00060
       3 <- 18        -0.00017
       3 <- 24        -0.00049
       3 <- 29        -0.00058
       3 <- 33        -0.00016
       3 <- 36         0.00030
       3 <- 42         0.00025
       3 <- 47        -0.00015
       3 <- 50        -0.00010
       3 <- 53         0.00021
       4 <-  9        -0.00136
       4 <- 12        -0.00018
       4 <- 14        -0.00175
       4 <- 15        -0.00061
       4 <- 19        -0.00064
       4 <- 20         0.00033
       4 <- 21        -0.00102
       4 <- 25        -0.00092
       4 <- 26        -0.00094
       4 <- 30         0.00088
       4 <- 31         0.00090
       4 <- 34         0.00091
       4 <- 39         0.00061
       4 <- 41         0.00062
       4 <- 45        -0.00064
       4 <- 48         0.00027
       4 <- 51         0.00019
       5 <- 11        -0.00021
       5 <- 16        -0.00093
       5 <- 18        -0.00107
       5 <- 23         0.00124
       5 <- 24        -0.00191
       5 <- 29         0.00059
       5 <- 33        -0.00058
       5 <- 36        -0.00023
       5 <- 40         0.00027
       5 <- 50        -0.00018
       6 <- 27         0.00044
       6 <- 35         0.00111
       6 <- 46         0.00087
       7 <- 11         0.00038
       7 <- 16         0.00044
       7 <- 18         0.00020
       7 <- 23        -0.00024
       7 <- 29         0.00042
       7 <- 36        -0.00079
       7 <- 40         0.00024
       7 <- 42        -0.00043
       7 <- 47         0.00058
       7 <- 50         0.00053
       8 <-  9         0.00232
       8 <- 12         0.00138
       8 <- 14         0.00723
       8 <- 15         0.00186
       8 <- 19        -0.00181
       8 <- 20        -0.00216
       8 <- 21         0.00283
       8 <- 25         0.00048
       8 <- 26        -0.00070
       8 <- 30        -0.00129
       8 <- 31        -0.00112
       8 <- 38         0.00030
       8 <- 39         0.00063
       8 <- 41         0.00100
       8 <- 45        -0.00058
       8 <- 48         0.00034
       8 <- 51         0.00011

 Excited State   4:      Singlet-A1     6.6732 eV  185.80 nm  f=0.0373  <S**2>=0.000
       3 ->  9         0.00128
       3 -> 12         0.00076
       3 -> 15         0.00060
       3 -> 19         0.00133
       3 -> 20        -0.00025
       3 -> 21        -0.00037
       3 -> 25         0.00029
       3 -> 30        -0.00102
       3 -> 31        -0.00020
       3 -> 34        -0.00023
       3 -> 38        -0.00033
       3 -> 39        -0.00027
       3 -> 41        -0.00011
       3 -> 48        -0.00013
       3 -> 51        -0.00027
       3 -> 54         0.00020
       4 -> 11         0.00734
       4 -> 16         0.00815
       4 -> 18         0.00623
       4 -> 23         0.00105
       4 -> 24         0.00395
       4 -> 29         0.00069
       4 -> 33        -0.00015
       4 -> 36         0.00097
       4 -> 42        -0.00025
       4 -> 50        -0.00035
       4 -> 53        -0.00012
       5 ->  9         0.00575
       5 -> 12        -0.01080
       5 -> 14         0.00620
       5 -> 15         0.00251
       5 -> 19         0.00135
       5 -> 20        -0.00681
       5 -> 21         0.00176
       5 -> 25         0.00678
       5 -> 26        -0.00095
       5 -> 30         0.00087
       5 -> 31        -0.00083
       5 -> 34        -0.00111
       5 -> 38        -0.00038
       5 -> 39         0.00097
       5 -> 41         0.00011
       5 -> 44         0.00020
       5 -> 45        -0.00030
       5 -> 48        -0.00031
       6 -> 10         0.00683
       6 -> 13        -0.00295
       6 -> 17         0.00505
       6 -> 22         0.00389
       6 -> 28         0.00081
       6 -> 32         0.00091
       6 -> 37         0.00054
       6 -> 43         0.00044
       6 -> 49        -0.00036
       7 ->  9         0.01291
       7 -> 12         0.00554
       7 -> 14         0.00241
       7 -> 15        -0.00104
       7 -> 19         0.00827
       7 -> 20        -0.00239
       7 -> 21         0.00067
       7 -> 25         0.00182
       7 -> 26         0.00023
       7 -> 30        -0.00033
       7 -> 31         0.00070
       7 -> 34        -0.00097
       7 -> 38        -0.00011
       7 -> 39         0.00024
       7 -> 48        -0.00022
       7 -> 51         0.00040
       8 -> 11         0.70539
       8 -> 16         0.04354
       8 -> 18        -0.00584
       8 -> 23         0.00285
       8 -> 24         0.00182
       8 -> 29         0.00360
       8 -> 33         0.00158
       8 -> 36        -0.00264
       8 -> 40         0.00016
       8 -> 42         0.00150
       8 -> 47        -0.00050
       8 -> 53        -0.00010
       3 <-  9         0.00057
       3 <- 12         0.00031
       3 <- 15         0.00031
       3 <- 19         0.00076
       3 <- 21        -0.00015
       3 <- 25         0.00032
       3 <- 30        -0.00061
       3 <- 31        -0.00017
       3 <- 34        -0.00019
       3 <- 38        -0.00024
       3 <- 39        -0.00023
       3 <- 41        -0.00012
       3 <- 48        -0.00016
       3 <- 51        -0.00023
       3 <- 54         0.00018
       4 <- 11         0.00261
       4 <- 16         0.00262
       4 <- 18         0.00317
       4 <- 23         0.00096
       4 <- 24         0.00212
       4 <- 29         0.00026
       4 <- 33        -0.00027
       4 <- 36         0.00083
       4 <- 42        -0.00022
       4 <- 50        -0.00029
       4 <- 53        -0.00011
       5 <-  9         0.00600
       5 <- 12        -0.00406
       5 <- 14         0.00469
       5 <- 15         0.00231
       5 <- 19         0.00096
       5 <- 20        -0.00383
       5 <- 21         0.00040
       5 <- 25         0.00419
       5 <- 26        -0.00044
       5 <- 30         0.00021
       5 <- 31        -0.00103
       5 <- 34        -0.00090
       5 <- 38        -0.00048
       5 <- 39         0.00079
       5 <- 44         0.00026
       5 <- 45        -0.00027
       5 <- 48        -0.00025
       6 <- 10         0.00266
       6 <- 13        -0.00126
       6 <- 17         0.00244
       6 <- 22         0.00238
       6 <- 28         0.00052
       6 <- 32         0.00070
       6 <- 37         0.00044
       6 <- 43         0.00037
       6 <- 49        -0.00032
       7 <-  9         0.00454
       7 <- 12         0.00146
       7 <- 14         0.00115
       7 <- 15        -0.00040
       7 <- 19         0.00366
       7 <- 20        -0.00146
       7 <- 21         0.00016
       7 <- 25         0.00111
       7 <- 30        -0.00036
       7 <- 31         0.00044
       7 <- 34        -0.00067
       7 <- 38        -0.00016
       7 <- 39         0.00030
       7 <- 45        -0.00013
       7 <- 48        -0.00011
       7 <- 51         0.00037
       8 <- 11        -0.00422
       8 <- 16         0.00515
       8 <- 18        -0.01162
       8 <- 23        -0.00133
       8 <- 24        -0.00171
       8 <- 29         0.00195
       8 <- 33         0.00124
       8 <- 36        -0.00191
       8 <- 42         0.00121
       8 <- 47        -0.00056
       8 <- 53        -0.00012

 Excited State   5:      Singlet-A2     7.5963 eV  163.22 nm  f=0.0000  <S**2>=0.000
       3 -> 27         0.00203
       3 -> 35         0.00163
       3 -> 46         0.00076
       4 -> 10         0.00714
       4 -> 13         0.00922
       4 -> 17        -0.00141
       4 -> 22        -0.00199
       4 -> 28         0.00047
       4 -> 32         0.00221
       4 -> 37         0.00278
       4 -> 43         0.00032
       4 -> 49        -0.00011
       4 -> 52         0.00045
       5 -> 27         0.00139
       5 -> 35        -0.00080
       5 -> 46        -0.00026
       6 -> 11         0.00013
       6 -> 16        -0.00187
       6 -> 18        -0.00034
       6 -> 23         0.00149
       6 -> 24         0.00010
       6 -> 29        -0.00038
       6 -> 33         0.00011
       6 -> 36         0.00043
       6 -> 42         0.00044
       6 -> 47         0.00043
       6 -> 53         0.00019
       7 -> 27         0.00036
       7 -> 35        -0.00018
       7 -> 46         0.00081
       8 -> 10        -0.11339
       8 -> 13         0.69738
       8 -> 17         0.01221
       8 -> 22        -0.02375
       8 -> 28         0.00239
       8 -> 32         0.00186
       8 -> 37        -0.00150
       8 -> 43        -0.00017
       8 -> 49        -0.00013
       8 -> 52         0.00050
       3 <- 27         0.00128
       3 <- 35         0.00133
       3 <- 46         0.00086
       4 <- 10         0.00033
       4 <- 13         0.00045
       4 <- 17        -0.00041
       4 <- 32        -0.00039
       4 <- 37         0.00094
       4 <- 43         0.00028
       4 <- 52         0.00014
       5 <- 27         0.00196
       5 <- 35        -0.00015
       5 <- 46        -0.00032
       6 <- 11         0.00037
       6 <- 16        -0.00044
       6 <- 18        -0.00089
       6 <- 23         0.00277
       6 <- 24        -0.00080
       6 <- 29         0.00017
       6 <- 33        -0.00077
       6 <- 36         0.00145
       6 <- 42         0.00079
       6 <- 47         0.00020
       6 <- 53         0.00042
       7 <- 27         0.00057
       7 <- 35        -0.00027
       7 <- 46         0.00044
       8 <- 10        -0.00724
       8 <- 13        -0.00234
       8 <- 17        -0.00136
       8 <- 22         0.00061
       8 <- 28        -0.00030
       8 <- 32         0.00153
       8 <- 37        -0.00125
       8 <- 52         0.00019

 Excited State   6:      Singlet-B2     9.7930 eV  126.60 nm  f=0.2272  <S**2>=0.000
       3 -> 11        -0.00040

 The electronic state is 1-A1.
 Alpha  occ. eigenvalues --  -19.14009 -10.23705  -1.29028  -0.63217  -0.59037
 Alpha  occ. eigenvalues --   -0.58694  -0.52826  -0.23536
 Alpha virt. eigenvalues --    0.01381   0.02029   0.04429   0.04441   0.09821
 Alpha virt. eigenvalues --    0.14294   0.17697   0.20194   0.21827   0.23770
 Alpha virt. eigenvalues --    0.25774   0.36443   0.50294   0.53260   0.54428

 Mulliken charges:
               1
     1  C    0.251356
     2  H   -0.014462
     3  H   -0.014462
     4  O   -0.222432
 Sum of Mulliken charges =  -0.00000

 Dipole moment (field-independent basis, Debye):
    X=              0.0000    Y=              0.0000    Z=             -0.2618  Tot=              0.2618
 Quadrupole moment (field-independent basis, Debye-Ang):
   XX=            -10.6865   YY=            -12.5053   ZZ=            -13.2941
   XY=             -0.0000   XZ=             -0.0000   YZ=             -0.0000

 Normal termination of Gaussian 16 at Fri Sep 17 10:52:29 2021.
