 Gaussian 16, Revision A.03,
 Gaussian 16:  ES64L-G16RevA.03 25-Dec-2016

 --------------------------------------------------------------------
 #p B3LYP/6-311+G** #p TD=(singlets,nstates=30)IOp(6/8=3) IOp(9/40=4)
 --------------------------------------------------------------------

 -------------------------------
 Scan Step 216, Bond Length 1.58
 -------------------------------
 Symbolic Z-matrix:
 Charge =  0 Multiplicity = 1

                         Standard orientation:
 ---------------------------------------------------------------------
 Center     Atomic      Atomic             Coordinates (Angstroms)
 Number     Number       Type             X           Y           Z
 ---------------------------------------------------------------------
      1          6           0        0.000000    0.000000   -0.716081
      2          1           0        0.000000    0.937260   -1.307431
      3          1           0       -0.000000   -0.937260   -1.307431
      4          8           0        0.000000   -0.000000    0.863919
 ---------------------------------------------------------------------

 SCF Done:  E(RB3LYP) =  -114.435333891     A.U. after   10 cycles

 Excitation energies and oscillator strengths:

 Excited State   1:      Singlet-A2     2.0591 eV  602.12 nm  f=0.0000  <S**2>=0.000
       3 -> 27         0.00123
       3 -> 38         0.00092
       3 -> 46         0.00327
       4 -> 27         0.00074
       4 -> 38        -0.00014
       4 -> 46        -0.00132
       5 ->  9         0.00807
       5 -> 13         0.00088
       5 -> 18         0.00301
       5 -> 23         0.00161
       5 -> 28         0.00263
       5 -> 31        -0.00020
       5 -> 37         0.00146
       5 -> 44         0.00034
       5 -> 52         0.00036
       6 -> 27        -0.00062
       6 -> 38        -0.00078
       6 -> 46         0.00137
       7 -> 12        -0.00088
       7 -> 16         0.00468
       7 -> 19        -0.00399
       7 -> 22        -0.00074
       7 -> 25         0.00098
       7 -> 30        -0.00151
       7 -> 33         0.00037
       7 -> 49         0.00013
       7 -> 50         0.00017
       7 -> 53         0.00045
       8 ->  9         0.70838
       8 -> 13        -0.01398
       8 -> 18         0.02169
       8 -> 23        -0.00371
       8 -> 28         0.01105
       8 -> 31         0.00097
       8 -> 37         0.00064
       8 -> 48        -0.00031
       8 -> 52         0.00194
       3 <- 27         0.00059
       3 <- 38         0.00065
       3 <- 46         0.00332
       4 <- 27         0.00128
       4 <- 38         0.00023
       4 <- 46        -0.00106
       5 <-  9        -0.00028
       5 <- 13        -0.00054
       5 <- 18        -0.00071
       5 <- 23         0.00028
       5 <- 28        -0.00049
       5 <- 31         0.00037
       5 <- 37         0.00081
       5 <- 44         0.00011
       6 <- 38        -0.00064
       6 <- 46         0.00106
       7 <- 12         0.00055
       7 <- 16        -0.00997
       7 <- 19         0.00358
       7 <- 22         0.00698
       7 <- 25         0.00052
       7 <- 30         0.00522
       7 <- 33        -0.00055
       7 <- 36         0.00089
       7 <- 40         0.00052
       7 <- 42         0.00013
       7 <- 49        -0.00038
       7 <- 50         0.00010
       7 <- 53         0.00146
       8 <-  9        -0.04992
       8 <- 13         0.00056
       8 <- 18        -0.00649
       8 <- 23         0.00020
       8 <- 28        -0.00232
       8 <- 31        -0.00062
       8 <- 37        -0.00049
       8 <- 52         0.00051
 This state for optimization and/or second-order correction.
 Total Energy, E(TD-HF/TD-DFT) =  -114.359662386
 Copying the excited state density for this state as the 1-particle RhoCI density.

 Excited State   2:      Singlet-A1     5.2719 eV  235.18 nm  f=0.0808  <S**2>=0.000
       3 -> 10        -0.01420
       3 -> 11        -0.01510
       3 -> 14         0.01228
       3 -> 15         0.00833
       3 -> 17        -0.00356
       3 -> 20        -0.00380
       3 -> 21        -0.00145
       3 -> 24         0.00276
       3 -> 26         0.00431
       3 -> 29        -0.00107
       3 -> 32         0.00277
       3 -> 34         0.00271
       3 -> 35        -0.00085
       3 -> 39         0.00087
       3 -> 43         0.00043
       3 -> 45        -0.00012
       3 -> 47         0.00224
       3 -> 51         0.00097
       3 -> 54         0.00021
       4 -> 10        -0.01374
       4 -> 11         0.01185
       4 -> 14         0.00695
       4 -> 15        -0.00965
       4 -> 17         0.00318
       4 -> 20         0.00572
       4 -> 21         0.00040
       4 -> 24        -0.00526
       4 -> 26         0.00521
       4 -> 29         0.00112
       4 -> 32        -0.00131
       4 -> 34        -0.00189
       4 -> 35         0.00033
       4 -> 39        -0.00011
       4 -> 41         0.00013
       4 -> 43        -0.00042
       4 -> 45        -0.00074
       4 -> 47        -0.00132
       4 -> 51        -0.00031
       5 -> 12         0.01837
       5 -> 16         0.01248
       5 -> 19         0.00152
       5 -> 22         0.00721
       5 -> 25         0.00874
       5 -> 30        -0.00044
       5 -> 33        -0.00313
       5 -> 36         0.00271
       5 -> 40         0.00152
       5 -> 42         0.00063
       5 -> 49         0.00049
       5 -> 50        -0.00066
       5 -> 53        -0.00015
       6 -> 10         0.12190
       6 -> 11         0.11167
       6 -> 14        -0.09596
       6 -> 15        -0.07795
       6 -> 17        -0.02035
       6 -> 20        -0.01291
       6 -> 21         0.01501
       6 -> 24        -0.01501
       6 -> 26        -0.00736
       6 -> 29        -0.00833
       6 -> 32         0.00062
       6 -> 34         0.00153
       6 -> 35        -0.00090
       6 -> 39         0.00078
       6 -> 41        -0.00046
       6 -> 43         0.00079
       6 -> 45         0.00075
       6 -> 47         0.00135
       6 -> 51         0.00083
       6 -> 54        -0.00062
       7 ->  9         0.68472
       7 -> 13         0.00232
       7 -> 18        -0.01941
       7 -> 23         0.00060
       7 -> 28        -0.00178
       7 -> 31        -0.00294
       7 -> 37         0.00081
       7 -> 44        -0.00106
       7 -> 48         0.00044
       7 -> 52         0.00104
       8 -> 12        -0.00691
       8 -> 16         0.07484
       8 -> 19        -0.02480
       8 -> 22        -0.02857
       8 -> 25         0.00080
       8 -> 30        -0.01250
       8 -> 33         0.00252
       8 -> 36        -0.00308
       8 -> 40        -0.00146
       8 -> 42        -0.00035
       8 -> 49         0.00061
       8 -> 50         0.00025
       8 -> 53        -0.00074
       3 <- 10        -0.00933
       3 <- 11        -0.01043
       3 <- 14         0.00899
       3 <- 15         0.00561
       3 <- 17        -0.00181
       3 <- 20        -0.00268
       3 <- 21        -0.00170
       3 <- 24         0.00175
       3 <- 26         0.00261
       3 <- 29        -0.00063
       3 <- 32         0.00254
       3 <- 34         0.00177
       3 <- 35        -0.00074
       3 <- 39         0.00076
       3 <- 43         0.00052
       3 <- 47         0.00236
       3 <- 51         0.00094
       3 <- 54         0.00031
       4 <- 10        -0.00678
       4 <- 11         0.00734
       4 <- 14         0.00346
       4 <- 15        -0.00569
       4 <- 17         0.00157
       4 <- 20         0.00463
       4 <- 21         0.00031
       4 <- 24        -0.00354
       4 <- 26         0.00406
       4 <- 29         0.00029
       4 <- 32        -0.00163
       4 <- 34        -0.00166
       4 <- 35         0.00055
       4 <- 39        -0.00018
       4 <- 43        -0.00041
       4 <- 45        -0.00088
       4 <- 47        -0.00092
       4 <- 51        -0.00015
       5 <- 12         0.00792
       5 <- 16         0.00620
       5 <- 19         0.00104
       5 <- 22         0.00438
       5 <- 25         0.00583
       5 <- 30        -0.00017
       5 <- 33        -0.00240
       5 <- 36         0.00220
       5 <- 40         0.00132
       5 <- 42         0.00051
       5 <- 49         0.00043
       5 <- 50        -0.00060
       5 <- 53        -0.00014
       6 <- 10         0.03498
       6 <- 11         0.03425
       6 <- 14        -0.03663
       6 <- 15        -0.03234
       6 <- 17        -0.00958
       6 <- 20        -0.00778
       6 <- 21         0.00854
       6 <- 24        -0.00901
       6 <- 26        -0.00432
       6 <- 29        -0.00565
       6 <- 32         0.00109
       6 <- 34         0.00186
       6 <- 35        -0.00095
       6 <- 39         0.00086
       6 <- 41        -0.00032
       6 <- 43         0.00068
       6 <- 45         0.00072
       6 <- 47         0.00087
       6 <- 51         0.00066
       6 <- 54        -0.00052
       7 <-  9        -0.12247
       7 <- 13         0.00795
       7 <- 18        -0.01406
       7 <- 23         0.00388
       7 <- 28        -0.00412
       7 <- 31        -0.00131
       7 <- 37         0.00026
       7 <- 44        -0.00061
       7 <- 48        -0.00014
       7 <- 52         0.00091
       8 <- 12        -0.00147
       8 <- 16         0.02516
       8 <- 19        -0.01020
       8 <- 22        -0.01508
       8 <- 25         0.00021
       8 <- 30        -0.00889
       8 <- 33         0.00186
       8 <- 36        -0.00233
       8 <- 40        -0.00117
       8 <- 42        -0.00028
       8 <- 49         0.00041
       8 <- 50         0.00020
       8 <- 53        -0.00067

 Excited State   3:      Singlet-B1     5.5563 eV  223.14 nm  f=0.0014  <S**2>=0.000
       3 ->  9        -0.02946
       3 -> 13         0.00187
       3 -> 18        -0.00483
       3 -> 23         0.00190
       3 -> 28        -0.00102
       3 -> 31        -0.00048
       3 -> 44         0.00025
       3 -> 48         0.00093
       3 -> 52         0.00098
       4 ->  9         0.01390
       4 -> 13        -0.00269
       4 -> 18         0.00030
       4 -> 23        -0.00244
       4 -> 28         0.00022
       4 -> 31        -0.00158
       4 -> 37        -0.00042
       4 -> 44         0.00012
       4 -> 48        -0.00115
       4 -> 52        -0.00062
       5 -> 27        -0.00023
       5 -> 38         0.00201
       5 -> 46         0.00101
       6 ->  9         0.70554
       6 -> 13        -0.02075
       6 -> 18         0.01719
       6 -> 23        -0.01109
       6 -> 28         0.00445
       6 -> 31         0.00338
       6 -> 37        -0.00223
       6 -> 44        -0.00294
       6 -> 48         0.00425
       6 -> 52         0.00149
       7 -> 10         0.02864
       7 -> 11         0.02348
       7 -> 14        -0.01564
       7 -> 15        -0.00759
       7 -> 17        -0.00931
       7 -> 20         0.00280
       7 -> 24        -0.00044
       7 -> 26        -0.00138
       7 -> 29        -0.00398
       7 -> 32        -0.00070
       7 -> 34         0.00060
       7 -> 35         0.00182
       7 -> 39         0.00013
       7 -> 41        -0.00063
       7 -> 43         0.00057
       7 -> 45        -0.00071
       7 -> 47         0.00431
       7 -> 51         0.00117
       7 -> 54         0.00044
       8 -> 27         0.00061
       8 -> 38         0.00014
       8 -> 46         0.00547
       3 <-  9        -0.00983
       3 <- 13        -0.00056
       3 <- 18        -0.00296
       3 <- 23        -0.00051
       3 <- 28        -0.00066
       3 <- 31        -0.00065
       3 <- 44        -0.00026
       3 <- 48         0.00112
       3 <- 52         0.00078
       4 <-  9         0.00672
       4 <- 13        -0.00022
       4 <- 18         0.00201
       4 <- 23        -0.00056
       4 <- 28         0.00170
       4 <- 31        -0.00108
       4 <- 37        -0.00020
       4 <- 44         0.00011
       4 <- 48        -0.00099
       4 <- 52        -0.00035
       5 <- 27        -0.00076
       5 <- 38         0.00162
       5 <- 46         0.00090
       6 <-  9        -0.02472
       6 <- 13         0.00171
       6 <- 18        -0.00320
       6 <- 23        -0.00028
       6 <- 28        -0.00331
       6 <- 31         0.00135
       6 <- 37        -0.00196
       6 <- 44        -0.00162
       6 <- 48         0.00380
       6 <- 52         0.00051
       7 <- 10        -0.01283
       7 <- 11        -0.01240
       7 <- 14         0.01385
       7 <- 15         0.01386
       7 <- 17         0.00129
       7 <- 20         0.00519
       7 <- 21        -0.00452
       7 <- 24         0.00455
       7 <- 26         0.00182
       7 <- 29         0.00101
       7 <- 32        -0.00028
       7 <- 34         0.00044
       7 <- 35         0.00279
       7 <- 39         0.00043
       7 <- 41        -0.00027
       7 <- 43         0.00044
       7 <- 45        -0.00081
       7 <- 47         0.00392
       7 <- 51         0.00102
       7 <- 54         0.00108
       8 <- 27         0.00105
       8 <- 38         0.00032
       8 <- 46         0.00508

 Excited State   4:      Singlet-B2     6.2681 eV  197.80 nm  f=0.0160  <S**2>=0.000
       3 -> 12        -0.00160
       3 -> 16         0.00185
       3 -> 19        -0.00435
       3 -> 22         0.00041
       3 -> 25         0.00025
       3 -> 30        -0.00327
       3 -> 33        -0.00032
       3 -> 36         0.00212
       3 -> 40         0.00171
       3 -> 42         0.00019
       3 -> 49        -0.00245
       3 -> 50         0.00022
       3 -> 53         0.00028
       4 -> 12         0.00045
       4 -> 16        -0.00282
       4 -> 19        -0.00010
       4 -> 22         0.00328
       4 -> 25        -0.00223
       4 -> 30         0.00142
       4 -> 33        -0.00047
       4 -> 36         0.00052
       4 -> 40        -0.00051
       4 -> 49         0.00037
       4 -> 50        -0.00011
       5 -> 10         0.00438
       5 -> 11         0.00583
       5 -> 14        -0.01358
       5 -> 15         0.00235
       5 -> 17         0.00100
       5 -> 20         0.00196
       5 -> 21         0.00650
       5 -> 24         0.00189
       5 -> 26        -0.00197
       5 -> 29        -0.00198
       5 -> 32        -0.00131
       5 -> 34        -0.00130
       5 -> 35        -0.00057
       5 -> 39        -0.00097
       5 -> 41         0.00078
       5 -> 45         0.00022
       5 -> 47        -0.00084
       5 -> 51         0.00050
       5 -> 54        -0.00023
       6 -> 12         0.00337
       6 -> 16        -0.00149
       6 -> 19         0.00273
       6 -> 25        -0.00078
       6 -> 30        -0.00056
       6 -> 33         0.00040
       6 -> 36        -0.00218
       6 -> 40        -0.00173
       6 -> 42        -0.00032
       6 -> 49         0.00153
       6 -> 53        -0.00032
       7 -> 27        -0.00063
       7 -> 38         0.00093
       7 -> 46         0.00353
       8 -> 10         0.62754
       8 -> 11         0.29386
       8 -> 14        -0.12095
       8 -> 15        -0.07079
       8 -> 17        -0.01180
       8 -> 20        -0.00272
       8 -> 21         0.00603
       8 -> 24        -0.00612
       8 -> 26        -0.00557
       8 -> 29        -0.00925
       8 -> 32        -0.00256
       8 -> 34        -0.00172
       8 -> 35        -0.00058
       8 -> 39        -0.00055
       8 -> 41         0.00035
       8 -> 43        -0.00052
       8 -> 45         0.00199
       8 -> 47        -0.00400
       8 -> 51         0.00214
       8 -> 54        -0.00145
       3 <- 12        -0.00057
       3 <- 16         0.00045
       3 <- 19        -0.00205
       3 <- 22         0.00086
       3 <- 25         0.00028
       3 <- 30        -0.00130
       3 <- 33        -0.00028
       3 <- 36         0.00167
       3 <- 40         0.00153
       3 <- 42         0.00017
       3 <- 49        -0.00252
       3 <- 50         0.00019
       3 <- 53         0.00080
       4 <- 12        -0.00029
       4 <- 16        -0.00241
       4 <- 19        -0.00035
       4 <- 22         0.00280
       4 <- 25        -0.00138
       4 <- 30         0.00120
       4 <- 33        -0.00055
       4 <- 36         0.00071
       4 <- 40        -0.00016
       4 <- 42         0.00013
       4 <- 49         0.00028
       5 <- 10         0.00073
       5 <- 11        -0.00157
       5 <- 14        -0.00227
       5 <- 15         0.00384
       5 <- 17         0.00024
       5 <- 20         0.00046
       5 <- 21         0.00210
       5 <- 24         0.00269
       5 <- 26        -0.00064
       5 <- 29        -0.00051
       5 <- 32         0.00018
       5 <- 34        -0.00036
       5 <- 39        -0.00032
       5 <- 41         0.00077
       5 <- 43         0.00012
       5 <- 45         0.00052
       5 <- 47        -0.00065
       5 <- 51         0.00027
       6 <- 12         0.00012
       6 <- 16         0.00492
       6 <- 19        -0.00221
       6 <- 22        -0.00354
       6 <- 25        -0.00042
       6 <- 30        -0.00427
       6 <- 33         0.00066
       6 <- 36        -0.00218
       6 <- 40        -0.00171
       6 <- 42        -0.00038
       6 <- 49         0.00161
       6 <- 53        -0.00094
       7 <- 27        -0.00062
       7 <- 38         0.00072
       7 <- 46         0.00290
       8 <- 10        -0.01122
       8 <- 11        -0.01148
       8 <- 14         0.01122
       8 <- 15         0.00542
       8 <- 17         0.00026
       8 <- 20        -0.00221
       8 <- 21        -0.00236
       8 <- 24         0.00113
       8 <- 26         0.00203
       8 <- 29        -0.00085
       8 <- 32         0.00210
       8 <- 34         0.00140
       8 <- 35        -0.00010
       8 <- 39         0.00140
       8 <- 41         0.00059
       8 <- 43         0.00020
       8 <- 45         0.00251
       8 <- 47        -0.00287
       8 <- 51         0.00128
       8 <- 54        -0.00035

 Excited State   5:      Singlet-B2     7.0666 eV  175.45 nm  f=0.0026  <S**2>=0.000
       3 -> 12         0.00143
       3 -> 16         0.00155
       3 -> 19        -0.00095
       3 -> 22        -0.00037
       3 -> 25         0.00095
       3 -> 30        -0.00243
       3 -> 36         0.00053
       3 -> 40         0.00049
       3 -> 49        -0.00074
       4 -> 12        -0.00133
       4 -> 16         0.00057
       4 -> 19         0.00094
       4 -> 22        -0.00083
       4 -> 25         0.00063
       4 -> 30         0.00129
       4 -> 33        -0.00018
       4 -> 36         0.00036
       4 -> 50        -0.00011
       5 -> 10         0.00770
       5 -> 11        -0.00251
       5 -> 14         0.00176
       5 -> 15         0.00567
       5 -> 17         0.00101
       5 -> 20         0.00185
       5 -> 21         0.00027
       5 -> 24        -0.00034
       5 -> 26        -0.00039
       5 -> 29        -0.00049
       5 -> 32        -0.00153
       5 -> 34         0.00027
       5 -> 35        -0.00038
       5 -> 39        -0.00060
       5 -> 41        -0.00012
       5 -> 43        -0.00033
       5 -> 45         0.00033
       5 -> 47        -0.00040
       5 -> 51         0.00028
       6 -> 12        -0.00147
       6 -> 16        -0.00032
       6 -> 19         0.00043
       6 -> 22        -0.00099
       6 -> 25         0.00013
       6 -> 30        -0.00082
       6 -> 36        -0.00015
       6 -> 40        -0.00063
       6 -> 42        -0.00021
       6 -> 49         0.00127
       6 -> 50        -0.00011
       6 -> 53        -0.00011
       7 -> 27        -0.00063
       7 -> 38        -0.00020
       7 -> 46         0.00181
       8 -> 10        -0.30438
       8 -> 11         0.63674
       8 -> 14        -0.01038
       8 -> 15        -0.03811
       8 -> 17        -0.00562
       8 -> 20         0.01517
       8 -> 21         0.00397
       8 -> 24        -0.00356
       8 -> 26         0.00141
       8 -> 29        -0.00304
       8 -> 32        -0.00055

 The electronic state is 1-A1.
 Alpha  occ. eigenvalues --  -19.17132 -10.32469  -0.93364  -0.69445  -0.48834
 Alpha  occ. eigenvalues --   -0.41842  -0.33355  -0.28981
 Alpha virt. eigenvalues --   -0.14207  -0.01027   0.01476   0.04096   0.06133
 Alpha virt. eigenvalues --    0.09398   0.13313   0.14589   0.18944   0.21443
 Alpha virt. eigenvalues --    0.23954   0.30136   0.39235   0.41330   0.50953

 Mulliken charges:
               1
     1  C   -0.057070
     2  H    0.177141
     3  H    0.177141
     4  O   -0.297212
 Sum of Mulliken charges =  -0.00000

 Dipole moment (field-independent basis, Debye):
    X=             -0.0000    Y=              0.0000    Z=             -3.7103  Tot=              3.7103
 Quadrupole moment (field-independent basis, Debye-Ang):
   XX=            -12.6946   YY=            -11.8736   ZZ=            -11.3725
   XY=              0.0000   XZ=              0.0000   YZ=              0.0000

 Normal termination of Gaussian 16 at Fri Sep 17 10:52:59 2021.
