 Gaussian 16, Revision C.01,
 Gaussian 16:  ES64L-G16RevC.01  3-Jul-2019

 ---------------------------------------
 #P wB97XD/6-311+G* NoSymm #P Field=Z-48
 ---------------------------------------

 -------
 TitleMe
 -------
 Symbolic Z-matrix:
 Charge =  1 Multiplicity = 1

                          Input orientation:
 ---------------------------------------------------------------------
 Center     Atomic      Atomic             Coordinates (Angstroms)
 Number     Number       Type             X           Y           Z
 ---------------------------------------------------------------------
      1          6           0        0.519300    1.233000   -0.031900
      2          6           0        1.944500    1.269200   -0.036700
      3          6           0        2.620400    0.092800   -0.025000
      4          6           0       -0.196000    0.030100    0.001000
      5          1           0       -0.020700    2.174200   -0.043400
      6          1           0        2.482800    2.208900   -0.036100
      7          1           0       -1.277700    0.039900    0.011700
      8          7           0        4.092100    0.095900    0.036600
      9          8           0        4.639300   -1.021700    0.144600
     10          8           0        4.664900    1.198400   -0.023300
     11          6           0        0.494300   -1.167100    0.021000
     12          1           0       -0.032500   -2.114900    0.054500
     13          6           0        1.962900   -1.216500   -0.021100
     14          1           0        2.443600   -1.963100    0.615100
     15         35           0        2.173000   -1.949100   -1.906200
 ---------------------------------------------------------------------

 SCF Done:  E(RwB97XD) =  -3010.53129973     A.U. after   19 cycles

 Alpha  occ. eigenvalues -- -483.31833 -62.86866 -56.66547 -56.65994 -56.65985
 Alpha  occ. eigenvalues --  -19.46303 -19.46279 -14.85733 -10.59407 -10.58377
 Alpha  occ. eigenvalues --  -10.57494 -10.57207 -10.53560 -10.52910  -9.02678
 Alpha  occ. eigenvalues --   -6.85325  -6.83507  -6.83480  -2.95237  -2.94757
 Alpha  occ. eigenvalues --   -2.94735  -2.93280  -2.93279  -1.49985  -1.32941
 Alpha  occ. eigenvalues --   -1.22661  -1.13135  -1.12680  -1.05234  -1.00542
 Alpha  occ. eigenvalues --   -0.95563  -0.90755  -0.85063  -0.81036  -0.80299
 Alpha  occ. eigenvalues --   -0.80166  -0.78074  -0.76294  -0.75768  -0.72304
 Alpha  occ. eigenvalues --   -0.68725  -0.67760  -0.63705  -0.60219  -0.57498
 Alpha  occ. eigenvalues --   -0.57165  -0.56700  -0.56004  -0.55055
 Alpha virt. eigenvalues --   -0.30377  -0.20507  -0.16158  -0.13210  -0.09002
 Alpha virt. eigenvalues --   -0.06371  -0.06250  -0.05664  -0.03980  -0.03241
 Alpha virt. eigenvalues --   -0.03100  -0.02426  -0.01873  -0.00906  -0.00644

 Mulliken charges:
               1
     1  C   -0.096984
     2  C    0.164637
     3  C   -0.082390
     4  C   -0.336659
     5  H    0.346497
     6  H    0.351371
     7  H    0.332297
     8  N   -0.230417
     9  O    0.088831
    10  O    0.070582
    11  C   -0.189392
    12  H    0.358436
    13  C   -0.339581
    14  H    0.426707
    15  Br   0.136066
 Sum of Mulliken charges =   1.00000

 Dipole moment (field-independent basis, Debye):
    X=              2.7146    Y=             -0.7149    Z=              0.1096  Tot=              2.8093
 Quadrupole moment (field-independent basis, Debye-Ang):
   XX=            -67.8361   YY=            -51.4456   ZZ=            -63.2872
   XY=             -2.5886   XZ=             -0.7868   YZ=              1.6168

 Normal termination of Gaussian 16 at Thu May  2 14:18:48 2024.
