 Gaussian 16, Revision A.03,
 Gaussian 16:  ES64L-G16RevA.03 25-Dec-2016

 --------------------------------------------------------------------
 #p B3LYP/6-311+G** #p TD=(singlets,nstates=30)IOp(6/8=3) IOp(9/40=4)
 --------------------------------------------------------------------

 --------------------------------
 Scan Step 263, Bond Length 1.815
 --------------------------------
 Symbolic Z-matrix:
 Charge =  0 Multiplicity = 1

                         Standard orientation:
 ---------------------------------------------------------------------
 Center     Atomic      Atomic             Coordinates (Angstroms)
 Number     Number       Type             X           Y           Z
 ---------------------------------------------------------------------
      1          6           0        0.000000    0.000000   -0.833581
      2          1           0        0.000000    0.937260   -1.424931
      3          1           0       -0.000000   -0.937260   -1.424931
      4          8           0        0.000000   -0.000000    0.981419
 ---------------------------------------------------------------------

 SCF Done:  E(RB3LYP) =  -114.351644334     A.U. after   11 cycles

 Excitation energies and oscillator strengths:

 Excited State   1:      Singlet-A2     1.3307 eV  931.75 nm  f=0.0000  <S**2>=0.000
       3 -> 27         0.00074
       3 -> 38         0.00047
       3 -> 46         0.00335
       4 -> 27         0.00040
       4 -> 46        -0.00099
       5 ->  9         0.00204
       5 -> 13         0.00111
       5 -> 18         0.00178
       5 -> 23         0.00140
       5 -> 28         0.00139
       5 -> 37         0.00078
       5 -> 44         0.00022
       5 -> 52         0.00019
       6 -> 27        -0.00058
       6 -> 38        -0.00058
       6 -> 46         0.00097
       7 -> 12        -0.00125
       7 -> 16         0.00527
       7 -> 19        -0.00463
       7 -> 22        -0.00111
       7 -> 25        -0.00059
       7 -> 29        -0.00189
       7 -> 33         0.00028
       7 -> 49         0.00013
       7 -> 53         0.00039
       8 ->  9         0.71062
       8 -> 13        -0.00720
       8 -> 18         0.02089
       8 -> 23        -0.00111
       8 -> 28         0.01037
       8 -> 31         0.00159
       8 -> 37         0.00050
       8 -> 48        -0.00030
       8 -> 52         0.00187
       3 <- 27         0.00022
       3 <- 38         0.00025
       3 <- 46         0.00338
       4 <- 27         0.00075
       4 <- 38         0.00020
       4 <- 46        -0.00077
       5 <-  9         0.00031
       5 <- 13        -0.00035
       5 <- 18        -0.00040
       5 <- 23         0.00017
       5 <- 28        -0.00029
       5 <- 31         0.00023
       5 <- 37         0.00045
       6 <- 38        -0.00044
       6 <- 46         0.00072
       7 <- 12         0.00171
       7 <- 16        -0.01054
       7 <- 19         0.00544
       7 <- 22         0.00584
       7 <- 25        -0.00063
       7 <- 29         0.00560
       7 <- 33        -0.00035
       7 <- 35         0.00020
       7 <- 40        -0.00013
       7 <- 42        -0.00012
       7 <- 49        -0.00048
       7 <- 53         0.00145
       8 <-  9        -0.07335
       8 <- 13        -0.00037
       8 <- 18        -0.00765
       8 <- 23        -0.00030
       8 <- 28        -0.00274
       8 <- 31        -0.00080
       8 <- 37        -0.00022
       8 <- 48         0.00013
       8 <- 52         0.00045
 This state for optimization and/or second-order correction.
 Total Energy, E(TD-HF/TD-DFT) =  -114.302743476
 Copying the excited state density for this state as the 1-particle RhoCI density.

 Excited State   2:      Singlet-A1     3.5005 eV  354.19 nm  f=0.0336  <S**2>=0.000
       3 -> 10        -0.01525
       3 -> 11        -0.00350
       3 -> 14         0.00187
       3 -> 15         0.00060
       3 -> 17        -0.00312
       3 -> 20        -0.00362
       3 -> 21         0.00037
       3 -> 24         0.00065
       3 -> 26         0.00151
       3 -> 30        -0.00074
       3 -> 32         0.00277
       3 -> 34        -0.00114
       3 -> 36        -0.00102
       3 -> 39         0.00045
       3 -> 43         0.00053
       3 -> 45        -0.00091
       3 -> 47         0.00231
       3 -> 50         0.00152
       4 -> 10        -0.00208
       4 -> 11         0.01082
       4 -> 14         0.00207
       4 -> 15        -0.00797
       4 -> 17         0.00231
       4 -> 20         0.00235
       4 -> 21         0.00029
       4 -> 24        -0.00388
       4 -> 26         0.00347
       4 -> 30         0.00042
       4 -> 32        -0.00126
       4 -> 34         0.00084
       4 -> 36         0.00016
       4 -> 39         0.00018
       4 -> 43        -0.00048
       4 -> 45         0.00078
       4 -> 47        -0.00081
       4 -> 50        -0.00028
       4 -> 54         0.00015
       5 -> 12         0.01021
       5 -> 16         0.00321
       5 -> 19         0.00120
       5 -> 22         0.00696
       5 -> 25        -0.00490
       5 -> 29         0.00033
       5 -> 33        -0.00247
       5 -> 35         0.00275
       5 -> 40        -0.00104
       5 -> 42        -0.00096
       5 -> 49         0.00017
       5 -> 51        -0.00084
       6 -> 10         0.24589
       6 -> 11         0.04096
       6 -> 14        -0.04637
       6 -> 15        -0.02496
       6 -> 17        -0.01616
       6 -> 20        -0.00213
       6 -> 21         0.00605
       6 -> 24        -0.00840
       6 -> 26        -0.00346
       6 -> 30        -0.00461
       6 -> 32         0.00371
       6 -> 34        -0.00139
       6 -> 36         0.00042
       6 -> 39         0.00131
       6 -> 41        -0.00013
       6 -> 43         0.00083
       6 -> 45        -0.00086
       6 -> 47         0.00082
       6 -> 50         0.00059
       6 -> 54        -0.00095
       7 ->  9         0.67672
       7 -> 13        -0.00648
       7 -> 18        -0.01102
       7 -> 23        -0.00247
       7 -> 28         0.00107
       7 -> 31        -0.00327
       7 -> 37         0.00130
       7 -> 44        -0.00097
       7 -> 48         0.00010
       7 -> 52         0.00106
       8 -> 12        -0.00762
       8 -> 16         0.03891
       8 -> 19        -0.01902
       8 -> 22        -0.01361
       8 -> 29        -0.00832
       8 -> 33         0.00104
       8 -> 35        -0.00083
       8 -> 40         0.00033
       8 -> 42         0.00028
       8 -> 49         0.00015
       8 -> 51         0.00015
       8 -> 53        -0.00052
       3 <- 10        -0.01186
       3 <- 11        -0.00308
       3 <- 14         0.00156
       3 <- 17        -0.00177
       3 <- 20        -0.00308
       3 <- 24         0.00012
       3 <- 26         0.00055
       3 <- 30        -0.00029
       3 <- 32         0.00243
       3 <- 34        -0.00060
       3 <- 36        -0.00101
       3 <- 39         0.00041
       3 <- 43         0.00059
       3 <- 45        -0.00105
       3 <- 47         0.00232
       3 <- 50         0.00152
       4 <- 10        -0.00021
       4 <- 11         0.00782
       4 <- 14         0.00154
       4 <- 15        -0.00541
       4 <- 17         0.00138
       4 <- 20         0.00274
       4 <- 21         0.00012
       4 <- 24        -0.00294
       4 <- 26         0.00304
       4 <- 30        -0.00018
       4 <- 32        -0.00136
       4 <- 34         0.00071
       4 <- 36         0.00045
       4 <- 39         0.00020
       4 <- 43        -0.00043
       4 <- 45         0.00073
       4 <- 47        -0.00049
       4 <- 50        -0.00015
       4 <- 54         0.00012
       5 <- 12         0.00601
       5 <- 16         0.00209
       5 <- 19         0.00095
       5 <- 22         0.00496
       5 <- 25        -0.00379
       5 <- 29         0.00035
       5 <- 33        -0.00205
       5 <- 35         0.00236
       5 <- 40        -0.00094
       5 <- 42        -0.00085
       5 <- 49         0.00016
       5 <- 51        -0.00079
       6 <- 10         0.08347
       6 <- 11         0.01671
       6 <- 14        -0.02214
       6 <- 15        -0.01313
       6 <- 17        -0.00961
       6 <- 20        -0.00261
       6 <- 21         0.00416
       6 <- 24        -0.00554
       6 <- 26        -0.00181
       6 <- 30        -0.00310
       6 <- 32         0.00367
       6 <- 34        -0.00156
       6 <- 39         0.00119
       6 <- 41        -0.00012
       6 <- 43         0.00069
       6 <- 45        -0.00064
       6 <- 47         0.00047
       6 <- 50         0.00045
       6 <- 54        -0.00086
       7 <-  9        -0.13092
       7 <- 13         0.00370
       7 <- 18        -0.01158
       7 <- 23         0.00100
       7 <- 28        -0.00187
       7 <- 31        -0.00159
       7 <- 37         0.00061
       7 <- 44        -0.00077
       7 <- 48        -0.00041
       7 <- 52         0.00097
       8 <- 12        -0.00303
       8 <- 16         0.01907
       8 <- 19        -0.01078
       8 <- 22        -0.00889
       8 <- 25         0.00012
       8 <- 29        -0.00663
       8 <- 33         0.00082
       8 <- 35        -0.00065
       8 <- 40         0.00026
       8 <- 42         0.00022
       8 <- 51         0.00013
       8 <- 53        -0.00049

 Excited State   3:      Singlet-B2     3.8866 eV  319.00 nm  f=0.0029  <S**2>=0.000
       3 -> 12        -0.00126
       3 -> 16         0.00140
       3 -> 19        -0.00406
       3 -> 22         0.00103
       3 -> 25        -0.00086
       3 -> 29        -0.00271
       3 -> 33         0.00019
       3 -> 35         0.00153
       3 -> 40        -0.00138
       3 -> 42        -0.00052
       3 -> 49        -0.00378
       3 -> 51         0.00018
       3 -> 53         0.00028
       4 -> 12         0.00041
       4 -> 16        -0.00160
       4 -> 19         0.00039
       4 -> 22         0.00190
       4 -> 25         0.00073
       4 -> 29         0.00098
       4 -> 33        -0.00035
       4 -> 35         0.00045
       4 -> 40         0.00031
       4 -> 42         0.00012
       4 -> 49         0.00072
       4 -> 51        -0.00011
       5 -> 10         0.01044
       5 -> 11         0.00154
       5 -> 14        -0.00402
       5 -> 15         0.00343
       5 -> 17        -0.00048
       5 -> 20         0.00202
       5 -> 21         0.00340
       5 -> 24         0.00149
       5 -> 26        -0.00065
       5 -> 30        -0.00207
       5 -> 32        -0.00149
       5 -> 34         0.00034
       5 -> 39        -0.00072
       5 -> 41         0.00045
       5 -> 47        -0.00045
       5 -> 50         0.00029
       5 -> 54        -0.00020
       6 -> 12         0.00253
       6 -> 16        -0.00268
       6 -> 19         0.00407
       6 -> 22        -0.00059
       6 -> 25         0.00111
       6 -> 35        -0.00135
       6 -> 40         0.00094
       6 -> 42         0.00067
       6 -> 49         0.00131
       6 -> 53        -0.00045
       7 -> 27        -0.00057
       7 -> 38         0.00039
       7 -> 46         0.00320
       8 -> 10         0.70135
       8 -> 11         0.06865
       8 -> 14        -0.06231
       8 -> 15        -0.02478
       8 -> 17        -0.01647
       8 -> 20         0.00419
       8 -> 21         0.00640
       8 -> 24        -0.00608
       8 -> 26        -0.00468
       8 -> 30        -0.01274
       8 -> 32        -0.00221
       8 -> 34         0.00131
       8 -> 36         0.00126
       8 -> 39        -0.00059
       8 -> 41        -0.00014
       8 -> 45        -0.00088
       8 -> 47        -0.00395
       8 -> 50         0.00158
       8 -> 54        -0.00239
       3 <- 12        -0.00045
       3 <- 16         0.00047
       3 <- 19        -0.00199
       3 <- 22         0.00094
       3 <- 25        -0.00077
       3 <- 29        -0.00109
       3 <- 33         0.00019
       3 <- 35         0.00104
       3 <- 40        -0.00119
       3 <- 42        -0.00038
       3 <- 49        -0.00384
       3 <- 51         0.00017
       3 <- 53         0.00076
       4 <- 16        -0.00178
       4 <- 19         0.00018
       4 <- 22         0.00218
       4 <- 25         0.00043
       4 <- 29         0.00117
       4 <- 33        -0.00038
       4 <- 35         0.00065
       4 <- 40         0.00013
       4 <- 49         0.00051
       5 <- 10        -0.00090
       5 <- 11        -0.00075
       5 <- 14        -0.00052
       5 <- 15         0.00267
       5 <- 17         0.00020
       5 <- 20         0.00077
       5 <- 21         0.00172
       5 <- 24         0.00172
       5 <- 26        -0.00016
       5 <- 30        -0.00044
       5 <- 32        -0.00031
       5 <- 39        -0.00031
       5 <- 41         0.00048
       5 <- 45        -0.00024
       5 <- 47        -0.00045
       5 <- 50         0.00015
       6 <- 12        -0.00066
       6 <- 16         0.00753
       6 <- 19        -0.00394
       6 <- 22        -0.00511
       6 <- 25         0.00115
       6 <- 29        -0.00599
       6 <- 33         0.00025
       6 <- 35        -0.00121
       6 <- 40         0.00095
       6 <- 42         0.00071
       6 <- 49         0.00177
       6 <- 53        -0.00139
       7 <- 27        -0.00056
       7 <- 38         0.00031
       7 <- 46         0.00274
       8 <- 10        -0.03968
       8 <- 11        -0.00775
       8 <- 14         0.00814
       8 <- 15         0.00231
       8 <- 17         0.00173
       8 <- 20        -0.00314
       8 <- 21        -0.00147
       8 <- 24         0.00157
       8 <- 26         0.00132
       8 <- 30         0.00119
       8 <- 32         0.00298
       8 <- 34        -0.00089
       8 <- 36        -0.00074
       8 <- 39         0.00118
       8 <- 41         0.00025
       8 <- 43         0.00045
       8 <- 45        -0.00164
       8 <- 47        -0.00324
       8 <- 50         0.00123
       8 <- 54        -0.00065

 Excited State   4:      Singlet-B1     3.9710 eV  312.22 nm  f=0.0004  <S**2>=0.000
       3 ->  9        -0.02358
       3 -> 13         0.00091
       3 -> 18        -0.00378
       3 -> 23         0.00126
       3 -> 28        -0.00092
       3 -> 31        -0.00073
       3 -> 37         0.00014
       3 -> 44         0.00033
       3 -> 48         0.00042
       3 -> 52         0.00074
       4 ->  9         0.00730
       4 -> 13        -0.00170
       4 -> 18         0.00015
       4 -> 23        -0.00154
       4 -> 28         0.00052
       4 -> 31        -0.00121
       4 -> 37        -0.00026
       4 -> 48        -0.00053
       4 -> 52        -0.00032
       5 -> 27        -0.00023
       5 -> 38         0.00153
       5 -> 46         0.00047
       6 ->  9         0.66493
       6 -> 13        -0.01680
       6 -> 18         0.01413
       6 -> 23        -0.01005
       6 -> 28         0.00361
       6 -> 31         0.00215
       6 -> 37        -0.00145
       6 -> 44        -0.00181
       6 -> 48         0.00337
       6 -> 52         0.00097
       7 -> 10         0.24361
       7 -> 11         0.02746
       7 -> 14        -0.02621
       7 -> 15        -0.00897
       7 -> 17        -0.01006
       7 -> 20         0.00378
       7 -> 21         0.00175
       7 -> 24        -0.00297
       7 -> 26        -0.00302
       7 -> 30        -0.00498
       7 -> 32         0.00017
       7 -> 34        -0.00050
       7 -> 36         0.00140
       7 -> 39         0.00017
       7 -> 41        -0.00019
       7 -> 43         0.00048
       7 -> 45        -0.00061
       7 -> 47         0.00359
       7 -> 50         0.00121
       7 -> 54        -0.00020
       8 -> 27         0.00012
       8 -> 46         0.00440
       3 <-  9        -0.00791
       3 <- 13        -0.00082
       3 <- 18        -0.00252
       3 <- 23        -0.00052
       3 <- 28        -0.00052
       3 <- 31        -0.00076
       3 <- 37         0.00016
       3 <- 48         0.00052
       3 <- 52         0.00070
       4 <-  9         0.00478
       4 <- 13        -0.00028
       4 <- 18         0.00143
       4 <- 23        -0.00058
       4 <- 28         0.00143
       4 <- 31        -0.00085
       4 <- 37        -0.00015
       4 <- 44        -0.00015
       4 <- 48        -0.00048
       4 <- 52        -0.00016
       5 <- 27        -0.00064
       5 <- 38         0.00134
       5 <- 46         0.00042
       6 <-  9        -0.04063
       6 <- 13         0.00213
       6 <- 18        -0.00487
       6 <- 23         0.00018
       6 <- 28        -0.00402
       6 <- 37        -0.00116
       6 <- 44        -0.00050
       6 <- 48         0.00305
       7 <- 10        -0.04713
       7 <- 11        -0.00926
       7 <- 14         0.01332
       7 <- 15         0.00835
       7 <- 17         0.00302
       7 <- 20         0.00275
       7 <- 21        -0.00337
       7 <- 24         0.00405
       7 <- 26         0.00178
       7 <- 30         0.00206
       7 <- 32         0.00032
       7 <- 34        -0.00091
       7 <- 36         0.00131
       7 <- 39         0.00059
       7 <- 41         0.00017
       7 <- 43         0.00027
       7 <- 45        -0.00036
       7 <- 47         0.00333
       7 <- 50         0.00133
       7 <- 54         0.00080
       8 <- 27         0.00057
       8 <- 38         0.00011
       8 <- 46         0.00412

 Excited State   5:      Singlet-B1     4.6841 eV  264.69 nm  f=0.0070  <S**2>=0.000
       3 ->  9        -0.00508
       3 -> 13         0.00019
       3 -> 18        -0.00204
       3 -> 23         0.00043
       3 -> 28        -0.00259
       3 -> 31        -0.00143
       3 -> 37         0.00010
       3 -> 44         0.00016
       3 -> 48        -0.00306
       3 -> 52        -0.00019
       4 ->  9        -0.03054
       4 -> 13         0.00601
       4 -> 18         0.00093
       4 -> 23         0.00465
       4 -> 28         0.00112
       4 -> 31         0.00031
       4 -> 37         0.00033
       4 -> 44        -0.00043
       4 -> 48         0.00085
       4 -> 52         0.00016
       5 -> 27        -0.00643
       5 -> 38        -0.00343
       5 -> 46         0.00020
       6 ->  9        -0.24327
       6 -> 13         0.00214
       6 -> 18         0.00014
       6 -> 23         0.00180
       6 -> 28         0.00280
       6 -> 31        -0.00390
       6 -> 37         0.00237
       6 -> 44         0.00077
       6 -> 48        -0.00032
       6 -> 52        -0.00081
       7 -> 10         0.65874
       7 -> 11         0.05570
       7 -> 14        -0.05349
       7 -> 15        -0.03033
       7 -> 17        -0.00886
       7 -> 20        -0.00249
       7 -> 21         0.00326
       7 -> 24        -0.00922
       7 -> 26        -0.00577
       7 -> 30        -0.00727
       7 -> 32        -0.00150
       7 -> 34         0.00368
       7 -> 36        -0.00139
       7 -> 39        -0.00063
       7 -> 43         0.00053
       7 -> 45        -0.00093
       7 -> 47         0.00083
       7 -> 50         0.00038
       7 -> 54        -0.00167
       8 -> 27         0.00064
       8 -> 38         0.00020
       8 -> 46         0.00102
       3 <-  9        -0.00096
       3 <- 13         0.00072
       3 <- 18        -0.00073
       3 <- 23         0.00061
       3 <- 28        -0.00177
       3 <- 31        -0.00015
       3 <- 37        -0.00023
       3 <- 48        -0.00319
       3 <- 52         0.00024
       4 <-  9        -0.01351
       4 <- 13         0.00280
       4 <- 18         0.00020
       4 <- 23         0.00276
       4 <- 28         0.00106
       4 <- 31         0.00014
       4 <- 37         0.00036
       4 <- 44        -0.00062
       4 <- 48         0.00044
       4 <- 52         0.00014
       5 <- 27        -0.00461
       5 <- 38        -0.00280
       5 <- 46         0.00022
       6 <-  9        -0.02748
       6 <- 13        -0.00021
       6 <- 18        -0.00341
       6 <- 23         0.00061
       6 <- 28        -0.00015
       6 <- 31        -0.00468

 The electronic state is 1-A1.
 Alpha  occ. eigenvalues --  -19.17717 -10.33880  -0.89399  -0.71336  -0.49209
 Alpha  occ. eigenvalues --   -0.39069  -0.30845  -0.28724
 Alpha virt. eigenvalues --   -0.17031  -0.06869  -0.00010   0.04048   0.06093
 Alpha virt. eigenvalues --    0.06499   0.11813   0.13383   0.18747   0.21035
 Alpha virt. eigenvalues --    0.23956   0.30398   0.38539   0.39662   0.50649

 Mulliken charges:
               1
     1  C   -0.095680
     2  H    0.191766
     3  H    0.191766
     4  O   -0.287852
 Sum of Mulliken charges =   0.00000

 Dipole moment (field-independent basis, Debye):
    X=             -0.0000    Y=              0.0000    Z=             -4.1554  Tot=              4.1554
 Quadrupole moment (field-independent basis, Debye-Ang):
   XX=            -13.0254   YY=            -12.0313   ZZ=            -10.6792
   XY=              0.0000   XZ=              0.0000   YZ=             -0.0000

 Normal termination of Gaussian 16 at Fri Sep 17 10:53:08 2021.
