 Gaussian 16, Revision A.03,
 Gaussian 16:  ES64L-G16RevA.03 25-Dec-2016

 --------------------------------------------------------------------
 #p B3LYP/6-311+G** #p TD=(singlets,nstates=30)IOp(6/8=3) IOp(9/40=4)
 --------------------------------------------------------------------

 ------------------------------
 Scan Step 74, Bond Length 0.87
 ------------------------------
 Symbolic Z-matrix:
 Charge =  0 Multiplicity = 1

                         Standard orientation:
 ---------------------------------------------------------------------
 Center     Atomic      Atomic             Coordinates (Angstroms)
 Number     Number       Type             X           Y           Z
 ---------------------------------------------------------------------
      1          6           0        0.000000    0.000000   -0.361081
      2          1           0        0.000000    0.937260   -0.952431
      3          1           0       -0.000000   -0.937260   -0.952431
      4          8           0        0.000000   -0.000000    0.508919
 ---------------------------------------------------------------------

 SCF Done:  E(RB3LYP) =  -114.149655127     A.U. after    9 cycles

 Excitation energies and oscillator strengths:

 Excited State   1:      Singlet-A2     5.5514 eV  223.34 nm  f=0.0000  <S**2>=0.000
       3 -> 27         0.00275
       3 -> 35         0.00212
       3 -> 46         0.00110
       4 -> 10         0.00669
       4 -> 13         0.00837
       4 -> 17         0.00595
       4 -> 22        -0.00350
       4 -> 28         0.00295
       4 -> 32         0.00163
       4 -> 37         0.00332
       4 -> 43         0.00048
       4 -> 52         0.00066
       5 -> 27         0.00356
       5 -> 35        -0.00069
       5 -> 46        -0.00062
       6 -> 12        -0.00054
       6 -> 16        -0.00082
       6 -> 18        -0.00044
       6 -> 23         0.00169
       6 -> 24         0.00037
       6 -> 29        -0.00032
       6 -> 33         0.00024
       6 -> 36         0.00052
       6 -> 42         0.00050
       6 -> 47         0.00063
       6 -> 50        -0.00018
       6 -> 53         0.00025
       7 -> 27         0.00101
       7 -> 35        -0.00022
       7 -> 46         0.00107
       8 -> 10         0.69650
       8 -> 13         0.11783
       8 -> 17         0.03055
       8 -> 22        -0.00631
       8 -> 28         0.00482
       8 -> 32         0.00339
       8 -> 37        -0.00238
       8 -> 43        -0.00017
       8 -> 52         0.00085
       3 <- 27         0.00206
       3 <- 35         0.00182
       3 <- 46         0.00114
       4 <- 10         0.00025
       4 <- 13         0.00115
       4 <- 17         0.00015
       4 <- 22         0.00018
       4 <- 32        -0.00106
       4 <- 37         0.00153
       4 <- 43         0.00043
       4 <- 52         0.00016
       5 <- 27         0.00396
       5 <- 35        -0.00050
       5 <- 46        -0.00061
       6 <- 12        -0.00091
       6 <- 16         0.00155
       6 <- 18        -0.00302
       6 <- 23         0.00416
       6 <- 24        -0.00168
       6 <- 29         0.00164
       6 <- 33        -0.00081
       6 <- 36         0.00180
       6 <- 40        -0.00013
       6 <- 42         0.00082
       6 <- 47         0.00050
       6 <- 53         0.00067
       7 <- 27         0.00107
       7 <- 35        -0.00029
       7 <- 46         0.00087
       8 <- 10        -0.00720
       8 <- 13        -0.00863
       8 <- 17        -0.00434
       8 <- 22         0.00043
       8 <- 28        -0.00039
       8 <- 32         0.00288
       8 <- 37        -0.00223
       8 <- 52         0.00027
 This state for optimization and/or second-order correction.
 Total Energy, E(TD-HF/TD-DFT) =  -113.945645202
 Copying the excited state density for this state as the 1-particle RhoCI density.

 Excited State   2:      Singlet-B2     5.8082 eV  213.46 nm  f=0.0896  <S**2>=0.000
       3 -> 12         0.00088
       3 -> 16         0.00027
       3 -> 18         0.00099
       3 -> 24         0.00113
       3 -> 29        -0.00020
       3 -> 42         0.00015
       3 -> 50        -0.00015
       4 ->  9         0.00181
       4 -> 11         0.00640
       4 -> 14         0.00516
       4 -> 15         0.00161
       4 -> 19         0.00372
       4 -> 20         0.00129
       4 -> 21         0.00274
       4 -> 25         0.00127
       4 -> 26        -0.00112
       4 -> 30        -0.00212
       4 -> 31         0.00034
       4 -> 34         0.00038
       4 -> 38        -0.00081
       4 -> 39         0.00013
       4 -> 41         0.00044
       4 -> 44         0.00042
       4 -> 45        -0.00058
       4 -> 48         0.00038
       5 -> 12        -0.00645
       5 -> 16         0.00125
       5 -> 18         0.00119
       5 -> 23        -0.00239
       5 -> 24         0.00409
       5 -> 29        -0.00062
       5 -> 33        -0.00103
       5 -> 36         0.00087
       5 -> 40        -0.00015
       5 -> 42         0.00044
       6 -> 27         0.00108
       6 -> 35         0.00028
       6 -> 46         0.00087
       7 -> 12         0.00254
       7 -> 16         0.00328
       7 -> 18         0.00361
       7 -> 23        -0.00208
       7 -> 24         0.00247
       7 -> 29         0.00011
       7 -> 36        -0.00022
       7 -> 42        -0.00037
       7 -> 47         0.00040
       7 -> 50         0.00049
       8 ->  9         0.70625
       8 -> 11         0.01229
       8 -> 14        -0.02177
       8 -> 15         0.01140
       8 -> 19         0.02040
       8 -> 20        -0.00772
       8 -> 21        -0.00804
       8 -> 25         0.00066
       8 -> 26        -0.00050
       8 -> 31         0.00292
       8 -> 34         0.00150
       8 -> 38         0.00088
       8 -> 39        -0.00052
       8 -> 41        -0.00043
       8 -> 44        -0.00025
       8 -> 45        -0.00107
       8 -> 48         0.00035
       8 -> 54        -0.00014
       3 <- 12         0.00029
       3 <- 18         0.00060
       3 <- 24         0.00082
       3 <- 29        -0.00018
       3 <- 42         0.00012
       3 <- 53         0.00011
       4 <-  9         0.00202
       4 <- 11        -0.00012
       4 <- 14         0.00408
       4 <- 15         0.00176
       4 <- 19         0.00094
       4 <- 20         0.00046
       4 <- 21         0.00173
       4 <- 25         0.00164
       4 <- 26        -0.00125
       4 <- 30        -0.00078
       4 <- 31        -0.00014
       4 <- 34         0.00016
       4 <- 38        -0.00052
       4 <- 39         0.00016
       4 <- 41         0.00044
       4 <- 44         0.00029
       4 <- 45        -0.00052
       4 <- 48         0.00033
       5 <- 12        -0.00016
       5 <- 16         0.00116
       5 <- 18         0.00230
       5 <- 23        -0.00140
       5 <- 24         0.00315
       5 <- 29        -0.00051
       5 <- 33        -0.00078
       5 <- 36         0.00066
       5 <- 40        -0.00019
       5 <- 42         0.00020
       6 <- 27         0.00085
       6 <- 35         0.00022
       6 <- 46         0.00073
       7 <- 12         0.00069
       7 <- 16         0.00207
       7 <- 18         0.00123
       7 <- 23        -0.00084
       7 <- 24         0.00116
       7 <- 29         0.00074
       7 <- 42        -0.00032
       7 <- 47         0.00038
       7 <- 50         0.00055
       8 <-  9        -0.00462
       8 <- 11         0.00231
       8 <- 14        -0.01345
       8 <- 15        -0.00233
       8 <- 19        -0.00113
       8 <- 20         0.00024
       8 <- 21        -0.00428
       8 <- 25        -0.00313
       8 <- 26        -0.00065
       8 <- 30         0.00049
       8 <- 31         0.00156
       8 <- 34         0.00154
       8 <- 38         0.00087
       8 <- 39        -0.00043
       8 <- 41        -0.00028
       8 <- 44        -0.00029
       8 <- 45        -0.00078
       8 <- 48         0.00032

 Excited State   3:      Singlet-B2     6.6034 eV  187.76 nm  f=0.0230  <S**2>=0.000
       3 -> 12         0.00011
       3 -> 16        -0.00064
       3 -> 23        -0.00019
       3 -> 24        -0.00044
       3 -> 29        -0.00091
       3 -> 33        -0.00014
       3 -> 36         0.00029
       3 -> 42         0.00030
       3 -> 47        -0.00019
       3 -> 50        -0.00021
       3 -> 53         0.00010
       4 ->  9         0.00476
       4 -> 14        -0.00278
       4 -> 15        -0.00445
       4 -> 19         0.00313
       4 -> 20        -0.00057
       4 -> 21        -0.00140
       4 -> 25        -0.00093
       4 -> 26        -0.00120
       4 -> 30         0.00074
       4 -> 31         0.00218
       4 -> 34         0.00041
       4 -> 39         0.00080
       4 -> 41         0.00066
       4 -> 45        -0.00061
       4 -> 48         0.00041
       4 -> 51         0.00020
       5 -> 12        -0.00261
       5 -> 16        -0.00452
       5 -> 18        -0.00140
       5 -> 23         0.00135
       5 -> 24        -0.00373
       5 -> 29         0.00125
       5 -> 33        -0.00055
       5 -> 40         0.00026
       5 -> 47        -0.00013
       5 -> 50        -0.00010
       6 -> 27         0.00088
       6 -> 35         0.00134
       6 -> 46         0.00103
       7 -> 12         0.00290
       7 -> 16         0.00020
       7 -> 18         0.00240
       7 -> 23        -0.00128
       7 -> 24         0.00046
       7 -> 33         0.00024
       7 -> 36        -0.00117
       7 -> 40         0.00031
       7 -> 42        -0.00063
       7 -> 47         0.00066
       7 -> 50         0.00057
       7 -> 53        -0.00017
       8 ->  9        -0.01259
       8 -> 11         0.70596
       8 -> 14         0.01833
       8 -> 15         0.02392
       8 -> 19         0.01659
       8 -> 20         0.01517
       8 -> 21         0.00316
       8 -> 25        -0.00040
       8 -> 26         0.00047
       8 -> 30        -0.00178
       8 -> 31        -0.00052
       8 -> 34        -0.00038
       8 -> 38         0.00014
       8 -> 39         0.00081
       8 -> 41         0.00123
       8 -> 44        -0.00012
       8 -> 45        -0.00069
       8 -> 48         0.00058
       8 -> 51         0.00010
       8 -> 54        -0.00016
       3 <- 12        -0.00022
       3 <- 16        -0.00060
       3 <- 18        -0.00021
       3 <- 24        -0.00049
       3 <- 29        -0.00060
       3 <- 33        -0.00017
       3 <- 36         0.00031
       3 <- 42         0.00026
       3 <- 47        -0.00015
       3 <- 50        -0.00011
       3 <- 53         0.00021
       4 <-  9        -0.00136
       4 <- 11        -0.00022
       4 <- 14        -0.00178
       4 <- 15        -0.00059
       4 <- 19        -0.00064
       4 <- 20         0.00031
       4 <- 21        -0.00102
       4 <- 25        -0.00093
       4 <- 26        -0.00094
       4 <- 30         0.00087
       4 <- 31         0.00086
       4 <- 34         0.00095
       4 <- 39         0.00059
       4 <- 41         0.00066
       4 <- 45        -0.00063
       4 <- 48         0.00028
       4 <- 51         0.00019
       5 <- 12        -0.00023
       5 <- 16        -0.00085
       5 <- 18        -0.00110
       5 <- 23         0.00125
       5 <- 24        -0.00186
       5 <- 29         0.00056
       5 <- 33        -0.00058
       5 <- 36        -0.00021
       5 <- 40         0.00026
       5 <- 50        -0.00019
       6 <- 27         0.00042
       6 <- 35         0.00111
       6 <- 46         0.00089
       7 <- 12         0.00037
       7 <- 16         0.00041
       7 <- 18         0.00020
       7 <- 23        -0.00024
       7 <- 29         0.00039
       7 <- 36        -0.00081
       7 <- 40         0.00024
       7 <- 42        -0.00044
       7 <- 47         0.00058
       7 <- 50         0.00054
       8 <-  9         0.00215
       8 <- 11         0.00135
       8 <- 14         0.00696
       8 <- 15         0.00171
       8 <- 19        -0.00188
       8 <- 20        -0.00209
       8 <- 21         0.00277
       8 <- 25         0.00045
       8 <- 26        -0.00076
       8 <- 30        -0.00124
       8 <- 31        -0.00112
       8 <- 38         0.00031
       8 <- 39         0.00056
       8 <- 41         0.00104
       8 <- 45        -0.00058
       8 <- 48         0.00037
       8 <- 51         0.00013

 Excited State   4:      Singlet-A1     6.7408 eV  183.93 nm  f=0.0394  <S**2>=0.000
       3 ->  9         0.00130
       3 -> 11         0.00079
       3 -> 15         0.00059
       3 -> 19         0.00132
       3 -> 20        -0.00029
       3 -> 21        -0.00033
       3 -> 25         0.00027
       3 -> 30        -0.00103
       3 -> 31        -0.00022
       3 -> 34        -0.00022
       3 -> 38        -0.00034
       3 -> 39        -0.00026
       3 -> 41        -0.00012
       3 -> 48        -0.00014
       3 -> 51        -0.00028
       3 -> 54         0.00020
       4 -> 12         0.00741
       4 -> 16         0.00806
       4 -> 18         0.00664
       4 -> 23         0.00091
       4 -> 24         0.00404
       4 -> 29         0.00067
       4 -> 33        -0.00015
       4 -> 36         0.00096
       4 -> 42        -0.00024
       4 -> 50        -0.00035
       4 -> 53        -0.00013
       5 ->  9         0.00567
       5 -> 11        -0.01068
       5 -> 14         0.00624
       5 -> 15         0.00228
       5 -> 19         0.00121
       5 -> 20        -0.00676
       5 -> 21         0.00191
       5 -> 25         0.00681
       5 -> 26        -0.00091
       5 -> 30         0.00084
       5 -> 31        -0.00078
       5 -> 34        -0.00107
       5 -> 38        -0.00034
       5 -> 39         0.00093
       5 -> 41         0.00012
       5 -> 44         0.00015
       5 -> 45        -0.00032
       5 -> 48        -0.00029
       6 -> 10         0.00713
       6 -> 13        -0.00313
       6 -> 17         0.00510
       6 -> 22         0.00398
       6 -> 28         0.00076
       6 -> 32         0.00090
       6 -> 37         0.00054
       6 -> 43         0.00046
       6 -> 49        -0.00037
       7 ->  9         0.01301
       7 -> 11         0.00540
       7 -> 14         0.00261
       7 -> 15        -0.00106
       7 -> 19         0.00810
       7 -> 20        -0.00265
       7 -> 21         0.00081
       7 -> 25         0.00190
       7 -> 26         0.00011
       7 -> 30        -0.00028
       7 -> 31         0.00067
       7 -> 34        -0.00096
       7 -> 39         0.00024
       7 -> 48        -0.00021
       7 -> 51         0.00042
       8 -> 12         0.70542
       8 -> 16         0.04301
       8 -> 18        -0.00378
       8 -> 23         0.00314
       8 -> 24         0.00168
       8 -> 29         0.00347
       8 -> 33         0.00157
       8 -> 36        -0.00260
       8 -> 40         0.00014
       8 -> 42         0.00146
       8 -> 47        -0.00048
       8 -> 53        -0.00011
       3 <-  9         0.00057
       3 <- 11         0.00031
       3 <- 15         0.00030
       3 <- 19         0.00075
       3 <- 20        -0.00011
       3 <- 21        -0.00012
       3 <- 25         0.00031
       3 <- 30        -0.00062
       3 <- 31        -0.00018
       3 <- 34        -0.00018
       3 <- 38        -0.00025
       3 <- 39        -0.00023
       3 <- 41        -0.00013
       3 <- 48        -0.00016
       3 <- 51        -0.00024
       3 <- 54         0.00018
       4 <- 12         0.00262
       4 <- 16         0.00250
       4 <- 18         0.00332
       4 <- 23         0.00088
       4 <- 24         0.00217
       4 <- 29         0.00024
       4 <- 33        -0.00028
       4 <- 36         0.00083
       4 <- 42        -0.00021
       4 <- 50        -0.00029
       4 <- 53        -0.00012
       5 <-  9         0.00591
       5 <- 11        -0.00393
       5 <- 14         0.00469
       5 <- 15         0.00215
       5 <- 19         0.00088
       5 <- 20        -0.00381
       5 <- 21         0.00051
       5 <- 25         0.00418
       5 <- 26        -0.00041
       5 <- 30         0.00018
       5 <- 31        -0.00099
       5 <- 34        -0.00089
       5 <- 38        -0.00044
       5 <- 39         0.00076
       5 <- 44         0.00022
       5 <- 45        -0.00029
       5 <- 48        -0.00024
       6 <- 10         0.00268
       6 <- 13        -0.00130
       6 <- 17         0.00241
       6 <- 22         0.00241
       6 <- 28         0.00048
       6 <- 32         0.00069
       6 <- 37         0.00044
       6 <- 43         0.00039
       6 <- 49        -0.00032
       7 <-  9         0.00454
       7 <- 11         0.00136
       7 <- 14         0.00126
       7 <- 15        -0.00039
       7 <- 19         0.00354
       7 <- 20        -0.00159
       7 <- 21         0.00023
       7 <- 25         0.00115
       7 <- 30        -0.00033
       7 <- 31         0.00041
       7 <- 34        -0.00067
       7 <- 38        -0.00015
       7 <- 39         0.00030
       7 <- 45        -0.00012
       7 <- 48        -0.00011
       7 <- 51         0.00039
       8 <- 12        -0.00397
       8 <- 16         0.00540
       8 <- 18        -0.01119
       8 <- 23        -0.00111
       8 <- 24        -0.00187
       8 <- 29         0.00183
       8 <- 33         0.00121
       8 <- 36        -0.00186
       8 <- 42         0.00118
       8 <- 47        -0.00054
       8 <- 53        -0.00013

 Excited State   5:      Singlet-A2     7.5950 eV  163.24 nm  f=0.0000  <S**2>=0.000
       3 -> 27         0.00191
       3 -> 35         0.00155
       3 -> 46         0.00074
       4 -> 10         0.00769
       4 -> 13         0.00873
       4 -> 17        -0.00178
       4 -> 22        -0.00171
       4 -> 28         0.00040
       4 -> 32         0.00222
       4 -> 37         0.00266
       4 -> 43         0.00032
       4 -> 49        -0.00010
       4 -> 52         0.00044
       5 -> 27         0.00120
       5 -> 35        -0.00078
       5 -> 46        -0.00025
       6 -> 12         0.00016
       6 -> 16        -0.00194
       6 -> 18        -0.00038
       6 -> 23         0.00142
       6 -> 24         0.00015
       6 -> 29        -0.00038
       6 -> 36         0.00041
       6 -> 42         0.00041
       6 -> 47         0.00040
       6 -> 53         0.00018
       7 -> 27         0.00031
       7 -> 35        -0.00020
       7 -> 46         0.00079
       8 -> 10        -0.11855
       8 -> 13         0.69656
       8 -> 17         0.00940
       8 -> 22        -0.02356
       8 -> 28         0.00220
       8 -> 32         0.00175
       8 -> 37        -0.00133
       8 -> 43        -0.00017
       8 -> 49        -0.00014
       8 -> 52         0.00048
       3 <- 27         0.00118
       3 <- 35         0.00126
       3 <- 46         0.00084
       4 <- 10         0.00032
       4 <- 13         0.00038
       4 <- 17        -0.00046
       4 <- 22         0.00010
       4 <- 32        -0.00035
       4 <- 37         0.00089
       4 <- 43         0.00026
       4 <- 52         0.00014
       5 <- 27         0.00177
       5 <- 35        -0.00012
       5 <- 46        -0.00031
       6 <- 12         0.00040
       6 <- 16        -0.00045
       6 <- 18        -0.00084
       6 <- 23         0.00270
       6 <- 24        -0.00067
       6 <- 29         0.00013
       6 <- 33        -0.00075
       6 <- 36         0.00140
       6 <- 42         0.00076
       6 <- 47         0.00018
       6 <- 53         0.00040
       7 <- 27         0.00053
       7 <- 35        -0.00027
       7 <- 46         0.00042
       8 <- 10        -0.00709
       8 <- 13        -0.00189
       8 <- 17        -0.00118
       8 <- 22         0.00058
       8 <- 28        -0.00028
       8 <- 32         0.00136
       8 <- 37        -0.00115
       8 <- 52         0.00019

 Excited State   6:      Singlet-B2     9.8490 eV  125.89 nm  f=0.2492  <S**2>=0.000
       3 -> 12        -0.00040
       3 -> 16         0.00132

 The electronic state is 1-A1.
 Alpha  occ. eigenvalues --  -19.13918 -10.23647  -1.28215  -0.62281  -0.59261
 Alpha  occ. eigenvalues --   -0.57607  -0.52493  -0.23807
 Alpha virt. eigenvalues --    0.01391   0.01834   0.04422   0.04426   0.09471
 Alpha virt. eigenvalues --    0.14258   0.17719   0.20282   0.21848   0.23545
 Alpha virt. eigenvalues --    0.25919   0.36409   0.50228   0.53010   0.54082

 Mulliken charges:
               1
     1  C    0.235566
     2  H   -0.007702
     3  H   -0.007702
     4  O   -0.220163
 Sum of Mulliken charges =   0.00000

 Dipole moment (field-independent basis, Debye):
    X=              0.0000    Y=             -0.0000    Z=             -0.3785  Tot=              0.3785
 Quadrupole moment (field-independent basis, Debye-Ang):
   XX=            -10.7293   YY=            -12.4365   ZZ=            -13.2602
   XY=             -0.0000   XZ=             -0.0000   YZ=             -0.0000

 Normal termination of Gaussian 16 at Fri Sep 17 10:52:31 2021.
