 Gaussian 16, Revision C.01,
 Gaussian 16:  ES64L-G16RevC.01  3-Jul-2019

 ----------------------------------------
 #P wB97XD/6-311+G* NoSymm #P Field=Y-175
 ----------------------------------------

 -------
 TitleMe
 -------
 Symbolic Z-matrix:
 Charge =  1 Multiplicity = 1

                          Input orientation:
 ---------------------------------------------------------------------
 Center     Atomic      Atomic             Coordinates (Angstroms)
 Number     Number       Type             X           Y           Z
 ---------------------------------------------------------------------
      1          6           0        0.029500    1.339700    0.068200
      2          6           0        1.434800    1.286700    0.006400
      3          6           0        2.111800    0.051100   -0.005400
      4          6           0        1.445100   -1.137200    0.031200
      5          6           0       -0.687900    0.168200    0.110000
      6          1           0       -0.471300    2.298400    0.078100
      7          1           0        2.027300    2.196500   -0.032200
      8          1           0        1.989700   -2.076400    0.023200
      9          1           0       -1.771600    0.180400    0.158200
     10          7           0        3.586400    0.051000   -0.067500
     11          8           0        4.147100   -1.059700   -0.088100
     12          8           0        4.145000    1.163900   -0.090100
     13          6           0       -0.023600   -1.145800    0.083500
     14          1           0       -0.436700   -1.872500    0.788900
     15         35           0       -0.535900   -1.869700   -1.740800
 ---------------------------------------------------------------------

 SCF Done:  E(RwB97XD) =  -3010.54862003     A.U. after   21 cycles

 Alpha  occ. eigenvalues -- -483.34059 -62.89115 -56.68764 -56.68252 -56.68250
 Alpha  occ. eigenvalues --  -19.46488 -19.46081 -14.85717 -10.60631 -10.58046
 Alpha  occ. eigenvalues --  -10.57970 -10.57244 -10.56706 -10.52119  -9.04943
 Alpha  occ. eigenvalues --   -6.87500  -6.85813  -6.85805  -2.97433  -2.96981
 Alpha  occ. eigenvalues --   -2.96973  -2.95623  -2.95622  -1.50020  -1.32988
 Alpha  occ. eigenvalues --   -1.23483  -1.15384  -1.11930  -1.06516  -1.01399
 Alpha  occ. eigenvalues --   -0.96221  -0.91421  -0.85685  -0.81304  -0.80991
 Alpha  occ. eigenvalues --   -0.80433  -0.79308  -0.76428  -0.76017  -0.73510
 Alpha  occ. eigenvalues --   -0.69456  -0.67382  -0.64280  -0.61831  -0.59793
 Alpha  occ. eigenvalues --   -0.57561  -0.57031  -0.56468  -0.55834
 Alpha virt. eigenvalues --   -0.30572  -0.21776  -0.17713  -0.16172  -0.13642
 Alpha virt. eigenvalues --   -0.11547  -0.11336  -0.08072  -0.06802  -0.06416
 Alpha virt. eigenvalues --   -0.05290  -0.04603  -0.03077  -0.02759  -0.01527

 Mulliken charges:
               1
     1  C   -0.537858
     2  C    0.440979
     3  C   -0.636001
     4  C    0.266661
     5  C    0.047793
     6  H    0.402440
     7  H    0.426536
     8  H    0.312552
     9  H    0.356339
    10  N   -0.109595
    11  O   -0.056156
    12  O    0.129648
    13  C   -0.462020
    14  H    0.358687
    15  Br   0.059994
 Sum of Mulliken charges =   1.00000

 Dipole moment (field-independent basis, Debye):
    X=             -0.1991    Y=              4.4494    Z=              0.6214  Tot=              4.4970
 Quadrupole moment (field-independent basis, Debye-Ang):
   XX=            -70.2089   YY=            -54.6777   ZZ=            -64.1464
   XY=              6.9290   XZ=              0.5525   YZ=             -0.6505

 Normal termination of Gaussian 16 at Wed May  1 15:06:46 2024.
