 Gaussian 16, Revision C.01,
 Gaussian 16:  ES64L-G16RevC.01  3-Jul-2019

 ----------------------------------------
 #P wB97XD/6-311+G* NoSymm #P Field=Z-252
 ----------------------------------------

 -------
 TitleMe
 -------
 Symbolic Z-matrix:
 Charge =  1 Multiplicity = 1

                          Input orientation:
 ---------------------------------------------------------------------
 Center     Atomic      Atomic             Coordinates (Angstroms)
 Number     Number       Type             X           Y           Z
 ---------------------------------------------------------------------
      1          6           0        0.029500    1.339700    0.068200
      2          6           0        1.434800    1.286700    0.006400
      3          6           0        2.111800    0.051100   -0.005400
      4          6           0        1.445100   -1.137200    0.031200
      5          6           0       -0.687900    0.168200    0.110000
      6          1           0       -0.471300    2.298400    0.078100
      7          1           0        2.027300    2.196500   -0.032200
      8          1           0        1.989700   -2.076400    0.023200
      9          1           0       -1.771600    0.180400    0.158200
     10          7           0        3.586400    0.051000   -0.067500
     11          8           0        4.147100   -1.059700   -0.088100
     12          8           0        4.145000    1.163900   -0.090100
     13          6           0       -0.023600   -1.145800    0.083500
     14          1           0       -0.436700   -1.872500    0.788900
     15         35           0       -0.535900   -1.869700   -1.740800
 ---------------------------------------------------------------------

 SCF Done:  E(RwB97XD) =  -3010.55679744     A.U. after   20 cycles

 Alpha  occ. eigenvalues -- -483.35410 -62.90486 -56.70103 -56.69637 -56.69637
 Alpha  occ. eigenvalues --  -19.46850 -19.46753 -14.86331 -10.60362 -10.58870
 Alpha  occ. eigenvalues --  -10.58362 -10.58182 -10.57854 -10.53972  -9.06327
 Alpha  occ. eigenvalues --   -6.88796  -6.87247  -6.87241  -2.98750  -2.98332
 Alpha  occ. eigenvalues --   -2.98326  -2.97085  -2.97085  -1.50571  -1.33541
 Alpha  occ. eigenvalues --   -1.24043  -1.16125  -1.13004  -1.07526  -1.02088
 Alpha  occ. eigenvalues --   -0.96809  -0.92087  -0.86224  -0.81870  -0.81617
 Alpha  occ. eigenvalues --   -0.80960  -0.79289  -0.77107  -0.77005  -0.74464
 Alpha  occ. eigenvalues --   -0.70513  -0.68730  -0.65603  -0.63172  -0.61209
 Alpha  occ. eigenvalues --   -0.58210  -0.57897  -0.56991  -0.56512
 Alpha virt. eigenvalues --   -0.31485  -0.22422  -0.20983  -0.18065  -0.15401
 Alpha virt. eigenvalues --   -0.14334  -0.13105  -0.10143  -0.08757  -0.08550
 Alpha virt. eigenvalues --   -0.05902  -0.04962  -0.03837  -0.02822  -0.02591

 Mulliken charges:
               1
     1  C   -0.630470
     2  C    0.591167
     3  C   -0.734534
     4  C    0.309090
     5  C    0.076444
     6  H    0.346670
     7  H    0.372069
     8  H    0.384092
     9  H    0.364016
    10  N   -0.109830
    11  O    0.036936
    12  O    0.032184
    13  C   -0.466071
    14  H    0.490124
    15  Br  -0.061886
 Sum of Mulliken charges =   1.00000

 Dipole moment (field-independent basis, Debye):
    X=             -0.2152    Y=              0.3365    Z=              4.3635  Tot=              4.3818
 Quadrupole moment (field-independent basis, Debye-Ang):
   XX=            -70.4341   YY=            -53.3459   ZZ=            -67.9291
   XY=              0.6387   XZ=              3.1131   YZ=             -2.0902

 Normal termination of Gaussian 16 at Wed May  1 15:15:27 2024.
