 Gaussian 16, Revision A.03,
 Gaussian 16:  ES64L-G16RevA.03 25-Dec-2016

 --------------------------------------------------------------------
 #p B3LYP/6-311+G** #p TD=(singlets,nstates=30)IOp(6/8=3) IOp(9/40=4)
 --------------------------------------------------------------------

 -------------------------------
 Scan Step 154, Bond Length 1.27
 -------------------------------
 Symbolic Z-matrix:
 Charge =  0 Multiplicity = 1

                         Standard orientation:
 ---------------------------------------------------------------------
 Center     Atomic      Atomic             Coordinates (Angstroms)
 Number     Number       Type             X           Y           Z
 ---------------------------------------------------------------------
      1          6           0        0.000000    0.000000   -0.561081
      2          1           0        0.000000    0.937260   -1.152431
      3          1           0       -0.000000   -0.937260   -1.152431
      4          8           0        0.000000   -0.000000    0.708919
 ---------------------------------------------------------------------

 SCF Done:  E(RB3LYP) =  -114.535395540     A.U. after    9 cycles

 Excitation energies and oscillator strengths:

 Excited State   1:      Singlet-A2     3.5658 eV  347.70 nm  f=0.0000  <S**2>=0.000
       3 -> 27         0.00226
       3 -> 38         0.00190
       3 -> 45         0.00267
       4 -> 27         0.00166
       4 -> 38        -0.00048
       4 -> 45        -0.00136
       5 ->  9         0.01980
       5 -> 13        -0.00201
       5 -> 17         0.00528
       5 -> 23         0.00036
       5 -> 29         0.00434
       5 -> 31        -0.00181
       5 -> 37         0.00309
       5 -> 44         0.00058
       5 -> 48         0.00014
       5 -> 52         0.00071
       6 -> 27        -0.00026
       6 -> 38        -0.00087
       6 -> 45         0.00177
       7 -> 12        -0.00062
       7 -> 15         0.00318
       7 -> 18        -0.00301
       7 -> 22         0.00043
       7 -> 25         0.00141
       7 -> 30        -0.00100
       7 -> 33         0.00045
       7 -> 35         0.00020
       7 -> 40         0.00019
       7 -> 42        -0.00011
       7 -> 49         0.00027
       7 -> 50         0.00032
       7 -> 53         0.00047
       8 ->  9         0.70601
       8 -> 13        -0.03572
       8 -> 17         0.02272
       8 -> 23        -0.00928
       8 -> 29         0.00973
       8 -> 31        -0.00196
       8 -> 37         0.00015
       8 -> 48        -0.00026
       8 -> 52         0.00176
       3 <- 27         0.00143
       3 <- 38         0.00156
       3 <- 45         0.00275
       4 <- 27         0.00246
       4 <- 45        -0.00114
       5 <-  9        -0.00051
       5 <- 13        -0.00079
       5 <- 17        -0.00101
       5 <- 23         0.00051
       5 <- 29        -0.00070
       5 <- 31         0.00079
       5 <- 37         0.00151
       5 <- 44         0.00022
       5 <- 48         0.00014
       5 <- 52         0.00019
       6 <- 27         0.00033
       6 <- 38        -0.00076
       6 <- 45         0.00138
       7 <- 12        -0.00066
       7 <- 15        -0.00778
       7 <- 18         0.00079
       7 <- 22         0.00743
       7 <- 30         0.00378
       7 <- 33        -0.00124
       7 <- 35         0.00223
       7 <- 40         0.00093
       7 <- 50         0.00022
       7 <- 53         0.00133
       8 <-  9        -0.02722
       8 <- 13         0.00252
       8 <- 17        -0.00464
       8 <- 23         0.00077
       8 <- 29        -0.00118
       8 <- 31        -0.00068
       8 <- 37        -0.00126
       8 <- 52         0.00050
 This state for optimization and/or second-order correction.
 Total Energy, E(TD-HF/TD-DFT) =  -114.404353231
 Copying the excited state density for this state as the 1-particle RhoCI density.

 Excited State   2:      Singlet-B2     6.9229 eV  179.09 nm  f=0.0225  <S**2>=0.000
       3 -> 12         0.00161
       3 -> 15         0.00068
       3 -> 18         0.00124
       3 -> 22        -0.00033
       3 -> 25         0.00124
       3 -> 33         0.00023
       3 -> 35        -0.00047
       3 -> 40        -0.00017
       4 -> 12        -0.00273
       4 -> 15         0.00198
       4 -> 18         0.00192
       4 -> 22        -0.00326
       4 -> 25         0.00318
       4 -> 30         0.00034
       4 -> 33        -0.00038
       4 -> 35         0.00050
       4 -> 40         0.00044
       4 -> 42        -0.00013
       5 -> 10        -0.00778
       5 -> 11        -0.00766
       5 -> 14         0.00703
       5 -> 16        -0.00071
       5 -> 19        -0.00154
       5 -> 20         0.00276
       5 -> 21         0.00585
       5 -> 24        -0.00041
       5 -> 26         0.00223
       5 -> 28         0.00104
       5 -> 32        -0.00103
       5 -> 34        -0.00099
       5 -> 36        -0.00018
       5 -> 39        -0.00026
       5 -> 41        -0.00044
       5 -> 43        -0.00050
       5 -> 46        -0.00025
       5 -> 54         0.00012
       6 -> 12        -0.00049
       6 -> 15         0.00147
       6 -> 18         0.00152
       6 -> 22        -0.00236
       6 -> 25         0.00103
       6 -> 30        -0.00053
       6 -> 33        -0.00026
       6 -> 35         0.00051
       6 -> 42        -0.00017
       6 -> 49         0.00045
       6 -> 50        -0.00024
       7 -> 38        -0.00064
       7 -> 45         0.00028
       8 -> 10         0.70264
       8 -> 11        -0.07384
       8 -> 14         0.01772
       8 -> 16        -0.00477
       8 -> 19         0.00499
       8 -> 20         0.01693
       8 -> 21        -0.00253
       8 -> 26         0.00279
       8 -> 28         0.00093
       8 -> 32         0.00098
       8 -> 34         0.00089
       8 -> 36         0.00033
       8 -> 39         0.00033
       8 -> 41        -0.00022
       8 -> 43         0.00060
       8 -> 46        -0.00046
       8 -> 47         0.00016
       8 -> 51        -0.00013
       8 -> 54         0.00020
       3 <- 12         0.00037
       3 <- 15         0.00053
       3 <- 18         0.00047
       3 <- 22        -0.00050
       3 <- 25         0.00070
       3 <- 30        -0.00011
       3 <- 33         0.00020
       3 <- 35        -0.00042
       3 <- 40        -0.00018
       3 <- 49         0.00015
       4 <- 12         0.00077
       4 <- 15         0.00196
       4 <- 18         0.00184
       4 <- 22        -0.00203
       4 <- 25         0.00216
       4 <- 30         0.00024
       4 <- 33        -0.00019
       4 <- 35         0.00025
       4 <- 40         0.00012
       4 <- 42        -0.00023
       4 <- 50        -0.00013
       5 <- 10         0.00231
       5 <- 11        -0.00024
       5 <- 14         0.00470
       5 <- 16        -0.00060
       5 <- 19        -0.00026
       5 <- 20         0.00082
       5 <- 21         0.00184
       5 <- 24        -0.00206
       5 <- 26         0.00147
       5 <- 28         0.00012
       5 <- 32        -0.00074
       5 <- 34        -0.00091
       5 <- 36        -0.00025
       5 <- 39        -0.00015
       5 <- 41        -0.00026
       5 <- 43        -0.00039
       5 <- 46        -0.00022
       6 <- 15        -0.00019
       6 <- 18         0.00103
       6 <- 22        -0.00055
       6 <- 25         0.00034
       6 <- 30         0.00033
       6 <- 33        -0.00031
       6 <- 35         0.00057
       6 <- 42        -0.00016
       6 <- 49         0.00037
       6 <- 50        -0.00026
       6 <- 53         0.00016
       7 <- 27         0.00011
       7 <- 38        -0.00047
       7 <- 45         0.00026
       8 <- 10        -0.00152
       8 <- 11        -0.00055
       8 <- 14        -0.00464
       8 <- 16        -0.00052
       8 <- 19         0.00017
       8 <- 20        -0.00069
       8 <- 21        -0.00157
       8 <- 24         0.00196
       8 <- 26        -0.00082
       8 <- 28        -0.00046
       8 <- 32         0.00098
       8 <- 36         0.00032
       8 <- 39         0.00023
       8 <- 43         0.00038
       8 <- 46        -0.00027

 Excited State   3:      Singlet-B2     7.6801 eV  161.44 nm  f=0.0274  <S**2>=0.000
       3 -> 12        -0.00034
       3 -> 15        -0.00096
       3 -> 18         0.00107
       3 -> 22         0.00049
       3 -> 30         0.00245
       3 -> 33         0.00015
       3 -> 35        -0.00060
       3 -> 40        -0.00052
       3 -> 49         0.00059
       3 -> 50        -0.00019
       4 -> 12         0.00249
       4 -> 15         0.00036
       4 -> 18         0.00193
       4 -> 22        -0.00149
       4 -> 25         0.00282
       4 -> 30        -0.00137
       4 -> 33         0.00049
       4 -> 35        -0.00058
       4 -> 42        -0.00010
       4 -> 49         0.00023
       5 -> 10        -0.00590
       5 -> 11        -0.00021
       5 -> 14         0.00972
       5 -> 16        -0.00690
       5 -> 19        -0.00082
       5 -> 20        -0.00480
       5 -> 21         0.00232
       5 -> 24        -0.00084
       5 -> 26         0.00152
       5 -> 28         0.00156
       5 -> 32        -0.00013
       5 -> 34        -0.00088
       5 -> 36        -0.00037
       5 -> 39         0.00045
       5 -> 41        -0.00068
       5 -> 43         0.00019
       5 -> 46         0.00091
       5 -> 51        -0.00042
       6 -> 12        -0.00287
       6 -> 15        -0.00149
       6 -> 18        -0.00075
       6 -> 22         0.00113
       6 -> 25         0.00017
       6 -> 30         0.00115
       6 -> 33        -0.00055
       6 -> 35         0.00149
       6 -> 40         0.00112
       6 -> 49        -0.00127
       6 -> 50         0.00031
       6 -> 53         0.00012
       7 -> 27         0.00019
       7 -> 38        -0.00084
       7 -> 45        -0.00198
       8 -> 10         0.07401
       8 -> 11         0.70219
       8 -> 14        -0.00214
       8 -> 16         0.00892
       8 -> 19        -0.03436
       8 -> 20         0.00048
       8 -> 21        -0.00288
       8 -> 24         0.00025
       8 -> 26        -0.00074
       8 -> 28         0.00199
       8 -> 32         0.00012
       8 -> 34        -0.00021
       8 -> 36        -0.00021
       8 -> 39        -0.00026
       8 -> 41        -0.00111
       8 -> 43         0.00037
       8 -> 46         0.00231
       8 -> 47        -0.00011
       8 -> 51        -0.00107
       3 <- 12         0.00034
       3 <- 15        -0.00030
       3 <- 18         0.00099
       3 <- 25         0.00023
       3 <- 30         0.00133
       3 <- 33         0.00026
       3 <- 35        -0.00063
       3 <- 40        -0.00048
       3 <- 49         0.00052
       3 <- 50        -0.00012
       3 <- 53        -0.00032
       4 <- 12         0.00030
       4 <- 15         0.00084
       4 <- 18         0.00043
       4 <- 22        -0.00116
       4 <- 25         0.00120
       4 <- 30        -0.00071
       4 <- 33         0.00046
       4 <- 35        -0.00028
       4 <- 42        -0.00011
       4 <- 49         0.00018
       5 <- 10         0.00120
       5 <- 11        -0.00135
       5 <- 14         0.00272
       5 <- 16        -0.00043
       5 <- 19         0.00141
       5 <- 20        -0.00042
       5 <- 21         0.00080
       5 <- 24        -0.00141
       5 <- 26         0.00010
       5 <- 28         0.00065
       5 <- 32        -0.00091
       5 <- 36         0.00013
       5 <- 39         0.00011
       5 <- 41        -0.00071
       5 <- 43         0.00010
       5 <- 46         0.00086
       5 <- 47        -0.00012
       5 <- 51        -0.00030
       6 <- 12        -0.00028
       6 <- 15        -0.00101
       6 <- 18         0.00033
       6 <- 22         0.00089
       6 <- 25        -0.00014
       6 <- 30         0.00108
       6 <- 33        -0.00046
       6 <- 35         0.00129
       6 <- 40         0.00088
       6 <- 49        -0.00104
       6 <- 50         0.00024
       7 <- 27         0.00034
       7 <- 38        -0.00067
       7 <- 45        -0.00166
       8 <- 10        -0.00080
       8 <- 11        -0.00170
       8 <- 14        -0.00362
       8 <- 16         0.00041
       8 <- 19         0.00518
       8 <- 21        -0.00196
       8 <- 24        -0.00045
       8 <- 26        -0.00165
       8 <- 28         0.00057
       8 <- 32        -0.00126
       8 <- 34         0.00159
       8 <- 39        -0.00070
       8 <- 41        -0.00103
       8 <- 43         0.00018
       8 <- 46         0.00185
       8 <- 47        -0.00030
       8 <- 51        -0.00071

 Excited State   4:      Singlet-A1     7.9310 eV  156.33 nm  f=0.0400  <S**2>=0.000
       3 -> 10         0.00221
       3 -> 11        -0.00031
       3 -> 14         0.00131
       3 -> 19        -0.00198
       3 -> 20         0.00219
       3 -> 21         0.00108
       3 -> 24         0.00085
       3 -> 26         0.00135
       3 -> 28         0.00084
       3 -> 32         0.00017
       3 -> 34        -0.00086
       3 -> 36        -0.00016
       3 -> 41        -0.00019
       3 -> 46         0.00021
       3 -> 47        -0.00030
       3 -> 51        -0.00015
       3 -> 54        -0.00017
       4 -> 10         0.00496
       4 -> 11         0.00419
       4 -> 14         0.00453
       4 -> 16         0.00067
       4 -> 19         0.00029
       4 -> 20         0.00307
       4 -> 21        -0.00054
       4 -> 24        -0.00684
       4 -> 26         0.00223
       4 -> 28        -0.00027
       4 -> 32        -0.00062
       4 -> 34         0.00026
       4 -> 43         0.00016
       4 -> 46        -0.00020
       4 -> 51        -0.00013
       5 -> 12         0.00564
       5 -> 15         0.00362
       5 -> 18         0.00906
       5 -> 22        -0.00264
       5 -> 25         0.00555
       5 -> 30        -0.00036
       5 -> 33        -0.00023
       5 -> 35         0.00074
       5 -> 50         0.00015
       5 -> 53        -0.00012
       6 -> 10         0.01035
       6 -> 11        -0.00259
       6 -> 14         0.00391
       6 -> 16        -0.00054
       6 -> 19         0.00240
       6 -> 20         0.00162
       6 -> 21        -0.00151
       6 -> 24        -0.00484
       6 -> 26        -0.00057
       6 -> 28        -0.00238
       6 -> 32        -0.00025
       6 -> 34        -0.00016
       6 -> 39         0.00021
       6 -> 43         0.00016
       6 -> 47         0.00072
       6 -> 51         0.00020
       6 -> 54        -0.00012
       7 ->  9         0.03638
       7 -> 13         0.01247
       7 -> 17         0.00030
       7 -> 23         0.00518
       7 -> 29        -0.00094
       7 -> 31        -0.00100
       7 -> 37         0.00058
       7 -> 44         0.00060
       7 -> 48        -0.00031
       8 -> 12         0.70517
       8 -> 15         0.00282
       8 -> 18         0.02920
       8 -> 22         0.00204
       8 -> 25         0.00483
       8 -> 30        -0.00097
       8 -> 33         0.00174
       8 -> 35        -0.00204
       8 -> 40         0.00034
       8 -> 49        -0.00047
       8 -> 50         0.00024
       8 -> 53        -0.00026
       3 <- 10         0.00068
       3 <- 11         0.00043
       3 <- 14         0.00068
       3 <- 16         0.00016
       3 <- 19        -0.00120
       3 <- 20         0.00095
       3 <- 21         0.00073
       3 <- 24         0.00024
       3 <- 26         0.00093
       3 <- 28         0.00056
       3 <- 32         0.00028
       3 <- 34        -0.00059
       3 <- 36        -0.00011
       3 <- 41        -0.00011
       3 <- 46         0.00029
       3 <- 47        -0.00023
       3 <- 51        -0.00012
       3 <- 54        -0.00015
       4 <- 10         0.00398
       4 <- 11         0.00077
       4 <- 14         0.00329
       4 <- 20         0.00177
       4 <- 21        -0.00046
       4 <- 24        -0.00368
       4 <- 26         0.00136
       4 <- 32        -0.00082
       4 <- 34        -0.00015
       4 <- 41        -0.00013
       4 <- 43         0.00013
       4 <- 46        -0.00014
       4 <- 51        -0.00012
       5 <- 12         0.00275
       5 <- 15         0.00306
       5 <- 18         0.00324
       5 <- 22        -0.00102
       5 <- 25         0.00302
       5 <- 30        -0.00019
       5 <- 33        -0.00037
       5 <- 35         0.00066
       5 <- 53        -0.00010
       6 <- 10         0.00244
       6 <- 14         0.00148
       6 <- 16        -0.00023
       6 <- 19         0.00063
       6 <- 20         0.00073
       6 <- 21        -0.00090
       6 <- 24        -0.00233
       6 <- 26        -0.00015
       6 <- 28        -0.00155
       6 <- 32        -0.00033
       6 <- 34        -0.00019
       6 <- 46        -0.00016
       6 <- 47         0.00059
       6 <- 51         0.00022
       6 <- 54        -0.00011
       7 <-  9        -0.00267
       7 <- 13         0.00255
       7 <- 17        -0.00037
       7 <- 23         0.00262
       7 <- 29        -0.00075
       7 <- 31        -0.00065
       7 <- 37         0.00044
       7 <- 44         0.00051
       7 <- 48        -0.00028
       8 <- 12        -0.00037
       8 <- 15        -0.00355
       8 <- 18        -0.00163
       8 <- 25        -0.00126
       8 <- 30        -0.00123
       8 <- 33         0.00066
       8 <- 35        -0.00076
       8 <- 40         0.00042
       8 <- 42         0.00010
       8 <- 49        -0.00046
       8 <- 50         0.00015
       8 <- 53        -0.00026

 Excited State   5:      Singlet-B1     8.3369 eV  148.72 nm  f=0.0012  <S**2>=0.000
       3 ->  9        -0.03340
       3 -> 13         0.00500
       3 -> 17        -0.00701
       3 -> 23         0.00399
       3 -> 29        -0.00257
       3 -> 31        -0.00024
       3 -> 44         0.00065
       3 -> 48         0.00016
       3 -> 52         0.00113
       4 ->  9         0.01687
       4 -> 13        -0.00276
       4 -> 17         0.00098
       4 -> 23        -0.00249
       4 -> 31        -0.00250
       4 -> 37        -0.00040
       4 -> 48        -0.00162
       4 -> 52        -0.00097
       5 -> 27        -0.00174
       5 -> 38         0.00212
       5 -> 45         0.00288
       6 ->  9         0.70501
       6 -> 13        -0.03501
       6 -> 17         0.02281
       6 -> 23        -0.01243
       6 -> 29         0.00799
       6 -> 31         0.00367
       6 -> 37        -0.00262
       6 -> 44        -0.00351
       6 -> 48         0.00557
       6 -> 52         0.00196
       7 -> 10         0.00312
       7 -> 11         0.00896
       7 -> 14         0.00057
       7 -> 16        -0.01258
       7 -> 19        -0.00380
       7 -> 20         0.00272
       7 -> 21         0.00390
       7 -> 24         0.00293
       7 -> 26         0.00256
       7 -> 28        -0.00465
       7 -> 32        -0.00130
       7 -> 36        -0.00156
       7 -> 39         0.00034
       7 -> 41        -0.00217
       7 -> 43         0.00104
       7 -> 46         0.00499
       7 -> 47         0.00229
       7 -> 51         0.00109
       7 -> 54         0.00054
       8 -> 27         0.00306
       8 -> 38         0.00102
       8 -> 45         0.00684
       3 <-  9        -0.01036
       3 <- 13         0.00083
       3 <- 17        -0.00337
       3 <- 23         0.00055
       3 <- 29        -0.00152
       3 <- 31        -0.00013
       3 <- 37        -0.00017
       3 <- 44        -0.00011
       3 <- 48         0.00045
       3 <- 52         0.00091
       4 <-  9         0.00529
       4 <- 17         0.00250
       4 <- 23        -0.00032
       4 <- 29         0.00223
       4 <- 31        -0.00248
       4 <- 37         0.00022
       4 <- 44         0.00020
       4 <- 48        -0.00139
       4 <- 52        -0.00053
       5 <- 27        -0.00173
       5 <- 38         0.00160
       5 <- 45         0.00253
       6 <-  9        -0.02122
       6 <- 13         0.00329

 The electronic state is 1-A1.
 Alpha  occ. eigenvalues --  -19.15543 -10.28957  -1.04199  -0.65570  -0.49853
 Alpha  occ. eigenvalues --   -0.45596  -0.39418  -0.28577
 Alpha virt. eigenvalues --   -0.08169   0.00571   0.03744   0.04223   0.06352
 Alpha virt. eigenvalues --    0.12605   0.17091   0.18717   0.21919   0.23424
 Alpha virt. eigenvalues --    0.25803   0.31413   0.43727   0.45313   0.50920

 Mulliken charges:
               1
     1  C    0.003256
     2  H    0.128362
     3  H    0.128362
     4  O   -0.259981
 Sum of Mulliken charges =  -0.00000

 Dipole moment (field-independent basis, Debye):
    X=             -0.0000    Y=             -0.0000    Z=             -2.7771  Tot=              2.7771
 Quadrupole moment (field-independent basis, Debye-Ang):
   XX=            -11.9501   YY=            -11.7303   ZZ=            -12.2588
   XY=              0.0000   XZ=              0.0000   YZ=              0.0000

 Normal termination of Gaussian 16 at Fri Sep 17 10:52:45 2021.
