 Gaussian 16, Revision C.01,
 Gaussian 16:  ES64L-G16RevC.01  3-Jul-2019

 ------------------------------------
 #P wB97XD/6-311+G* pop=(NBO,saveNBO)
 ------------------------------------

 -------
 TitleMe
 -------
 Symbolic Z-matrix:
 Charge =  1 Multiplicity = 1

                         Standard orientation:
 ---------------------------------------------------------------------
 Center     Atomic      Atomic             Coordinates (Angstroms)
 Number     Number       Type             X           Y           Z
 ---------------------------------------------------------------------
      1          6           0        0.185365    2.270990   -0.120569
      2          6           0        1.347247    1.496722   -0.299839
      3          6           0        1.401609    0.160972    0.145112
      4          6           0        0.340440   -0.440599    0.753273
      5          6           0       -0.910584    1.710178    0.490381
      6          1           0        0.164354    3.295210   -0.467630
      7          1           0        2.226796    1.912423   -0.783499
      8          1           0        0.407751   -1.470839    1.089253
      9          1           0       -1.818505    2.284437    0.641361
     10          7           0        2.645040   -0.606046   -0.064077
     11          8           0        2.650062   -1.785716    0.331824
     12          8           0        3.586069   -0.005525   -0.616377
     13          6           0       -0.904512    0.313369    0.956892
     14          1           0       -1.353871    0.167078    1.943252
     15         35           0       -2.193950   -0.591024   -0.321408
 ---------------------------------------------------------------------

 SCF Done:  E(RwB97XD) =  -3010.53533956     A.U. after   18 cycles

 The electronic state is 1-A.
 Alpha  occ. eigenvalues -- -483.31077 -62.86104 -56.65793 -56.65225 -56.65223
 Alpha  occ. eigenvalues --  -19.45661 -19.45590 -14.85165 -10.58095 -10.57294
 Alpha  occ. eigenvalues --  -10.56966 -10.56773 -10.56520 -10.52725  -9.01911
 Alpha  occ. eigenvalues --   -6.84580  -6.82720  -6.82706  -2.94487  -2.93993
 Alpha  occ. eigenvalues --   -2.93980  -2.92492  -2.92491  -1.49427  -1.32401
 Alpha  occ. eigenvalues --   -1.22417  -1.13847  -1.11526  -1.04210  -1.00814
 Alpha  occ. eigenvalues --   -0.95232  -0.90722  -0.85053  -0.80530  -0.80415
 Alpha  occ. eigenvalues --   -0.79767  -0.78071  -0.75875  -0.75687  -0.72069
 Alpha  occ. eigenvalues --   -0.69115  -0.67321  -0.63456  -0.59921  -0.56937
 Alpha  occ. eigenvalues --   -0.56237  -0.55925  -0.55400  -0.55035
 Alpha virt. eigenvalues --   -0.29400  -0.21087  -0.15429  -0.13152  -0.08511
 Alpha virt. eigenvalues --   -0.05940  -0.05447  -0.04608  -0.04463  -0.02975
 Alpha virt. eigenvalues --   -0.02290  -0.02145  -0.01222  -0.00850   0.00539

 Mulliken charges:
               1
     1  C   -0.577511
     2  C    0.517193
     3  C   -0.717015
     4  C    0.287411
     5  C    0.004044
     6  H    0.333903
     7  H    0.366281
     8  H    0.373754
     9  H    0.350800
    10  N   -0.106913
    11  O    0.031038
    12  O    0.027859
    13  C   -0.469927
    14  H    0.403960
    15  Br   0.175122
 Sum of Mulliken charges =   1.00000

 Dipole moment (field-independent basis, Debye):
    X=             -3.0078    Y=              5.6682    Z=              2.1990  Tot=              6.7831
 Quadrupole moment (field-independent basis, Debye-Ang):
   XX=            -63.4311   YY=            -51.8984   ZZ=            -61.1655
   XY=              5.1429   XZ=             -1.7456   YZ=             -0.8807

 Summary of Natural Population Analysis:

                                       Natural Population
                Natural  -----------------------------------------------
    Atom  No    Charge         Core      Valence    Rydberg      Total
 -----------------------------------------------------------------------
      C    1   -0.25528      1.99915     4.23706    0.01907     6.25528
      C    2    0.07776      1.99913     3.90400    0.01910     5.92224
      C    3    0.00895      1.99874     3.96958    0.02273     5.99105
      C    4    0.03048      1.99903     3.94884    0.02165     5.96952
      C    5    0.04558      1.99917     3.93618    0.01907     5.95442
      H    6    0.26723      0.00000     0.73224    0.00053     0.73277
      H    7    0.28108      0.00000     0.71789    0.00102     0.71892
      H    8    0.28917      0.00000     0.70956    0.00127     0.71083
      H    9    0.25737      0.00000     0.74215    0.00048     0.74263
      N   10    0.47574      1.99946     4.47060    0.05420     6.52426
      O   11   -0.32290      1.99982     6.30927    0.01381     8.32290
      O   12   -0.32474      1.99982     6.31120    0.01372     8.32474
      C   13   -0.37677      1.99905     4.35002    0.02770     6.37677
      H   14    0.31792      0.00000     0.68121    0.00087     0.68208
     Br   15    0.22840     27.99945     6.75825    0.01390    34.77160
 =======================================================================
   * Total *    1.00000     45.99280    51.77807    0.22913    98.00000

 Normal termination of Gaussian 16 at Tue May 23 16:47:53 2023.
