 Gaussian 16, Revision A.03,
 Gaussian 16:  ES64L-G16RevA.03 25-Dec-2016

 --------------------------------------------------------------------
 #p B3LYP/6-311+G** #p TD=(singlets,nstates=30)IOp(6/8=3) IOp(9/40=4)
 --------------------------------------------------------------------

 ---------------------------------------------
 Scan Step 278, Bond Length 1.8900000000000001
 ---------------------------------------------
 Symbolic Z-matrix:
 Charge =  0 Multiplicity = 1

                         Standard orientation:
 ---------------------------------------------------------------------
 Center     Atomic      Atomic             Coordinates (Angstroms)
 Number     Number       Type             X           Y           Z
 ---------------------------------------------------------------------
      1          6           0        0.000000   -0.000000   -0.871081
      2          1           0        0.000000    0.937260   -1.462431
      3          1           0       -0.000000   -0.937260   -1.462431
      4          8           0        0.000000    0.000000    1.018919
 ---------------------------------------------------------------------

 SCF Done:  E(RB3LYP) =  -114.327956639     A.U. after   12 cycles

 Excitation energies and oscillator strengths:

 Excited State   1:      Singlet-A2     1.1662 eV 1063.16 nm  f=0.0000  <S**2>=0.000
       3 -> 27         0.00064
       3 -> 38         0.00038
       3 -> 47         0.00331
       4 -> 27         0.00033
       4 -> 47        -0.00087
       5 ->  9         0.00082
       5 -> 13         0.00108
       5 -> 18         0.00149
       5 -> 23         0.00127
       5 -> 28         0.00111
       5 -> 37         0.00065
       5 -> 44         0.00018
       5 -> 52         0.00015
       6 -> 27        -0.00054
       6 -> 38        -0.00052
       6 -> 47         0.00086
       7 -> 12        -0.00137
       7 -> 16         0.00537
       7 -> 19        -0.00483
       7 -> 22        -0.00114
       7 -> 25        -0.00049
       7 -> 29        -0.00199
       7 -> 33         0.00026
       7 -> 49         0.00013
       7 -> 53         0.00036
       8 ->  9         0.71147
       8 -> 13        -0.00582
       8 -> 18         0.02055
       8 -> 23        -0.00060
       8 -> 28         0.01002
       8 -> 31         0.00161
       8 -> 37         0.00047
       8 -> 46        -0.00028
       8 -> 52         0.00182
       3 <- 27         0.00015
       3 <- 38         0.00017
       3 <- 47         0.00334
       4 <- 27         0.00063
       4 <- 38         0.00017
       4 <- 47        -0.00067
       5 <-  9         0.00049
       5 <- 13        -0.00030
       5 <- 18        -0.00032
       5 <- 23         0.00015
       5 <- 28        -0.00025
       5 <- 31         0.00020
       5 <- 37         0.00037
       6 <- 38        -0.00038
       6 <- 47         0.00062
       7 <- 12         0.00205
       7 <- 16        -0.01052
       7 <- 19         0.00594
       7 <- 22         0.00539
       7 <- 25        -0.00064
       7 <- 29         0.00565
       7 <- 33        -0.00034
       7 <- 49        -0.00047
       7 <- 53         0.00144
       8 <-  9        -0.08085
       8 <- 13        -0.00060
       8 <- 18        -0.00791
       8 <- 23        -0.00041
       8 <- 28        -0.00279
       8 <- 31        -0.00084
       8 <- 37        -0.00017
       8 <- 46         0.00013
       8 <- 52         0.00042
 This state for optimization and/or second-order correction.
 Total Energy, E(TD-HF/TD-DFT) =  -114.285100009
 Copying the excited state density for this state as the 1-particle RhoCI density.

 Excited State   2:      Singlet-A1     3.0632 eV  404.76 nm  f=0.0249  <S**2>=0.000
       3 -> 10        -0.01298
       3 -> 11        -0.00240
       3 -> 14         0.00056
       3 -> 15         0.00018
       3 -> 17        -0.00294
       3 -> 20        -0.00331
       3 -> 21         0.00060
       3 -> 24         0.00025
       3 -> 26         0.00094
       3 -> 30        -0.00014
       3 -> 32         0.00268
       3 -> 34         0.00097
       3 -> 36        -0.00091
       3 -> 39        -0.00034
       3 -> 43         0.00048
       3 -> 45        -0.00115
       3 -> 48         0.00231
       3 -> 50         0.00162
       3 -> 54        -0.00012
       4 -> 10        -0.00063
       4 -> 11         0.00955
       4 -> 14         0.00150
       4 -> 15        -0.00724
       4 -> 17         0.00203
       4 -> 20         0.00170
       4 -> 21         0.00022
       4 -> 24        -0.00364
       4 -> 26         0.00292
       4 -> 30         0.00014
       4 -> 32        -0.00111
       4 -> 34        -0.00069
       4 -> 39        -0.00025
       4 -> 43        -0.00043
       4 -> 45         0.00075
       4 -> 48        -0.00070
       4 -> 50        -0.00024
       4 -> 54         0.00014
       5 -> 12         0.00848
       5 -> 16         0.00172
       5 -> 19         0.00104
       5 -> 22         0.00643
       5 -> 25        -0.00398
       5 -> 29         0.00034
       5 -> 33        -0.00230
       5 -> 35         0.00271
       5 -> 40        -0.00090
       5 -> 42        -0.00099
       5 -> 51        -0.00088
       6 -> 10         0.25934
       6 -> 11         0.03137
       6 -> 14        -0.03449
       6 -> 15        -0.01989
       6 -> 17        -0.01485
       6 -> 20        -0.00061
       6 -> 21         0.00435
       6 -> 24        -0.00700
       6 -> 26        -0.00263
       6 -> 30        -0.00284
       6 -> 32         0.00460
       6 -> 34         0.00137
       6 -> 36         0.00065
       6 -> 39        -0.00146
       6 -> 43         0.00079
       6 -> 45        -0.00093
       6 -> 48         0.00072
       6 -> 50         0.00048
       6 -> 54        -0.00098
       7 ->  9         0.67418
       7 -> 13        -0.00768
       7 -> 18        -0.00908
       7 -> 23        -0.00291
       7 -> 28         0.00157
       7 -> 31        -0.00329
       7 -> 37         0.00135
       7 -> 44        -0.00095
       7 -> 52         0.00105
       8 -> 12        -0.00718
       8 -> 16         0.03196
       8 -> 19        -0.01730
       8 -> 22        -0.01060
       8 -> 29        -0.00728
       8 -> 33         0.00083
       8 -> 35        -0.00052
       8 -> 40         0.00017
       8 -> 42         0.00019
       8 -> 51         0.00013
       8 -> 53        -0.00048
       3 <- 10        -0.01055
       3 <- 11        -0.00229
       3 <- 14         0.00046
       3 <- 15        -0.00026
       3 <- 17        -0.00173
       3 <- 20        -0.00296
       3 <- 21         0.00017
       3 <- 24        -0.00020
       3 <- 26         0.00011
       3 <- 30         0.00020
       3 <- 32         0.00229
       3 <- 34         0.00050
       3 <- 36        -0.00096
       3 <- 39        -0.00028
       3 <- 43         0.00051
       3 <- 45        -0.00126
       3 <- 48         0.00231
       3 <- 50         0.00163
       4 <- 10         0.00072
       4 <- 11         0.00724
       4 <- 14         0.00130
       4 <- 15        -0.00513
       4 <- 17         0.00127
       4 <- 20         0.00227
       4 <- 24        -0.00284
       4 <- 26         0.00264
       4 <- 30        -0.00039
       4 <- 32        -0.00110
       4 <- 34        -0.00058
       4 <- 36         0.00030
       4 <- 39        -0.00029
       4 <- 43        -0.00038
       4 <- 45         0.00067
       4 <- 48        -0.00042
       4 <- 50        -0.00012
       4 <- 54         0.00011
       5 <- 12         0.00538
       5 <- 16         0.00122
       5 <- 19         0.00087
       5 <- 22         0.00477
       5 <- 25        -0.00319
       5 <- 29         0.00035
       5 <- 33        -0.00195
       5 <- 35         0.00237
       5 <- 40        -0.00083
       5 <- 42        -0.00089
       5 <- 51        -0.00084
       6 <- 10         0.09052
       6 <- 11         0.01383
       6 <- 14        -0.01756
       6 <- 15        -0.01115
       6 <- 17        -0.00935
       6 <- 20        -0.00171
       6 <- 21         0.00319
       6 <- 24        -0.00472
       6 <- 26        -0.00124
       6 <- 30        -0.00162
       6 <- 32         0.00433
       6 <- 34         0.00152
       6 <- 36         0.00016
       6 <- 39        -0.00131
       6 <- 43         0.00066
       6 <- 45        -0.00068
       6 <- 48         0.00040
       6 <- 50         0.00035
       6 <- 54        -0.00091
       7 <-  9        -0.13035
       7 <- 13         0.00262
       7 <- 18        -0.01073
       7 <- 23         0.00034
       7 <- 28        -0.00134
       7 <- 31        -0.00158
       7 <- 37         0.00065
       7 <- 44        -0.00083
       7 <- 46        -0.00045
       7 <- 52         0.00098
       8 <- 12        -0.00325
       8 <- 16         0.01711
       8 <- 19        -0.01056
       8 <- 22        -0.00730
       8 <- 25         0.00013
       8 <- 29        -0.00596
       8 <- 33         0.00067
       8 <- 35        -0.00040
       8 <- 40         0.00013
       8 <- 42         0.00015
       8 <- 49        -0.00011
       8 <- 51         0.00011
       8 <- 53        -0.00045

 Excited State   3:      Singlet-B2     3.2268 eV  384.24 nm  f=0.0018  <S**2>=0.000
       3 -> 12        -0.00112
       3 -> 16         0.00107
       3 -> 19        -0.00365
       3 -> 22         0.00110
       3 -> 25        -0.00088
       3 -> 29        -0.00239
       3 -> 33         0.00029
       3 -> 35         0.00122
       3 -> 40        -0.00117
       3 -> 42        -0.00042
       3 -> 49        -0.00397
       3 -> 51         0.00015
       3 -> 53         0.00025
       4 -> 12         0.00035
       4 -> 16        -0.00130
       4 -> 19         0.00032
       4 -> 22         0.00159
       4 -> 25         0.00052
       4 -> 29         0.00078
       4 -> 33        -0.00030
       4 -> 35         0.00041
       4 -> 40         0.00024
       4 -> 42         0.00010
       4 -> 49         0.00073
       5 -> 10         0.00947
       5 -> 11         0.00104
       5 -> 14        -0.00273
       5 -> 15         0.00282
       5 -> 17        -0.00052
       5 -> 20         0.00189
       5 -> 21         0.00268
       5 -> 24         0.00133
       5 -> 26        -0.00038
       5 -> 30        -0.00211
       5 -> 32        -0.00093
       5 -> 34        -0.00018
       5 -> 39         0.00058
       5 -> 41         0.00037
       5 -> 48        -0.00033
       5 -> 50         0.00022
       5 -> 54        -0.00017
       6 -> 12         0.00240
       6 -> 16        -0.00283
       6 -> 19         0.00424
       6 -> 22        -0.00066
       6 -> 25         0.00115
       6 -> 29         0.00029
       6 -> 33        -0.00018
       6 -> 35        -0.00111
       6 -> 40         0.00070
       6 -> 42         0.00060
       6 -> 49         0.00110
       6 -> 53        -0.00045
       7 -> 27        -0.00049
       7 -> 38         0.00029
       7 -> 47         0.00285
       8 -> 10         0.70496
       8 -> 11         0.04963
       8 -> 14        -0.04716
       8 -> 15        -0.01969
       8 -> 17        -0.01647
       8 -> 20         0.00590
       8 -> 21         0.00536
       8 -> 24        -0.00540
       8 -> 26        -0.00407
       8 -> 30        -0.01342
       8 -> 32         0.00022
       8 -> 34        -0.00104
       8 -> 36         0.00164
       8 -> 39         0.00039
       8 -> 41        -0.00017
       8 -> 45        -0.00078
       8 -> 48        -0.00351
       8 -> 50         0.00126
       8 -> 54        -0.00248
       3 <- 12        -0.00039
       3 <- 16         0.00039
       3 <- 19        -0.00183
       3 <- 22         0.00090
       3 <- 25        -0.00079
       3 <- 29        -0.00098
       3 <- 33         0.00028
       3 <- 35         0.00079
       3 <- 40        -0.00101
       3 <- 42        -0.00026
       3 <- 49        -0.00402
       3 <- 51         0.00015
       3 <- 53         0.00069
       4 <- 12         0.00011
       4 <- 16        -0.00159
       4 <- 19         0.00019
       4 <- 22         0.00196
       4 <- 25         0.00027
       4 <- 29         0.00104
       4 <- 33        -0.00031
       4 <- 35         0.00058
       4 <- 49         0.00051
       5 <- 10        -0.00094
       5 <- 11        -0.00054
       5 <- 14        -0.00041
       5 <- 15         0.00226
       5 <- 17         0.00019
       5 <- 20         0.00077
       5 <- 21         0.00152
       5 <- 24         0.00148
       5 <- 30        -0.00046
       5 <- 32        -0.00025
       5 <- 39         0.00028
       5 <- 41         0.00040
       5 <- 45        -0.00020
       5 <- 48        -0.00035
       5 <- 50         0.00012
       6 <- 12        -0.00094
       6 <- 16         0.00804
       6 <- 19        -0.00450
       6 <- 22        -0.00520
       6 <- 25         0.00131
       6 <- 29        -0.00619
       6 <- 33         0.00017
       6 <- 35        -0.00092
       6 <- 40         0.00069
       6 <- 42         0.00059
       6 <- 49         0.00161
       6 <- 53        -0.00144
       7 <- 27        -0.00050
       7 <- 38         0.00023
       7 <- 47         0.00248
       8 <- 10        -0.04978
       8 <- 11        -0.00711
       8 <- 14         0.00712
       8 <- 15         0.00221
       8 <- 17         0.00235
       8 <- 20        -0.00343
       8 <- 21        -0.00115
       8 <- 24         0.00145
       8 <- 26         0.00105
       8 <- 30         0.00234
       8 <- 32         0.00246
       8 <- 34         0.00079
       8 <- 36        -0.00087
       8 <- 39        -0.00094
       8 <- 41         0.00018
       8 <- 43         0.00035
       8 <- 45        -0.00148
       8 <- 48        -0.00293
       8 <- 50         0.00112
       8 <- 54        -0.00066

 Excited State   4:      Singlet-B1     3.4701 eV  357.30 nm  f=0.0000  <S**2>=0.000
       3 ->  9        -0.02083
       3 -> 13         0.00068
       3 -> 18        -0.00363
       3 -> 23         0.00116
       3 -> 28        -0.00126
       3 -> 31        -0.00099
       3 -> 37         0.00017
       3 -> 44         0.00030
       3 -> 46        -0.00056
       3 -> 52         0.00060
       4 ->  9         0.00070
       4 -> 13        -0.00040
       4 -> 18         0.00022
       4 -> 23        -0.00042
       4 -> 28         0.00065
       4 -> 31        -0.00099
       4 -> 37        -0.00014
       4 -> 46        -0.00016
       4 -> 52        -0.00021
       5 -> 27        -0.00126
       5 -> 38         0.00070
       5 -> 47         0.00038
       6 ->  9         0.56943
       6 -> 13        -0.01467
       6 -> 18         0.01283
       6 -> 23        -0.00894
       6 -> 28         0.00377
       6 -> 31         0.00116
       6 -> 37        -0.00078
       6 -> 44        -0.00128
       6 -> 46         0.00279
       6 -> 52         0.00062
       7 -> 10         0.42365
       7 -> 11         0.03174
       7 -> 14        -0.03131
       7 -> 15        -0.01338
       7 -> 17        -0.01185
       7 -> 20         0.00416
       7 -> 21         0.00238
       7 -> 24        -0.00490
       7 -> 26        -0.00401
       7 -> 30        -0.00685
       7 -> 32         0.00097
       7 -> 34        -0.00025
       7 -> 36         0.00114
       7 -> 41        -0.00015
       7 -> 43         0.00048
       7 -> 45        -0.00092
       7 -> 48         0.00329
       7 -> 50         0.00110
       7 -> 54        -0.00074
       8 -> 27         0.00012
       8 -> 47         0.00400
       3 <-  9        -0.00692
       3 <- 13        -0.00065
       3 <- 18        -0.00237
       3 <- 23        -0.00031
       3 <- 28        -0.00076
       3 <- 31        -0.00074
       3 <- 37         0.00011
       3 <- 46        -0.00050
       3 <- 52         0.00067
       4 <-  9         0.00136
       4 <- 13         0.00025
       4 <- 18         0.00124
       4 <- 28         0.00145
       4 <- 31        -0.00073
       4 <- 44        -0.00028
       4 <- 46        -0.00021
       5 <- 27        -0.00139
       5 <- 38         0.00065
       5 <- 47         0.00034
       6 <-  9        -0.05368
       6 <- 13         0.00232
       6 <- 18        -0.00609
       6 <- 23         0.00058
       6 <- 28        -0.00420
       6 <- 31        -0.00127
       6 <- 37        -0.00048
       6 <- 46         0.00263
       6 <- 52        -0.00043
       7 <- 10        -0.06129
       7 <- 11        -0.00890
       7 <- 14         0.01218
       7 <- 15         0.00675
       7 <- 17         0.00357
       7 <- 20         0.00098
       7 <- 21        -0.00308
       7 <- 24         0.00337
       7 <- 26         0.00176
       7 <- 30         0.00234
       7 <- 32         0.00013
       7 <- 34         0.00042
       7 <- 36         0.00044
       7 <- 39        -0.00051
       7 <- 41         0.00024
       7 <- 43         0.00027
       7 <- 45        -0.00063
       7 <- 48         0.00303
       7 <- 50         0.00131
       7 <- 54         0.00050
       8 <- 27         0.00049
       8 <- 47         0.00369

 Excited State   5:      Singlet-B1     4.0054 eV  309.54 nm  f=0.0062  <S**2>=0.000
       3 ->  9         0.00214
       3 -> 13        -0.00014
       3 -> 18        -0.00091
       3 -> 28        -0.00202
       3 -> 31        -0.00109
       3 -> 44        -0.00016
       3 -> 46        -0.00329
       3 -> 52        -0.00035
       4 ->  9        -0.02957
       4 -> 13         0.00594
       4 -> 18         0.00069
       4 -> 23         0.00471
       4 -> 28         0.00064
       4 -> 31         0.00066
       4 -> 37         0.00036
       4 -> 44        -0.00039
       4 -> 46         0.00094
       4 -> 52         0.00020
       5 -> 27        -0.00590
       5 -> 38        -0.00370
       6 ->  9        -0.42194
       6 -> 13         0.00693
       6 -> 18        -0.00288
       6 -> 23         0.00466
       6 -> 28         0.00189
       6 -> 31        -0.00427
       6 -> 37         0.00270
       6 -> 44         0.00120
       6 -> 46        -0.00131
       6 -> 52        -0.00101
       7 -> 10         0.56456
       7 -> 11         0.03300
       7 -> 14        -0.03374
       7 -> 15        -0.02270
       7 -> 17        -0.00625
       7 -> 20        -0.00215
       7 -> 21         0.00212
       7 -> 24        -0.00752
       7 -> 26        -0.00417
       7 -> 30        -0.00645
       7 -> 32        -0.00045
       7 -> 34        -0.00339
       7 -> 36        -0.00142
       7 -> 39         0.00062
       7 -> 43         0.00035
       7 -> 45        -0.00071
       7 -> 48        -0.00022
       7 -> 50        -0.00014
       7 -> 54        -0.00161
       8 -> 27         0.00048
       8 -> 38         0.00018
       8 -> 47        -0.00025
       3 <-  9         0.00103
       3 <- 13         0.00088
       3 <- 23         0.00067
       3 <- 28        -0.00148
       3 <- 37        -0.00029
       3 <- 44        -0.00023
       3 <- 46        -0.00339
       4 <-  9        -0.01491
       4 <- 13         0.00295
       4 <- 18        -0.00014
       4 <- 23         0.00298
       4 <- 28         0.00049
       4 <- 31         0.00045
       4 <- 37         0.00034
       4 <- 44        -0.00052
       4 <- 46         0.00056
       4 <- 52         0.00015
       5 <- 27        -0.00431
       5 <- 38        -0.00312
       6 <-  9        -0.01904
       6 <- 13        -0.00086
       6 <- 18        -0.00214
       6 <- 23         0.00056
       6 <- 28         0.00083
       6 <- 31        -0.00474
       6 <- 37         0.00257
       6 <- 44         0.00095
       6 <- 46        -0.00060
       6 <- 52        -0.00125
       7 <- 10        -0.00503
       7 <- 11        -0.00013
       7 <- 14        -0.00146
       7 <- 15        -0.00634
       7 <- 20        -0.00500
       7 <- 21        -0.00030
       7 <- 24        -0.00321
       7 <- 26        -0.00058
       7 <- 30        -0.00049
       7 <- 32         0.00115
       7 <- 34        -0.00215
       7 <- 36        -0.00242

 The electronic state is 1-A1.
 Alpha  occ. eigenvalues --  -19.17794 -10.34167  -0.88617  -0.71770  -0.49366
 Alpha  occ. eigenvalues --   -0.38221  -0.30269  -0.28620
 Alpha virt. eigenvalues --   -0.17695  -0.08922  -0.00193   0.04035   0.06086
 Alpha virt. eigenvalues --    0.06216   0.11610   0.13085   0.18652   0.20917
 Alpha virt. eigenvalues --    0.23911   0.30423   0.38483   0.39307   0.50506

 Mulliken charges:
               1
     1  C   -0.104866
     2  H    0.193921
     3  H    0.193921
     4  O   -0.282977
 Sum of Mulliken charges =   0.00000

 Dipole moment (field-independent basis, Debye):
    X=             -0.0000    Y=             -0.0000    Z=             -4.2771  Tot=              4.2771
 Quadrupole moment (field-independent basis, Debye-Ang):
   XX=            -13.0890   YY=            -12.0778   ZZ=            -10.4602
   XY=              0.0000   XZ=              0.0000   YZ=             -0.0000

 Normal termination of Gaussian 16 at Fri Sep 17 10:53:12 2021.
