 Gaussian 16, Revision A.03,
 Gaussian 16:  ES64L-G16RevA.03 25-Dec-2016

 --------------------------------------------------------------------
 #p B3LYP/6-311+G** #p TD=(singlets,nstates=30)IOp(6/8=3) IOp(9/40=4)
 --------------------------------------------------------------------

 ------------------------------
 Scan Step 9, Bond Length 0.545
 ------------------------------
 Symbolic Z-matrix:
 Charge =  0 Multiplicity = 1

                         Standard orientation:
 ---------------------------------------------------------------------
 Center     Atomic      Atomic             Coordinates (Angstroms)
 Number     Number       Type             X           Y           Z
 ---------------------------------------------------------------------
      1          6           0        0.000000   -0.000000   -0.198581
      2          1           0        0.000000    0.937260   -0.789931
      3          1           0       -0.000000   -0.937260   -0.789931
      4          8           0        0.000000    0.000000    0.346419
 ---------------------------------------------------------------------

 SCF Done:  E(RB3LYP) =  -110.250954161     A.U. after   11 cycles

 Excitation energies and oscillator strengths:

 Excited State   1:      Singlet-B2     4.3545 eV  284.73 nm  f=0.1526  <S**2>=0.000
       3 -> 11         0.00072
       3 -> 15         0.00135
       3 -> 19         0.00074
       3 -> 22         0.00119
       3 -> 25         0.00150
       3 -> 31        -0.00034
       3 -> 38         0.00013
       3 -> 40         0.00055
       3 -> 43         0.00025
       3 -> 54         0.00016
       4 ->  9        -0.00238
       4 -> 12         0.00160
       4 -> 13         0.00286
       4 -> 16         0.00118
       4 -> 17         0.00160
       4 -> 20         0.00203
       4 -> 21         0.00154
       4 -> 24         0.00105
       4 -> 26         0.00068
       4 -> 30         0.00157
       4 -> 32         0.00052
       4 -> 33         0.00087
       4 -> 37        -0.00049
       4 -> 42         0.00043
       4 -> 44        -0.00024
       4 -> 47        -0.00066
       4 -> 49        -0.00011
       4 -> 51        -0.00012
       4 -> 53        -0.00014
       5 -> 28         0.00216
       5 -> 35         0.00097
       5 -> 45         0.00065
       6 -> 11         0.00929
       6 -> 15        -0.00178
       6 -> 19         0.00230
       6 -> 22         0.00020
       6 -> 25        -0.00351
       6 -> 29        -0.00108
       6 -> 31         0.00077
       6 -> 40        -0.00014
       6 -> 43        -0.00019
       6 -> 46        -0.00020
       7 -> 11         0.00817
       7 -> 15         0.00528
       7 -> 19         0.00393
       7 -> 22         0.00076
       7 -> 25         0.00253
       7 -> 29        -0.00087
       7 -> 31         0.00105
       7 -> 38        -0.00062
       7 -> 43        -0.00032
       7 -> 46         0.00048
       7 -> 50         0.00040
       7 -> 54        -0.00016
       8 ->  9         0.70409
       8 -> 12        -0.00685
       8 -> 13         0.06566
       8 -> 16        -0.00687
       8 -> 17        -0.02416
       8 -> 20         0.00620
       8 -> 21         0.01180
       8 -> 24        -0.00066
       8 -> 26         0.00115
       8 -> 30        -0.00356
       8 -> 32        -0.00168
       8 -> 33        -0.00125
       8 -> 37        -0.00092
       8 -> 39        -0.00028
       8 -> 42         0.00073
       8 -> 44         0.00058
       8 -> 47         0.00051
       8 -> 49         0.00026
       3 <- 11         0.00037
       3 <- 15         0.00095
       3 <- 19         0.00043
       3 <- 22         0.00101
       3 <- 25         0.00116
       3 <- 31        -0.00036
       3 <- 38         0.00015
       3 <- 40         0.00054
       3 <- 43         0.00026
       3 <- 46         0.00011
       3 <- 54         0.00017
       4 <-  9        -0.00093
       4 <- 12        -0.00011
       4 <- 13         0.00233
       4 <- 16         0.00122
       4 <- 20         0.00137
       4 <- 21         0.00128
       4 <- 24         0.00057
       4 <- 26         0.00122
       4 <- 30         0.00123
       4 <- 32         0.00029
       4 <- 33         0.00034
       4 <- 37        -0.00033
       4 <- 39         0.00014
       4 <- 42         0.00034
       4 <- 44        -0.00021
       4 <- 47        -0.00061
       5 <- 28         0.00188
       5 <- 35         0.00080
       5 <- 45         0.00055
       6 <- 11         0.00310
       6 <- 15        -0.00236
       6 <- 19         0.00097
       6 <- 22        -0.00039
       6 <- 25        -0.00277
       6 <- 29        -0.00079
       6 <- 31         0.00070
       6 <- 40        -0.00014
       6 <- 43        -0.00015
       6 <- 46        -0.00016
       7 <- 11         0.00194
       7 <- 15         0.00270
       7 <- 19         0.00101
       7 <- 22         0.00044
       7 <- 25         0.00166
       7 <- 29        -0.00161
       7 <- 31         0.00092
       7 <- 38        -0.00038
       7 <- 43        -0.00021
       7 <- 46         0.00051
       7 <- 50         0.00050
       8 <-  9        -0.01486
       8 <- 12        -0.00784
       8 <- 13         0.02710
       8 <- 16         0.00762
       8 <- 17        -0.00097
       8 <- 20         0.00170
       8 <- 21         0.00645
       8 <- 24         0.00259
       8 <- 26         0.00099
       8 <- 30        -0.00245
       8 <- 32        -0.00181
       8 <- 33        -0.00065
       8 <- 37        -0.00090
       8 <- 39        -0.00031
       8 <- 42         0.00069
       8 <- 44         0.00027
       8 <- 47         0.00047
       8 <- 49         0.00015
 This state for optimization and/or second-order correction.
 Total Energy, E(TD-HF/TD-DFT) =  -110.090930805
 Copying the excited state density for this state as the 1-particle RhoCI density.

 Excited State   2:      Singlet-A2     4.7500 eV  261.02 nm  f=0.0000  <S**2>=0.000
       3 -> 28        -0.00207
       3 -> 35        -0.00102
       3 -> 45        -0.00029
       4 -> 10        -0.00077
       4 -> 14        -0.00093
       4 -> 18        -0.00189
       4 -> 23        -0.00043
       4 -> 27        -0.00184
       4 -> 34         0.00028
       4 -> 36        -0.00096
       4 -> 48        -0.00015
       4 -> 52        -0.00019
       5 -> 11         0.00017
       5 -> 15        -0.00021
       5 -> 19         0.00029
       5 -> 22        -0.00063
       5 -> 25         0.00023
       5 -> 29         0.00037
       5 -> 38        -0.00032
       5 -> 40        -0.00015
       5 -> 43        -0.00035
       5 -> 46        -0.00024
       5 -> 50         0.00015
       6 -> 28         0.00321
       6 -> 35        -0.00083
       6 -> 45        -0.00021
       7 -> 28         0.00128
       7 -> 35        -0.00010
       7 -> 45        -0.00021
       8 -> 10         0.70673
       8 -> 14         0.00032
       8 -> 18         0.02424
       8 -> 23        -0.00352
       8 -> 27        -0.00029
       8 -> 34         0.00357
       8 -> 36        -0.00129
       8 -> 41         0.00071
       8 -> 48         0.00015
       8 -> 52         0.00025
       3 <- 28        -0.00174
       3 <- 35        -0.00088
       3 <- 45        -0.00028
       4 <- 10        -0.00022
       4 <- 14         0.00017
       4 <- 18        -0.00079
       4 <- 23        -0.00012
       4 <- 27        -0.00051
       4 <- 34         0.00060
       4 <- 36        -0.00059
       5 <- 11         0.00040
       5 <- 15        -0.00043
       5 <- 19         0.00092
       5 <- 22        -0.00075
       5 <- 25         0.00057
       5 <- 29         0.00114
       5 <- 38        -0.00054
       5 <- 40        -0.00011
       5 <- 43        -0.00039
       5 <- 46        -0.00028
       5 <- 54        -0.00017
       6 <- 28         0.00317
       6 <- 35        -0.00097
       6 <- 45        -0.00020
       7 <- 28         0.00126
       7 <- 35        -0.00021
       7 <- 45        -0.00024
       8 <- 10         0.00297
       8 <- 14         0.00130
       8 <- 18        -0.00768
       8 <- 23        -0.00010
       8 <- 27        -0.00094
       8 <- 34         0.00338
       8 <- 36        -0.00106
       8 <- 41         0.00040
       8 <- 52         0.00011

 Excited State   3:      Singlet-B2     5.4929 eV  225.72 nm  f=0.0394  <S**2>=0.000
       3 -> 11        -0.00029
       3 -> 15         0.00039
       3 -> 19        -0.00055
       3 -> 22         0.00020
       3 -> 31         0.00013
       3 -> 38        -0.00015
       3 -> 40        -0.00026
       3 -> 43        -0.00016
       3 -> 54        -0.00019
       4 ->  9         0.00067
       4 -> 13         0.00079
       4 -> 16         0.00150
       4 -> 17        -0.00079
       4 -> 20        -0.00054
       4 -> 21         0.00082
       4 -> 24         0.00088
       4 -> 30        -0.00196
       4 -> 32        -0.00012
       4 -> 37         0.00048
       4 -> 39        -0.00085
       4 -> 42        -0.00030
       4 -> 47         0.00036
       5 -> 28        -0.00099
       5 -> 35        -0.00106
       5 -> 45        -0.00056
       6 -> 11         0.00097
       6 -> 15        -0.00434
       6 -> 19         0.00197
       6 -> 22         0.00032
       6 -> 25        -0.00178
       6 -> 29        -0.00239
       6 -> 31        -0.00060
       6 -> 38        -0.00038
       6 -> 40         0.00036
       6 -> 43        -0.00028
       6 -> 46         0.00014
       6 -> 50         0.00016
       6 -> 54        -0.00012
       7 -> 11        -0.00098
       7 -> 15        -0.00342
       7 -> 19        -0.00132
       7 -> 22        -0.00040
       7 -> 25        -0.00261
       7 -> 29        -0.00080
       7 -> 31        -0.00040
       7 -> 38         0.00057
       7 -> 40        -0.00020
       7 -> 43         0.00012
       7 -> 46        -0.00059
       7 -> 50        -0.00027
       7 -> 54         0.00020
       8 ->  9         0.00355
       8 -> 12         0.70532
       8 -> 13         0.04381
       8 -> 16         0.02311
       8 -> 17         0.00083
       8 -> 20         0.01558
       8 -> 21         0.00521
       8 -> 24        -0.00105
       8 -> 26        -0.00203
       8 -> 30        -0.00327
       8 -> 32         0.00036
       8 -> 33         0.00035
       8 -> 37        -0.00090
       8 -> 39         0.00125
       8 -> 42         0.00097
       8 -> 44        -0.00018
       8 -> 47        -0.00016
       8 -> 51        -0.00012
       8 -> 53        -0.00011
       3 <- 11        -0.00012
       3 <- 15         0.00027
       3 <- 19        -0.00021
       3 <- 25         0.00014
       3 <- 31         0.00016
       3 <- 38        -0.00018
       3 <- 40        -0.00021
       3 <- 43        -0.00016
       3 <- 54        -0.00023
       4 <-  9        -0.00093
       4 <- 12        -0.00021
       4 <- 13         0.00089
       4 <- 16         0.00065
       4 <- 17         0.00039
       4 <- 20        -0.00033
       4 <- 21         0.00058
       4 <- 24         0.00091
       4 <- 26        -0.00019
       4 <- 30        -0.00136
       4 <- 32        -0.00039
       4 <- 33         0.00034
       4 <- 37         0.00031
       4 <- 39        -0.00060
       4 <- 42        -0.00033
       4 <- 44         0.00011
       4 <- 47         0.00033
       5 <- 28        -0.00064
       5 <- 35        -0.00094
       5 <- 45        -0.00050
       6 <- 11         0.00092
       6 <- 15        -0.00090
       6 <- 19        -0.00010
       6 <- 22         0.00052
       6 <- 25        -0.00164
       6 <- 29        -0.00180
       6 <- 31        -0.00075
       6 <- 38        -0.00041
       6 <- 40         0.00027
       6 <- 43        -0.00023
       6 <- 46         0.00010
       6 <- 54        -0.00012
       7 <- 11         0.00035
       7 <- 15        -0.00120
       7 <- 19        -0.00051
       7 <- 22        -0.00033
       7 <- 25        -0.00158
       7 <- 31        -0.00026
       7 <- 38         0.00026
       7 <- 40        -0.00012
       7 <- 46        -0.00051
       7 <- 50        -0.00034
       7 <- 54         0.00012
       8 <-  9        -0.00718
       8 <- 12         0.00059
       8 <- 13         0.01297
       8 <- 16         0.00458
       8 <- 17        -0.00224
       8 <- 20        -0.00328
       8 <- 21         0.00314
       8 <- 24         0.00050
       8 <- 30        -0.00254
       8 <- 32         0.00027
       8 <- 33         0.00044
       8 <- 37        -0.00077
       8 <- 39         0.00119
       8 <- 42         0.00083
       8 <- 44        -0.00012
       8 <- 47        -0.00015

 Excited State   4:      Singlet-A1     5.7698 eV  214.89 nm  f=0.0001  <S**2>=0.000
       3 ->  9         0.00183
       3 -> 12        -0.00019
       3 -> 16        -0.00133
       3 -> 17        -0.00190
       3 -> 21         0.00109
       3 -> 24        -0.00137
       3 -> 26         0.00037
       3 -> 30         0.00067
       3 -> 33        -0.00107
       3 -> 37         0.00063
       3 -> 39         0.00033
       3 -> 44        -0.00021
       3 -> 51        -0.00010
       3 -> 53         0.00018
       4 -> 11        -0.00517
       4 -> 15        -0.00440
       4 -> 19        -0.00480
       4 -> 22        -0.00278
       4 -> 25        -0.00314
       4 -> 29        -0.00116
       4 -> 38        -0.00077
       4 -> 40         0.00013
       4 -> 43         0.00014
       4 -> 46        -0.00013
       5 -> 10        -0.00186
       5 -> 14        -0.00380
       5 -> 18         0.00023
       5 -> 23         0.00383
       5 -> 27         0.00012
       5 -> 34        -0.00058
       5 -> 36        -0.00053
       6 ->  9        -0.00957
       6 -> 12        -0.00905
       6 -> 13         0.00279
       6 -> 16         0.00766
       6 -> 17         0.00361
       6 -> 20        -0.00389
       6 -> 21        -0.00340
       6 -> 24         0.00456
       6 -> 26         0.00269
       6 -> 30         0.00038
       6 -> 32        -0.00351
       6 -> 33        -0.00157
       6 -> 37        -0.00201
       6 -> 39         0.00109
       6 -> 42         0.00041
       6 -> 44        -0.00101
       6 -> 47         0.00023
       6 -> 49         0.00039
       6 -> 51         0.00018
       7 ->  9         0.01463
       7 -> 12        -0.01120
       7 -> 13        -0.00275
       7 -> 16         0.00506
       7 -> 17        -0.01164
       7 -> 20        -0.00257
       7 -> 21        -0.00246
       7 -> 24        -0.00120
       7 -> 26         0.00401
       7 -> 30        -0.00115
       7 -> 32         0.00027
       7 -> 33        -0.00106
       7 -> 37        -0.00093
       7 -> 39         0.00011
       7 -> 42         0.00011
       7 -> 53        -0.00015
       8 -> 11         0.70419
       8 -> 15         0.05751
       8 -> 19        -0.02476
       8 -> 22        -0.00167
       8 -> 25         0.01099
       8 -> 29        -0.00185
       8 -> 31         0.00234
       8 -> 38        -0.00371
       8 -> 40         0.00115
       8 -> 43         0.00187
       8 -> 46        -0.00123
       8 -> 50         0.00024
       3 <-  9         0.00119
       3 <- 16        -0.00092
       3 <- 17        -0.00123
       3 <- 21         0.00083
       3 <- 24        -0.00103
       3 <- 26         0.00030
       3 <- 30         0.00056
       3 <- 33        -0.00083
       3 <- 37         0.00052
       3 <- 39         0.00028
       3 <- 44        -0.00018
       3 <- 53         0.00016
       4 <- 11        -0.00244
       4 <- 15        -0.00195
       4 <- 19        -0.00296
       4 <- 22        -0.00194
       4 <- 25        -0.00188
       4 <- 29        -0.00085
       4 <- 38        -0.00065
       4 <- 40         0.00013
       4 <- 43         0.00015
       5 <- 10        -0.00117
       5 <- 14        -0.00247
       5 <- 18         0.00015
       5 <- 23         0.00283
       5 <- 27         0.00010
       5 <- 34        -0.00049
       5 <- 36        -0.00046
       6 <-  9        -0.00798
       6 <- 12        -0.00444
       6 <- 13         0.00262
       6 <- 16         0.00540
       6 <- 17         0.00169
       6 <- 20        -0.00183
       6 <- 21        -0.00328
       6 <- 24         0.00316
       6 <- 26         0.00195
       6 <- 32        -0.00261
       6 <- 33        -0.00126
       6 <- 37        -0.00183
       6 <- 39         0.00074
       6 <- 42         0.00036
       6 <- 44        -0.00094
       6 <- 47         0.00016
       6 <- 49         0.00035
       6 <- 51         0.00017
       7 <-  9         0.00282
       7 <- 12        -0.00417
       7 <- 13        -0.00037
       7 <- 16         0.00321
       7 <- 17        -0.00550
       7 <- 20        -0.00096
       7 <- 21        -0.00181
       7 <- 24        -0.00064
       7 <- 26         0.00278
       7 <- 30        -0.00090
       7 <- 32         0.00019
       7 <- 33        -0.00079
       7 <- 37        -0.00077
       7 <- 53        -0.00013
       8 <- 11        -0.01620
       8 <- 15         0.00481
       8 <- 19        -0.01741
       8 <- 22        -0.00473
       8 <- 25         0.00639
       8 <- 29        -0.00162
       8 <- 31         0.00215
       8 <- 38        -0.00303
       8 <- 40         0.00070
       8 <- 43         0.00154
       8 <- 46        -0.00112
       8 <- 50         0.00025

 Excited State   5:      Singlet-A2     8.5647 eV  144.76 nm  f=0.0000  <S**2>=0.000
       3 -> 28         0.00161
       3 -> 35         0.00079
       3 -> 45         0.00016
       4 -> 10        -0.00111
       4 -> 14        -0.00350
       4 -> 18         0.00147
       4 -> 23         0.00225
       4 -> 34         0.00022
       4 -> 36         0.00117
       4 -> 41        -0.00035
       5 -> 15         0.00010
       5 -> 19        -0.00034
       5 -> 22         0.00064
       5 -> 25        -0.00055
       5 -> 29        -0.00018
       5 -> 38         0.00024
       5 -> 40         0.00012
       5 -> 43         0.00034
       5 -> 46         0.00020
       6 -> 28        -0.00180
       6 -> 35         0.00055
       7 -> 28        -0.00100
       7 -> 45         0.00012
       8 -> 10         0.00184
       8 -> 14         0.70387
       8 -> 18        -0.06594
       8 -> 23        -0.01466
       8 -> 27        -0.00083
       8 -> 34        -0.00202
       8 -> 36         0.00210
       8 -> 41        -0.00028
       8 -> 52        -0.00020
       3 <- 28         0.00118
       3 <- 35         0.00061
       3 <- 45         0.00017
       4 <- 10         0.00023
       4 <- 14        -0.00013
       4 <- 18         0.00056
       4 <- 23         0.00017
       4 <- 27         0.00027
       4 <- 34        -0.00036
       4 <- 36         0.00047
       5 <- 11         0.00044
       5 <- 19         0.00013
       5 <- 22         0.00065
       5 <- 25        -0.00083
       5 <- 31        -0.00028
       5 <- 38         0.00050
       5 <- 43         0.00034
       6 <- 28        -0.00179
       6 <- 35         0.00053
       6 <- 45         0.00013
       7 <- 28        -0.00061
       7 <- 35        -0.00019
       8 <- 10         0.00188
       8 <- 14         0.00124
       8 <- 18         0.00413
       8 <- 23         0.00083
       8 <- 27         0.00019
       8 <- 34        -0.00223
       8 <- 36         0.00084
       8 <- 41        -0.00022

 Excited State   6:      Singlet-B2     8.7431 eV  141.81 nm  f=0.1606  <S**2>=0.000
       3 -> 11         0.00083
       3 -> 15        -0.00157
       3 -> 19         0.00175
       3 -> 22        -0.00127
       3 -> 25        -0.00055
       3 -> 29         0.00112
       3 -> 31         0.00072
       3 -> 40        -0.00073
       3 -> 43        -0.00032
       4 ->  9         0.00200
       4 -> 12        -0.00209
       4 -> 13        -0.00516
       4 -> 16        -0.00049
       4 -> 17        -0.00087
       4 -> 20        -0.00407
       4 -> 21        -0.00503
       4 -> 24        -0.00080
       4 -> 26        -0.00046

 The electronic state is 1-A1.
 Alpha  occ. eigenvalues --  -19.39260 -10.60534  -1.20075  -0.97186  -0.94794
 Alpha  occ. eigenvalues --   -0.57156  -0.48076  -0.19442
 Alpha virt. eigenvalues --   -0.00236   0.02268   0.04433   0.04683   0.13930
 Alpha virt. eigenvalues --    0.16672   0.17025   0.18349   0.21357   0.22268
 Alpha virt. eigenvalues --    0.29288   0.36735   0.50489   0.57175   0.63235

 Mulliken charges:
               1
     1  C    0.136967
     2  H   -0.141100
     3  H   -0.141100
     4  O    0.145234
 Sum of Mulliken charges =   0.00000

 Dipole moment (field-independent basis, Debye):
    X=              0.0000    Y=             -0.0000    Z=              1.7663  Tot=              1.7663
 Quadrupole moment (field-independent basis, Debye-Ang):
   XX=             -9.9414   YY=            -14.5185   ZZ=            -13.7850
   XY=             -0.0000   XZ=             -0.0000   YZ=             -0.0000

 Normal termination of Gaussian 16 at Fri Sep 17 10:52:18 2021.
