 Gaussian 16, Revision A.03,
 Gaussian 16:  ES64L-G16RevA.03 25-Dec-2016

 --------------------------------------------------------------------
 #p B3LYP/6-311+G** #p TD=(singlets,nstates=30)IOp(6/8=3) IOp(9/40=4)
 --------------------------------------------------------------------

 -------------------------------
 Scan Step 224, Bond Length 1.62
 -------------------------------
 Symbolic Z-matrix:
 Charge =  0 Multiplicity = 1

                         Standard orientation:
 ---------------------------------------------------------------------
 Center     Atomic      Atomic             Coordinates (Angstroms)
 Number     Number       Type             X           Y           Z
 ---------------------------------------------------------------------
      1          6           0        0.000000   -0.000000   -0.736081
      2          1           0        0.000000    0.937260   -1.327431
      3          1           0       -0.000000   -0.937260   -1.327431
      4          8           0        0.000000    0.000000    0.883919
 ---------------------------------------------------------------------

 SCF Done:  E(RB3LYP) =  -114.420370898     A.U. after   10 cycles

 Excitation energies and oscillator strengths:

 Excited State   1:      Singlet-A2     1.9104 eV  649.00 nm  f=0.0000  <S**2>=0.000
       3 -> 27         0.00113
       3 -> 38         0.00083
       3 -> 46         0.00331
       4 -> 27         0.00067
       4 -> 38        -0.00012
       4 -> 46        -0.00127
       5 ->  9         0.00677
       5 -> 13         0.00097
       5 -> 18         0.00276
       5 -> 23         0.00161
       5 -> 28         0.00238
       5 -> 31        -0.00015
       5 -> 37         0.00131
       5 -> 44         0.00032
       5 -> 52         0.00032
       6 -> 27        -0.00063
       6 -> 38        -0.00075
       6 -> 46         0.00130
       7 -> 12        -0.00094
       7 -> 16         0.00481
       7 -> 19        -0.00410
       7 -> 22        -0.00083
       7 -> 25         0.00091
       7 -> 30        -0.00158
       7 -> 33         0.00035
       7 -> 49         0.00012
       7 -> 50         0.00015
       7 -> 53         0.00044
       8 ->  9         0.70870
       8 -> 13        -0.01248
       8 -> 18         0.02157
       8 -> 23        -0.00315
       8 -> 28         0.01100
       8 -> 31         0.00115
       8 -> 37         0.00062
       8 -> 48        -0.00031
       8 -> 52         0.00193
       3 <- 27         0.00051
       3 <- 38         0.00056
       3 <- 46         0.00335
       4 <- 27         0.00117
       4 <- 38         0.00023
       4 <- 46        -0.00102
       5 <-  9        -0.00019
       5 <- 13        -0.00050
       5 <- 18        -0.00065
       5 <- 23         0.00026
       5 <- 28        -0.00045
       5 <- 31         0.00034
       5 <- 37         0.00074
       5 <- 44         0.00011
       6 <- 38        -0.00061
       6 <- 46         0.00100
       7 <- 12         0.00075
       7 <- 16        -0.01013
       7 <- 19         0.00392
       7 <- 22         0.00682
       7 <- 25         0.00055
       7 <- 30         0.00531
       7 <- 33        -0.00049
       7 <- 36         0.00074
       7 <- 40        -0.00045
       7 <- 42         0.00015
       7 <- 49        -0.00041
       7 <- 53         0.00146
       8 <-  9        -0.05364
       8 <- 13         0.00038
       8 <- 18        -0.00671
       8 <- 23         0.00011
       8 <- 28        -0.00242
       8 <- 31        -0.00065
       8 <- 37        -0.00043
       8 <- 52         0.00050
 This state for optimization and/or second-order correction.
 Total Energy, E(TD-HF/TD-DFT) =  -114.350165533
 Copying the excited state density for this state as the 1-particle RhoCI density.

 Excited State   2:      Singlet-A1     4.9241 eV  251.79 nm  f=0.0705  <S**2>=0.000
       3 -> 10        -0.01656
       3 -> 11        -0.01258
       3 -> 14         0.01032
       3 -> 15         0.00534
       3 -> 17        -0.00349
       3 -> 20        -0.00394
       3 -> 21        -0.00097
       3 -> 24         0.00228
       3 -> 26         0.00370
       3 -> 29        -0.00122
       3 -> 32         0.00277
       3 -> 34         0.00229
       3 -> 35        -0.00109
       3 -> 39         0.00079
       3 -> 43         0.00045
       3 -> 45         0.00015
       3 -> 47         0.00227
       3 -> 51         0.00109
       3 -> 54         0.00017
       4 -> 10        -0.01068
       4 -> 11         0.01272
       4 -> 14         0.00533
       4 -> 15        -0.00978
       4 -> 17         0.00307
       4 -> 20         0.00498
       4 -> 21         0.00041
       4 -> 24        -0.00494
       4 -> 26         0.00492
       4 -> 29         0.00107
       4 -> 32        -0.00134
       4 -> 34        -0.00163
       4 -> 35         0.00042
       4 -> 41         0.00013
       4 -> 43        -0.00046
       4 -> 45        -0.00081
       4 -> 47        -0.00119
       4 -> 51        -0.00032
       4 -> 54         0.00011
       5 -> 12         0.01658
       5 -> 16         0.01020
       5 -> 19         0.00147
       5 -> 22         0.00744
       5 -> 25         0.00797
       5 -> 30        -0.00018
       5 -> 33        -0.00302
       5 -> 36         0.00276
       5 -> 40        -0.00146
       5 -> 42         0.00066
       5 -> 49         0.00044
       5 -> 50        -0.00069
       5 -> 53        -0.00013
       6 -> 10         0.15558
       6 -> 11         0.10236
       6 -> 14        -0.09371
       6 -> 15        -0.06051
       6 -> 17        -0.01982
       6 -> 20        -0.01017
       6 -> 21         0.01296
       6 -> 24        -0.01356
       6 -> 26        -0.00651
       6 -> 29        -0.00780
       6 -> 32         0.00098
       6 -> 34         0.00145
       6 -> 35        -0.00063
       6 -> 39         0.00088
       6 -> 41        -0.00038
       6 -> 43         0.00082
       6 -> 45         0.00081
       6 -> 47         0.00121
       6 -> 51         0.00081
       6 -> 54        -0.00070
       7 ->  9         0.68358
       7 -> 18        -0.01776
       7 -> 23        -0.00018
       7 -> 28        -0.00116
       7 -> 31        -0.00305
       7 -> 37         0.00093
       7 -> 44        -0.00105
       7 -> 48         0.00038
       7 -> 52         0.00105
       8 -> 12        -0.00748
       8 -> 16         0.06675
       8 -> 19        -0.02387
       8 -> 22        -0.02536
       8 -> 25         0.00055
       8 -> 30        -0.01174
       8 -> 33         0.00213
       8 -> 36        -0.00252
       8 -> 40         0.00122
       8 -> 42        -0.00035
       8 -> 49         0.00055
       8 -> 50         0.00023
       8 -> 53        -0.00069
       3 <- 10        -0.01127
       3 <- 11        -0.00901
       3 <- 14         0.00772
       3 <- 15         0.00352
       3 <- 17        -0.00181
       3 <- 20        -0.00289
       3 <- 21        -0.00131
       3 <- 24         0.00139
       3 <- 26         0.00218
       3 <- 29        -0.00073
       3 <- 32         0.00253
       3 <- 34         0.00146
       3 <- 35        -0.00094
       3 <- 39         0.00071
       3 <- 43         0.00054
       3 <- 45         0.00035
       3 <- 47         0.00236
       3 <- 51         0.00106
       3 <- 54         0.00027
       4 <- 10        -0.00520
       4 <- 11         0.00808
       4 <- 14         0.00276
       4 <- 15        -0.00587
       4 <- 17         0.00157
       4 <- 20         0.00428
       4 <- 21         0.00029
       4 <- 24        -0.00339
       4 <- 26         0.00392
       4 <- 29         0.00027
       4 <- 32        -0.00164
       4 <- 34        -0.00143
       4 <- 35         0.00065
       4 <- 39        -0.00013
       4 <- 43        -0.00045
       4 <- 45        -0.00090
       4 <- 47        -0.00080
       4 <- 51        -0.00017
       5 <- 12         0.00762
       5 <- 16         0.00532
       5 <- 19         0.00103
       5 <- 22         0.00466
       5 <- 25         0.00547
       5 <- 33        -0.00235
       5 <- 36         0.00226
       5 <- 40        -0.00128
       5 <- 42         0.00054
       5 <- 49         0.00039
       5 <- 50        -0.00063
       5 <- 53        -0.00012
       6 <- 10         0.04679
       6 <- 11         0.03307
       6 <- 14        -0.03716
       6 <- 15        -0.02618
       6 <- 17        -0.00978
       6 <- 20        -0.00660
       6 <- 21         0.00762
       6 <- 24        -0.00829
       6 <- 26        -0.00380
       6 <- 29        -0.00536
       6 <- 32         0.00142
       6 <- 34         0.00176
       6 <- 35        -0.00084
       6 <- 39         0.00094
       6 <- 41        -0.00027
       6 <- 43         0.00070
       6 <- 45         0.00072
       6 <- 47         0.00076
       6 <- 51         0.00064
       6 <- 54        -0.00059
       7 <-  9        -0.12509
       7 <- 13         0.00713
       7 <- 18        -0.01370
       7 <- 23         0.00329
       7 <- 28        -0.00370
       7 <- 31        -0.00142
       7 <- 37         0.00035
       7 <- 44        -0.00064
       7 <- 48        -0.00019
       7 <- 52         0.00092
       8 <- 12        -0.00183
       8 <- 16         0.02425
       8 <- 19        -0.01049
       8 <- 22        -0.01396
       8 <- 25         0.00011
       8 <- 30        -0.00854
       8 <- 33         0.00160
       8 <- 36        -0.00193
       8 <- 40         0.00098
       8 <- 42        -0.00028
       8 <- 49         0.00036
       8 <- 50         0.00019
       8 <- 53        -0.00063

 Excited State   3:      Singlet-B1     5.2643 eV  235.52 nm  f=0.0014  <S**2>=0.000
       3 ->  9        -0.02844
       3 -> 13         0.00165
       3 -> 18        -0.00458
       3 -> 23         0.00173
       3 -> 28        -0.00091
       3 -> 31        -0.00048
       3 -> 44         0.00024
       3 -> 48         0.00097
       3 -> 52         0.00095
       4 ->  9         0.01335
       4 -> 13        -0.00266
       4 -> 18         0.00024
       4 -> 23        -0.00240
       4 -> 28         0.00025
       4 -> 31        -0.00151
       4 -> 37        -0.00040
       4 -> 44         0.00013
       4 -> 48        -0.00107
       4 -> 52        -0.00057
       5 -> 38         0.00201
       5 -> 46         0.00088
       6 ->  9         0.70477
       6 -> 13        -0.01989
       6 -> 18         0.01661
       6 -> 23        -0.01092
       6 -> 28         0.00419
       6 -> 31         0.00321
       6 -> 37        -0.00214
       6 -> 44        -0.00278
       6 -> 48         0.00410
       6 -> 52         0.00142
       7 -> 10         0.04517
       7 -> 11         0.02612
       7 -> 14        -0.01827
       7 -> 15        -0.00676
       7 -> 17        -0.00910
       7 -> 20         0.00300
       7 -> 21         0.00027
       7 -> 24        -0.00068
       7 -> 26        -0.00158
       7 -> 29        -0.00389
       7 -> 32        -0.00056
       7 -> 34         0.00079
       7 -> 35         0.00177
       7 -> 39         0.00014
       7 -> 41        -0.00052
       7 -> 43         0.00054
       7 -> 45        -0.00030
       7 -> 47         0.00420
       7 -> 51         0.00118
       7 -> 54         0.00039
       8 -> 27         0.00047
       8 -> 46         0.00526
       3 <-  9        -0.00955
       3 <- 13        -0.00066
       3 <- 18        -0.00288
       3 <- 23        -0.00057
       3 <- 28        -0.00058
       3 <- 31        -0.00068
       3 <- 44        -0.00024
       3 <- 48         0.00114
       3 <- 52         0.00076
       4 <-  9         0.00674
       4 <- 13        -0.00029
       4 <- 18         0.00190
       4 <- 23        -0.00063
       4 <- 28         0.00161
       4 <- 31        -0.00102
       4 <- 37        -0.00022
       4 <- 48        -0.00092
       4 <- 52        -0.00032
       5 <- 27        -0.00062
       5 <- 38         0.00164
       5 <- 46         0.00078
       6 <-  9        -0.02586
       6 <- 13         0.00171
       6 <- 18        -0.00333
       6 <- 23        -0.00027
       6 <- 28        -0.00341
       6 <- 31         0.00117
       6 <- 37        -0.00185
       6 <- 44        -0.00147
       6 <- 48         0.00367
       6 <- 52         0.00047
       7 <- 10        -0.01802
       7 <- 11        -0.01262
       7 <- 14         0.01499
       7 <- 15         0.01210
       7 <- 17         0.00159
       7 <- 20         0.00489
       7 <- 21        -0.00425
       7 <- 24         0.00446
       7 <- 26         0.00174
       7 <- 29         0.00117
       7 <- 34         0.00078
       7 <- 35         0.00262
       7 <- 39         0.00045
       7 <- 41        -0.00017
       7 <- 43         0.00039
       7 <- 45        -0.00044
       7 <- 47         0.00384
       7 <- 51         0.00107
       7 <- 54         0.00106
       8 <- 27         0.00093
       8 <- 38         0.00026
       8 <- 46         0.00490

 Excited State   4:      Singlet-B2     5.8828 eV  210.76 nm  f=0.0122  <S**2>=0.000
       3 -> 12        -0.00153
       3 -> 16         0.00199
       3 -> 19        -0.00458
       3 -> 22         0.00055
       3 -> 25         0.00047
       3 -> 30        -0.00339
       3 -> 33        -0.00023
       3 -> 36         0.00216
       3 -> 40        -0.00180
       3 -> 42         0.00025
       3 -> 49        -0.00280
       3 -> 50         0.00022
       3 -> 53         0.00030
       4 -> 12         0.00044
       4 -> 16        -0.00264
       4 -> 19         0.00017
       4 -> 22         0.00303
       4 -> 25        -0.00184
       4 -> 30         0.00146
       4 -> 33        -0.00048
       4 -> 36         0.00054
       4 -> 40         0.00050
       4 -> 49         0.00046
       4 -> 50        -0.00012
       5 -> 10         0.00766
       5 -> 11         0.00558
       5 -> 14        -0.01154
       5 -> 15         0.00379
       5 -> 17         0.00050
       5 -> 20         0.00212
       5 -> 21         0.00599
       5 -> 24         0.00187
       5 -> 26        -0.00172
       5 -> 29        -0.00200
       5 -> 32        -0.00170
       5 -> 34        -0.00118
       5 -> 35        -0.00043
       5 -> 39        -0.00102
       5 -> 41         0.00072
       5 -> 45         0.00017
       5 -> 47        -0.00082
       5 -> 51         0.00050
       5 -> 54        -0.00024
       6 -> 12         0.00319
       6 -> 16        -0.00178
       6 -> 19         0.00315
       6 -> 22        -0.00020
       6 -> 25        -0.00085
       6 -> 30        -0.00052
       6 -> 33         0.00030
       6 -> 36        -0.00211
       6 -> 40         0.00172
       6 -> 42        -0.00042
       6 -> 49         0.00163
       6 -> 53        -0.00037
       7 -> 27        -0.00067
       7 -> 38         0.00082
       7 -> 46         0.00373
       8 -> 10         0.64524
       8 -> 11         0.25449
       8 -> 14        -0.12371
       8 -> 15        -0.05904
       8 -> 17        -0.01398
       8 -> 20        -0.00102
       8 -> 21         0.00710
       8 -> 24        -0.00672
       8 -> 26        -0.00562
       8 -> 29        -0.01020
       8 -> 32        -0.00313
       8 -> 34        -0.00194
       8 -> 35        -0.00028
       8 -> 39        -0.00066
       8 -> 41         0.00021
       8 -> 43        -0.00040
       8 -> 45         0.00171
       8 -> 47        -0.00442
       8 -> 51         0.00221
       8 -> 54        -0.00172
       3 <- 12        -0.00056
       3 <- 16         0.00054
       3 <- 19        -0.00216
       3 <- 22         0.00091
       3 <- 25         0.00044
       3 <- 30        -0.00135
       3 <- 33        -0.00020
       3 <- 36         0.00166
       3 <- 40        -0.00160
       3 <- 42         0.00022
       3 <- 49        -0.00288
       3 <- 50         0.00019
       3 <- 53         0.00085
       4 <- 12        -0.00016
       4 <- 16        -0.00232
       4 <- 19        -0.00015
       4 <- 22         0.00274
       4 <- 25        -0.00114
       4 <- 30         0.00131
       4 <- 33        -0.00055
       4 <- 36         0.00075
       4 <- 40         0.00017
       4 <- 42         0.00011
       4 <- 49         0.00035
       5 <- 10         0.00014
       5 <- 11        -0.00157
       5 <- 14        -0.00152
       5 <- 15         0.00385
       5 <- 17         0.00022
       5 <- 20         0.00058
       5 <- 21         0.00212
       5 <- 24         0.00252
       5 <- 26        -0.00051
       5 <- 29        -0.00050
       5 <- 34        -0.00028
       5 <- 39        -0.00035
       5 <- 41         0.00073
       5 <- 43         0.00011
       5 <- 45         0.00046
       5 <- 47        -0.00069
       5 <- 51         0.00027
       6 <- 16         0.00562
       6 <- 19        -0.00253
       6 <- 22        -0.00408
       6 <- 25        -0.00055
       6 <- 30        -0.00481
       6 <- 33         0.00059
       6 <- 36        -0.00210
       6 <- 40         0.00173
       6 <- 42        -0.00049
       6 <- 49         0.00179
       6 <- 53        -0.00108
       7 <- 27        -0.00066
       7 <- 38         0.00064
       7 <- 46         0.00309
       8 <- 10        -0.01636
       8 <- 11        -0.01199
       8 <- 14         0.01167
       8 <- 15         0.00439
       8 <- 17         0.00042
       8 <- 20        -0.00249
       8 <- 21        -0.00229
       8 <- 24         0.00139
       8 <- 26         0.00198
       8 <- 29        -0.00077
       8 <- 32         0.00249
       8 <- 34         0.00138
       8 <- 35        -0.00029
       8 <- 39         0.00150
       8 <- 41         0.00054
       8 <- 43         0.00033
       8 <- 45         0.00236
       8 <- 47        -0.00331
       8 <- 51         0.00137
       8 <- 54        -0.00043

 Excited State   5:      Singlet-B2     7.0235 eV  176.53 nm  f=0.0016  <S**2>=0.000
       3 -> 12         0.00154
       3 -> 16         0.00133
       3 -> 19        -0.00063
       3 -> 22        -0.00034
       3 -> 25         0.00090
       3 -> 30        -0.00210
       3 -> 33         0.00013
       3 -> 36         0.00035
       3 -> 40        -0.00035
       3 -> 49        -0.00056
       4 -> 12        -0.00117
       4 -> 16         0.00079
       4 -> 19         0.00095
       4 -> 22        -0.00108
       4 -> 25         0.00084
       4 -> 30         0.00109
       4 -> 36         0.00026
       4 -> 50        -0.00010
       5 -> 10         0.00601
       5 -> 11        -0.00487
       5 -> 14         0.00366
       5 -> 15         0.00490
       5 -> 17         0.00067
       5 -> 20         0.00142
       5 -> 21        -0.00024
       5 -> 24        -0.00046
       5 -> 26        -0.00022
       5 -> 29        -0.00033
       5 -> 32        -0.00140
       5 -> 34         0.00043
       5 -> 35        -0.00029
       5 -> 39        -0.00049
       5 -> 41        -0.00020
       5 -> 43        -0.00029
       5 -> 45         0.00027
       5 -> 47        -0.00030
       5 -> 51         0.00022
       6 -> 12        -0.00210
       6 -> 16        -0.00048
       6 -> 19         0.00013
       6 -> 22        -0.00082
       6 -> 25         0.00014
       6 -> 30        -0.00067
       6 -> 36         0.00010
       6 -> 40         0.00040
       6 -> 42        -0.00017
       6 -> 49         0.00108
       7 -> 27        -0.00058
       7 -> 38        -0.00029
       7 -> 46         0.00145
       8 -> 10        -0.26062
       8 -> 11         0.65639
       8 -> 14         0.00474
       8 -> 15        -0.02967
       8 -> 17        -0.00470
       8 -> 20         0.01456
       8 -> 21         0.00361
       8 -> 24        -0.00311
       8 -> 26         0.00188
       8 -> 29        -0.00235
       8 -> 32        -0.00051
       8 -> 34        -0.00068
       8 -> 35        -0.00056
       8 -> 39         0.00013
       8 -> 41        -0.00010
       8 -> 43         0.00028
       8 -> 45         0.00098
       8 -> 47        -0.00171
       8 -> 51         0.00081

 The electronic state is 1-A1.
 Alpha  occ. eigenvalues --  -19.17270 -10.32772  -0.92485  -0.69830  -0.48871
 Alpha  occ. eigenvalues --   -0.41365  -0.32835  -0.28950
 Alpha virt. eigenvalues --   -0.14778  -0.01649   0.01031   0.04086   0.06123
 Alpha virt. eigenvalues --    0.08590   0.12815   0.14350   0.18925   0.21371
 Alpha virt. eigenvalues --    0.23973   0.30187   0.39037   0.40978   0.50924

 Mulliken charges:
               1
     1  C   -0.064410
     2  H    0.180685
     3  H    0.180685
     4  O   -0.296959
 Sum of Mulliken charges =  -0.00000

 Dipole moment (field-independent basis, Debye):
    X=             -0.0000    Y=             -0.0000    Z=             -3.7959  Tot=              3.7959
 Quadrupole moment (field-independent basis, Debye-Ang):
   XX=            -12.7655   YY=            -11.9009   ZZ=            -11.2544
   XY=              0.0000   XZ=              0.0000   YZ=              0.0000

 Normal termination of Gaussian 16 at Fri Sep 17 10:53:02 2021.
