 Gaussian 16, Revision C.01,
 Gaussian 16:  ES64L-G16RevC.01  3-Jul-2019

 ----------------------------------------
 #P wB97XD/6-311+G* NoSymm #P Field=X+282
 ----------------------------------------

 -------
 TitleMe
 -------
 Symbolic Z-matrix:
 Charge =  1 Multiplicity = 1

                          Input orientation:
 ---------------------------------------------------------------------
 Center     Atomic      Atomic             Coordinates (Angstroms)
 Number     Number       Type             X           Y           Z
 ---------------------------------------------------------------------
      1          6           0        0.029500    1.339700    0.068200
      2          6           0        1.434800    1.286700    0.006400
      3          6           0        2.111800    0.051100   -0.005400
      4          6           0        1.445100   -1.137200    0.031200
      5          6           0       -0.687900    0.168200    0.110000
      6          1           0       -0.471300    2.298400    0.078100
      7          1           0        2.027300    2.196500   -0.032200
      8          1           0        1.989700   -2.076400    0.023200
      9          1           0       -1.771600    0.180400    0.158200
     10          7           0        3.586400    0.051000   -0.067500
     11          8           0        4.147100   -1.059700   -0.088100
     12          8           0        4.145000    1.163900   -0.090100
     13          6           0       -0.023600   -1.145800    0.083500
     14          1           0       -0.436700   -1.872500    0.788900
     15         35           0       -0.535900   -1.869700   -1.740800
 ---------------------------------------------------------------------

 SCF Done:  E(RwB97XD) =  -3010.59249561     A.U. after   24 cycles

 Alpha  occ. eigenvalues -- -483.33754 -62.88721 -56.68453 -56.67840 -56.67817
 Alpha  occ. eigenvalues --  -19.60005 -19.59909 -14.98992 -10.64190 -10.63013
 Alpha  occ. eigenvalues --  -10.62011 -10.60918 -10.59906 -10.56071  -9.04483
 Alpha  occ. eigenvalues --   -6.87257  -6.85258  -6.85182  -2.97137  -2.96623
 Alpha  occ. eigenvalues --   -2.96562  -2.94964  -2.94963  -1.63705  -1.46833
 Alpha  occ. eigenvalues --   -1.28118  -1.19892  -1.15995  -1.09518  -1.07018
 Alpha  occ. eigenvalues --   -0.99706  -0.98241  -0.94690  -0.93448  -0.92107
 Alpha  occ. eigenvalues --   -0.86913  -0.84044  -0.81749  -0.80283  -0.76552
 Alpha  occ. eigenvalues --   -0.72810  -0.71722  -0.71491  -0.70520  -0.70110
 Alpha  occ. eigenvalues --   -0.68003  -0.63725  -0.57975  -0.57585
 Alpha virt. eigenvalues --   -0.33565  -0.33064  -0.21863  -0.20167  -0.17794
 Alpha virt. eigenvalues --   -0.17526  -0.15671  -0.14437  -0.13221  -0.11710
 Alpha virt. eigenvalues --   -0.09080  -0.08694  -0.07370  -0.06962  -0.06548

 Mulliken charges:
               1
     1  C   -0.635217
     2  C    0.584956
     3  C   -0.743616
     4  C    0.097304
     5  C    0.108715
     6  H    0.392218
     7  H    0.314344
     8  H    0.334677
     9  H    0.465808
    10  N   -0.113568
    11  O   -0.097169
    12  O   -0.099978
    13  C   -0.407370
    14  H    0.451897
    15  Br   0.346998
 Sum of Mulliken charges =   1.00000

 Dipole moment (field-independent basis, Debye):
    X=             -9.6965    Y=             -1.6505    Z=             -0.7836  Tot=              9.8671
 Quadrupole moment (field-independent basis, Debye-Ang):
   XX=            -93.7027   YY=            -51.1174   ZZ=            -60.5802
   XY=              2.5446   XZ=              3.3875   YZ=              3.7844

 Normal termination of Gaussian 16 at Wed May  1 14:52:16 2024.
