 Gaussian 16, Revision A.03,
 Gaussian 16:  ES64L-G16RevA.03 25-Dec-2016

 --------------------------------------------------------------------
 #p B3LYP/6-311+G** #p TD=(singlets,nstates=30)IOp(6/8=3) IOp(9/40=4)
 --------------------------------------------------------------------

 --------------------------------
 Scan Step 297, Bond Length 1.985
 --------------------------------
 Symbolic Z-matrix:
 Charge =  0 Multiplicity = 1

                         Standard orientation:
 ---------------------------------------------------------------------
 Center     Atomic      Atomic             Coordinates (Angstroms)
 Number     Number       Type             X           Y           Z
 ---------------------------------------------------------------------
      1          6           0        0.000000   -0.000000   -0.918581
      2          1           0        0.000000    0.937260   -1.509931
      3          1           0       -0.000000   -0.937260   -1.509931
      4          8           0        0.000000    0.000000    1.066419
 ---------------------------------------------------------------------

 SCF Done:  E(RB3LYP) =  -114.300502626     A.U. after   13 cycles

 Excitation energies and oscillator strengths:

 Excited State   1:      Singlet-A2     0.9996 eV 1240.36 nm  f=0.0000  <S**2>=0.000
       3 -> 27         0.00053
       3 -> 38         0.00030
       3 -> 47         0.00324
       4 -> 27         0.00026
       4 -> 47        -0.00073
       5 ->  9        -0.00036
       5 -> 14         0.00101
       5 -> 18         0.00119
       5 -> 23         0.00111
       5 -> 28         0.00083
       5 -> 37         0.00052
       5 -> 44         0.00015
       5 -> 52         0.00011
       6 -> 27        -0.00050
       6 -> 38        -0.00044
       6 -> 47         0.00073
       7 -> 12        -0.00150
       7 -> 16         0.00540
       7 -> 19        -0.00504
       7 -> 22        -0.00112
       7 -> 25        -0.00039
       7 -> 30        -0.00209
       7 -> 33         0.00024
       7 -> 49         0.00012
       7 -> 53         0.00034
       8 ->  9         0.71246
       8 -> 14        -0.00444
       8 -> 18         0.02001
       8 -> 23        -0.00015
       8 -> 28         0.00952
       8 -> 31         0.00152
       8 -> 37         0.00044
       8 -> 46        -0.00026
       8 -> 52         0.00176
       3 <- 38         0.00010
       3 <- 47         0.00326
       4 <- 27         0.00050
       4 <- 38         0.00014
       4 <- 47        -0.00054
       5 <-  9         0.00070
       5 <- 14        -0.00024
       5 <- 18        -0.00024
       5 <- 23         0.00012
       5 <- 28        -0.00020
       5 <- 31         0.00017
       5 <- 37         0.00030
       6 <- 38        -0.00032
       6 <- 47         0.00051
       7 <- 12         0.00241
       7 <- 16        -0.01035
       7 <- 19         0.00648
       7 <- 22         0.00478
       7 <- 25        -0.00062
       7 <- 30         0.00565
       7 <- 33        -0.00033
       7 <- 49        -0.00045
       7 <- 53         0.00142
       8 <-  9        -0.08888
       8 <- 14        -0.00085
       8 <- 18        -0.00810
       8 <- 23        -0.00051
       8 <- 28        -0.00281
       8 <- 31        -0.00086
       8 <- 37        -0.00012
       8 <- 46         0.00013
       8 <- 52         0.00039
 This state for optimization and/or second-order correction.
 Total Energy, E(TD-HF/TD-DFT) =  -114.263768594
 Copying the excited state density for this state as the 1-particle RhoCI density.

 Excited State   2:      Singlet-B2     2.5004 eV  495.85 nm  f=0.0010  <S**2>=0.000
       3 -> 12        -0.00094
       3 -> 16         0.00070
       3 -> 19        -0.00313
       3 -> 22         0.00113
       3 -> 25        -0.00086
       3 -> 30        -0.00202
       3 -> 33         0.00037
       3 -> 36         0.00088
       3 -> 40        -0.00097
       3 -> 42        -0.00019
       3 -> 49        -0.00411
       3 -> 51         0.00013
       3 -> 53         0.00021
       4 -> 12         0.00027
       4 -> 16        -0.00101
       4 -> 19         0.00022
       4 -> 22         0.00129
       4 -> 25         0.00034
       4 -> 30         0.00056
       4 -> 33        -0.00024
       4 -> 36         0.00036
       4 -> 40         0.00017
       4 -> 49         0.00070
       5 -> 10         0.00817
       5 -> 11         0.00072
       5 -> 13        -0.00170
       5 -> 15         0.00215
       5 -> 17        -0.00051
       5 -> 20         0.00170
       5 -> 21         0.00197
       5 -> 24         0.00115
       5 -> 29        -0.00191
       5 -> 32        -0.00044
       5 -> 39         0.00045
       5 -> 41         0.00030
       5 -> 48        -0.00022
       5 -> 50         0.00016
       5 -> 54        -0.00014
       6 -> 12         0.00231
       6 -> 16        -0.00296
       6 -> 19         0.00444
       6 -> 22        -0.00072
       6 -> 25         0.00115
       6 -> 30         0.00061
       6 -> 33        -0.00026
       6 -> 36        -0.00088
       6 -> 40         0.00051
       6 -> 42         0.00046
       6 -> 49         0.00082
       6 -> 53        -0.00043
       7 -> 27        -0.00039
       7 -> 38         0.00020
       7 -> 47         0.00243
       8 -> 10         0.70798
       8 -> 11         0.03701
       8 -> 13        -0.03469
       8 -> 15        -0.01563
       8 -> 17        -0.01646
       8 -> 20         0.00789
       8 -> 21         0.00398
       8 -> 24        -0.00444
       8 -> 26        -0.00312
       8 -> 29        -0.01380
       8 -> 32         0.00252
       8 -> 34        -0.00080
       8 -> 35         0.00198
       8 -> 39         0.00012
       8 -> 41        -0.00016
       8 -> 45        -0.00071
       8 -> 48        -0.00295
       8 -> 50         0.00091
       8 -> 54        -0.00253
       3 <- 12        -0.00032
       3 <- 16         0.00028
       3 <- 19        -0.00160
       3 <- 22         0.00083
       3 <- 25        -0.00078
       3 <- 30        -0.00083
       3 <- 33         0.00035
       3 <- 36         0.00050
       3 <- 40        -0.00084
       3 <- 49        -0.00415
       3 <- 51         0.00013
       3 <- 53         0.00059
       4 <- 12         0.00012
       4 <- 16        -0.00139
       4 <- 19         0.00019
       4 <- 22         0.00171
       4 <- 25         0.00012
       4 <- 30         0.00088
       4 <- 33        -0.00023
       4 <- 36         0.00051
       4 <- 49         0.00048
       5 <- 10        -0.00098
       5 <- 11        -0.00035
       5 <- 13        -0.00029
       5 <- 15         0.00181
       5 <- 17         0.00018
       5 <- 20         0.00073
       5 <- 21         0.00127
       5 <- 24         0.00122
       5 <- 29        -0.00043
       5 <- 32        -0.00018
       5 <- 39         0.00024
       5 <- 41         0.00032
       5 <- 45        -0.00015
       5 <- 48        -0.00025
       6 <- 12        -0.00132
       6 <- 16         0.00862
       6 <- 19        -0.00523
       6 <- 22        -0.00519
       6 <- 25         0.00144
       6 <- 30        -0.00637
       6 <- 33         0.00011
       6 <- 36        -0.00064
       6 <- 40         0.00049
       6 <- 42         0.00040
       6 <- 49         0.00138
       6 <- 53        -0.00146
       7 <- 27        -0.00041
       7 <- 38         0.00016
       7 <- 47         0.00213
       8 <- 10        -0.06670
       8 <- 11        -0.00687
       8 <- 13         0.00634
       8 <- 15         0.00228
       8 <- 17         0.00325
       8 <- 20        -0.00391
       8 <- 21        -0.00076
       8 <- 24         0.00125
       8 <- 26         0.00068
       8 <- 29         0.00340
       8 <- 32         0.00156
       8 <- 34         0.00070
       8 <- 35        -0.00099
       8 <- 39        -0.00063
       8 <- 41         0.00011
       8 <- 43         0.00022
       8 <- 45        -0.00130
       8 <- 48        -0.00251
       8 <- 50         0.00099
       8 <- 54        -0.00064

 Excited State   3:      Singlet-A1     2.5861 eV  479.42 nm  f=0.0170  <S**2>=0.000
       3 -> 10        -0.01038
       3 -> 11        -0.00163
       3 -> 13        -0.00035
       3 -> 17        -0.00273
       3 -> 20        -0.00293
       3 -> 21         0.00077
       3 -> 24        -0.00012
       3 -> 26         0.00039
       3 -> 29         0.00031
       3 -> 32         0.00240
       3 -> 34         0.00086
       3 -> 35        -0.00084
       3 -> 39        -0.00021
       3 -> 43         0.00037
       3 -> 45        -0.00142
       3 -> 48         0.00231
       3 -> 50         0.00171
       3 -> 54        -0.00016
       4 -> 10         0.00075
       4 -> 11         0.00815
       4 -> 13         0.00098
       4 -> 15        -0.00641
       4 -> 17         0.00171
       4 -> 20         0.00108
       4 -> 21         0.00013
       4 -> 24        -0.00340
       4 -> 26         0.00225
       4 -> 32        -0.00087
       4 -> 34        -0.00055
       4 -> 39        -0.00032
       4 -> 43        -0.00036
       4 -> 45         0.00071
       4 -> 48        -0.00058
       4 -> 50        -0.00019
       4 -> 54         0.00011
       5 -> 12         0.00666
       5 -> 16         0.00038
       5 -> 19         0.00082
       5 -> 22         0.00572
       5 -> 25        -0.00297
       5 -> 30         0.00028
       5 -> 33        -0.00210
       5 -> 36         0.00266
       5 -> 40        -0.00081
       5 -> 42        -0.00095
       5 -> 51        -0.00093
       6 -> 10         0.27048
       6 -> 11         0.02375
       6 -> 13        -0.02421
       6 -> 15        -0.01562
       6 -> 17        -0.01338
       6 -> 20         0.00055
       6 -> 21         0.00273
       6 -> 24        -0.00555
       6 -> 26        -0.00176
       6 -> 29        -0.00105
       6 -> 32         0.00483
       6 -> 34         0.00134
       6 -> 35         0.00090
       6 -> 39        -0.00164
       6 -> 43         0.00072
       6 -> 45        -0.00103
       6 -> 48         0.00061
       6 -> 50         0.00037
       6 -> 54        -0.00099
       7 ->  9         0.67131
       7 -> 14        -0.00864
       7 -> 18        -0.00713
       7 -> 23        -0.00329
       7 -> 28         0.00194
       7 -> 31        -0.00330
       7 -> 37         0.00135
       7 -> 44        -0.00094
       7 -> 52         0.00104
       8 -> 12        -0.00652
       8 -> 16         0.02520
       8 -> 19        -0.01534
       8 -> 22        -0.00769
       8 -> 30        -0.00622
       8 -> 33         0.00066
       8 -> 36        -0.00028
       8 -> 42         0.00011
       8 -> 49        -0.00016
       8 -> 51         0.00010
       8 -> 53        -0.00045
       3 <- 10        -0.00890
       3 <- 11        -0.00171
       3 <- 13        -0.00038
       3 <- 15        -0.00047
       3 <- 17        -0.00166
       3 <- 20        -0.00275
       3 <- 21         0.00038
       3 <- 24        -0.00050
       3 <- 26        -0.00033
       3 <- 29         0.00053
       3 <- 32         0.00200
       3 <- 34         0.00044
       3 <- 35        -0.00093
       3 <- 39        -0.00012
       3 <- 43         0.00038
       3 <- 45        -0.00149
       3 <- 48         0.00230
       3 <- 50         0.00172
       4 <- 10         0.00167
       4 <- 11         0.00652
       4 <- 13         0.00102
       4 <- 15        -0.00475
       4 <- 17         0.00113
       4 <- 20         0.00176
       4 <- 24        -0.00275
       4 <- 26         0.00213
       4 <- 29        -0.00040
       4 <- 32        -0.00080
       4 <- 34        -0.00047
       4 <- 35         0.00014
       4 <- 39        -0.00036
       4 <- 41         0.00010
       4 <- 43        -0.00033
       4 <- 45         0.00060
       4 <- 48        -0.00034
       5 <- 12         0.00458
       5 <- 16         0.00035
       5 <- 19         0.00073
       5 <- 22         0.00443
       5 <- 25        -0.00248
       5 <- 30         0.00029
       5 <- 33        -0.00183
       5 <- 36         0.00237
       5 <- 40        -0.00076
       5 <- 42        -0.00087
       5 <- 51        -0.00089
       6 <- 10         0.09755
       6 <- 11         0.01142
       6 <- 13        -0.01324
       6 <- 15        -0.00940
       6 <- 17        -0.00897
       6 <- 20        -0.00096
       6 <- 21         0.00221
       6 <- 24        -0.00383
       6 <- 26        -0.00062
       6 <- 29        -0.00012
       6 <- 32         0.00446
       6 <- 34         0.00149
       6 <- 35         0.00046
       6 <- 39        -0.00148
       6 <- 43         0.00063
       6 <- 45        -0.00075
       6 <- 48         0.00033
       6 <- 50         0.00023
       6 <- 54        -0.00093
       7 <-  9        -0.12735
       7 <- 14         0.00142
       7 <- 18        -0.00971
       7 <- 23        -0.00037
       7 <- 28        -0.00082
       7 <- 31        -0.00154
       7 <- 37         0.00066
       7 <- 44        -0.00089
       7 <- 46        -0.00047
       7 <- 52         0.00098
       8 <- 12        -0.00338
       8 <- 16         0.01483
       8 <- 19        -0.01013
       8 <- 22        -0.00561
       8 <- 25         0.00011
       8 <- 30        -0.00525
       8 <- 33         0.00054
       8 <- 36        -0.00020
       8 <- 49        -0.00025
       8 <- 53        -0.00043

 Excited State   4:      Singlet-B1     2.7757 eV  446.67 nm  f=0.0003  <S**2>=0.000
       3 ->  9        -0.01522
       3 -> 14         0.00038
       3 -> 18        -0.00308
       3 -> 23         0.00096
       3 -> 28        -0.00145
       3 -> 31        -0.00113
       3 -> 37         0.00015
       3 -> 46        -0.00186
       3 -> 52         0.00038
       4 ->  9        -0.00644
       4 -> 14         0.00107
       4 -> 18         0.00025
       4 -> 23         0.00087
       4 -> 28         0.00060
       4 -> 31        -0.00063
       4 -> 46         0.00023
       5 -> 27        -0.00231
       5 -> 38        -0.00037
       5 -> 47         0.00025
       6 ->  9         0.38755
       6 -> 14        -0.01064
       6 -> 18         0.01050
       6 -> 23        -0.00665
       6 -> 28         0.00371
       6 -> 44        -0.00065
       6 -> 46         0.00176
       6 -> 52         0.00018
       7 -> 10         0.59806
       7 -> 11         0.03175
       7 -> 13        -0.03114
       7 -> 15        -0.01616
       7 -> 17        -0.01328
       7 -> 20         0.00505
       7 -> 21         0.00236
       7 -> 24        -0.00618
       7 -> 26        -0.00431
       7 -> 29        -0.00895
       7 -> 32         0.00218
       7 -> 34        -0.00098
       7 -> 35         0.00091
       7 -> 41        -0.00012
       7 -> 43         0.00042
       7 -> 45        -0.00113
       7 -> 48         0.00257
       7 -> 50         0.00073
       7 -> 54        -0.00136
       8 -> 27         0.00012
       8 -> 47         0.00311
       3 <-  9        -0.00509
       3 <- 14        -0.00036
       3 <- 18        -0.00195
       3 <- 28        -0.00096
       3 <- 31        -0.00059
       3 <- 44        -0.00024
       3 <- 46        -0.00182
       3 <- 52         0.00056
       4 <-  9        -0.00319
       4 <- 14         0.00098
       4 <- 18         0.00094
       4 <- 23         0.00081
       4 <- 28         0.00126
       4 <- 31        -0.00049
       4 <- 44        -0.00037
       4 <- 46         0.00010
       5 <- 27        -0.00218
       5 <- 38        -0.00028
       5 <- 47         0.00024
       6 <-  9        -0.06936
       6 <- 14         0.00231
       6 <- 18        -0.00719
       6 <- 23         0.00102
       6 <- 28        -0.00415
       6 <- 31        -0.00272
       6 <- 37         0.00040
       6 <- 44         0.00055
       6 <- 46         0.00182
       6 <- 52        -0.00091
       7 <- 10        -0.07672
       7 <- 11        -0.00798
       7 <- 13         0.00991
       7 <- 15         0.00435
       7 <- 17         0.00399
       7 <- 20        -0.00128
       7 <- 21        -0.00243
       7 <- 24         0.00217
       7 <- 26         0.00147
       7 <- 29         0.00249
       7 <- 34        -0.00016
       7 <- 35        -0.00054
       7 <- 39        -0.00026
       7 <- 41         0.00023
       7 <- 43         0.00021
       7 <- 45        -0.00082
       7 <- 48         0.00236
       7 <- 50         0.00104
       8 <- 27         0.00036
       8 <- 47         0.00282

 Excited State   5:      Singlet-B1     3.3964 eV  365.05 nm  f=0.0048  <S**2>=0.000
       3 ->  9        -0.00830
       3 -> 14         0.00035
       3 -> 18        -0.00021
       3 -> 23         0.00031
       3 -> 28         0.00136
       3 -> 31         0.00062
       3 -> 44         0.00047
       3 -> 46         0.00304
       3 -> 52         0.00046
       4 ->  9         0.02745
       4 -> 14        -0.00560
       4 -> 18        -0.00046
       4 -> 23        -0.00448
       4 -> 28        -0.00014
       4 -> 31        -0.00094
       4 -> 37        -0.00034
       4 -> 44         0.00037
       4 -> 46        -0.00086
       4 -> 52        -0.00020
       5 -> 27         0.00520
       5 -> 38         0.00377
       6 ->  9         0.59479
       6 -> 14        -0.01159
       6 -> 18         0.00570
       6 -> 23        -0.00755
       6 -> 28        -0.00087
       6 -> 31         0.00452
       6 -> 37        -0.00290
       6 -> 44        -0.00148
       6 -> 46         0.00209
       6 -> 52         0.00108
       7 -> 10        -0.38103
       7 -> 11        -0.01453
       7 -> 13         0.01553
       7 -> 15         0.01462
       7 -> 17         0.00251
       7 -> 20         0.00247
       7 -> 21        -0.00060
       7 -> 24         0.00487
       7 -> 26         0.00210
       7 -> 29         0.00440
       7 -> 34         0.00288
       7 -> 35         0.00150
       7 -> 39        -0.00057
       7 -> 43        -0.00018
       7 -> 45         0.00030
       7 -> 48         0.00121
       7 -> 50         0.00062
       7 -> 54         0.00129
       8 -> 27        -0.00037
       8 -> 38        -0.00015
       8 -> 47         0.00141
       3 <-  9        -0.00265
       3 <- 14        -0.00099
       3 <- 18        -0.00056
       3 <- 23        -0.00064
       3 <- 28         0.00111
       3 <- 31        -0.00034
       3 <- 37         0.00034
       3 <- 44         0.00044
       3 <- 46         0.00312
       3 <- 52         0.00016
       4 <-  9         0.01546
       4 <- 14        -0.00300
       4 <- 18         0.00042
       4 <- 23        -0.00304
       4 <- 28         0.00010
       4 <- 31        -0.00074
       4 <- 37        -0.00029
       4 <- 44         0.00038
       4 <- 46        -0.00054
       4 <- 52        -0.00014
       5 <- 27         0.00384
       5 <- 38         0.00329
       6 <-  9         0.00076
       6 <- 14         0.00194
       6 <- 23        -0.00018
       6 <- 28        -0.00215
       6 <- 31         0.00445
       6 <- 37        -0.00273
       6 <- 44        -0.00084
       6 <- 46         0.00134
       6 <- 52         0.00102
       7 <- 10        -0.01934
       7 <- 11        -0.00291
       7 <- 13         0.00526
       7 <- 15         0.00836
       7 <- 17         0.00139
       7 <- 20         0.00475
       7 <- 21        -0.00049
       7 <- 24         0.00420
       7 <- 26         0.00132
       7 <- 29         0.00116
       7 <- 32        -0.00121
       7 <- 34         0.00209
       7 <- 35         0.00223
       7 <- 39        -0.00032
       7 <- 43        -0.00030
       7 <- 45         0.00046
       7 <- 48         0.00127
       7 <- 50         0.00094
       7 <- 54         0.00114
       8 <- 47         0.00154

 Excited State   6:      Singlet-A2     6.6533 eV  186.35 nm  f=0.0000  <S**2>=0.000
       3 -> 27        -0.00089
       3 -> 38        -0.00023
       4 -> 27        -0.00606
       4 -> 38         0.00045
       4 -> 47        -0.00015
       5 ->  9         0.70640

 The electronic state is 1-A1.
 Alpha  occ. eigenvalues --  -19.17821 -10.34434  -0.87847  -0.72225  -0.49561
 Alpha  occ. eigenvalues --   -0.37195  -0.29651  -0.28481
 Alpha virt. eigenvalues --   -0.18401  -0.11204  -0.00379   0.04020   0.06020
 Alpha virt. eigenvalues --    0.06079   0.11404   0.12756   0.18524   0.20782
 Alpha virt. eigenvalues --    0.23835   0.30393   0.38473   0.38955   0.50317

 Mulliken charges:
               1
     1  C   -0.113658
     2  H    0.195436
     3  H    0.195436
     4  O   -0.277214
 Sum of Mulliken charges =  -0.00000

 Dipole moment (field-independent basis, Debye):
    X=             -0.0000    Y=             -0.0000    Z=             -4.4246  Tot=              4.4246
 Quadrupole moment (field-independent basis, Debye-Ang):
   XX=            -13.1418   YY=            -12.1330   ZZ=            -10.1857
   XY=              0.0000   XZ=              0.0000   YZ=             -0.0000

 Normal termination of Gaussian 16 at Fri Sep 17 10:53:21 2021.
