 Gaussian 16, Revision A.03,
 Gaussian 16:  ES64L-G16RevA.03 25-Dec-2016

 --------------------------------------------------------------------
 #p B3LYP/6-311+G** #p TD=(singlets,nstates=30)IOp(6/8=3) IOp(9/40=4)
 --------------------------------------------------------------------

 --------------------------------------------
 Scan Step 89, Bond Length 0.9450000000000001
 --------------------------------------------
 Symbolic Z-matrix:
 Charge =  0 Multiplicity = 1

                         Standard orientation:
 ---------------------------------------------------------------------
 Center     Atomic      Atomic             Coordinates (Angstroms)
 Number     Number       Type             X           Y           Z
 ---------------------------------------------------------------------
      1          6           0        0.000000    0.000000   -0.398581
      2          1           0        0.000000    0.937260   -0.989931
      3          1           0       -0.000000   -0.937260   -0.989931
      4          8           0        0.000000    0.000000    0.546419
 ---------------------------------------------------------------------

 SCF Done:  E(RB3LYP) =  -114.350162744     A.U. after    9 cycles

 Excitation energies and oscillator strengths:

 Excited State   1:      Singlet-A2     5.3499 eV  231.75 nm  f=0.0000  <S**2>=0.000
       3 -> 27         0.00298
       3 -> 36         0.00240
       3 -> 46         0.00146
       4 -> 27         0.00328
       4 -> 36        -0.00075
       4 -> 46        -0.00081
       5 ->  9         0.01231
       5 -> 13        -0.00946
       5 -> 17         0.00619
       5 -> 22        -0.00332
       5 -> 28         0.00330
       5 -> 31         0.00240
       5 -> 37         0.00386
       5 -> 43         0.00061
       5 -> 52         0.00079
       6 -> 12        -0.00060
       6 -> 16        -0.00142
       6 -> 18        -0.00082
       6 -> 23         0.00176
       6 -> 24         0.00077
       6 -> 29        -0.00053
       6 -> 33         0.00030
       6 -> 35         0.00055
       6 -> 40        -0.00016
       6 -> 42         0.00048
       6 -> 47         0.00066
       6 -> 50        -0.00017
       6 -> 53         0.00032
       7 -> 27         0.00087
       7 -> 36        -0.00041
       7 -> 46         0.00136
       8 ->  9         0.69652
       8 -> 13        -0.11770
       8 -> 17         0.02858
       8 -> 22        -0.01006
       8 -> 28         0.00585
       8 -> 31         0.00349
       8 -> 37        -0.00208
       8 -> 43        -0.00025
       8 -> 52         0.00109
       3 <- 27         0.00216
       3 <- 36         0.00205
       3 <- 46         0.00152
       4 <- 27         0.00389
       4 <- 36        -0.00037
       4 <- 46        -0.00077
       5 <-  9         0.00025
       5 <- 13        -0.00110
       5 <- 17        -0.00021
       5 <- 22         0.00035
       5 <- 28        -0.00020
       5 <- 31        -0.00111
       5 <- 37         0.00173
       5 <- 43         0.00044
       5 <- 49         0.00013
       5 <- 52         0.00020
       6 <- 12        -0.00096
       6 <- 16         0.00301
       6 <- 18        -0.00297
       6 <- 23         0.00536
       6 <- 24        -0.00140
       6 <- 29         0.00187
       6 <- 33        -0.00106
       6 <- 35         0.00222
       6 <- 40        -0.00024
       6 <- 42         0.00096
       6 <- 47         0.00050
       6 <- 53         0.00086
       7 <- 27         0.00110
       7 <- 36        -0.00044
       7 <- 46         0.00107
       8 <-  9        -0.01173
       8 <- 13         0.00773
       8 <- 17        -0.00400
       8 <- 22         0.00057
       8 <- 28        -0.00042
       8 <- 31         0.00251
       8 <- 37        -0.00227
       8 <- 52         0.00033
 This state for optimization and/or second-order correction.
 Total Energy, E(TD-HF/TD-DFT) =  -114.153557589
 Copying the excited state density for this state as the 1-particle RhoCI density.

 Excited State   2:      Singlet-B2     6.1451 eV  201.76 nm  f=0.0763  <S**2>=0.000
       3 -> 12         0.00098
       3 -> 18         0.00111
       3 -> 23        -0.00010
       3 -> 24         0.00121
       3 -> 29        -0.00016
       3 -> 35        -0.00015
       3 -> 42         0.00011
       3 -> 50        -0.00014
       4 -> 12        -0.00567
       4 -> 16         0.00059
       4 -> 18         0.00199
       4 -> 23        -0.00286
       4 -> 24         0.00403
       4 -> 29        -0.00038
       4 -> 33        -0.00096
       4 -> 35         0.00089
       4 -> 40        -0.00022
       4 -> 42         0.00044
       5 -> 10         0.00041
       5 -> 11        -0.00774
       5 -> 14         0.00585
       5 -> 15         0.00153
       5 -> 19         0.00365
       5 -> 20        -0.00086
       5 -> 21         0.00338
       5 -> 25         0.00096
       5 -> 26        -0.00147
       5 -> 30         0.00245
       5 -> 32        -0.00010
       5 -> 38        -0.00070
       5 -> 39         0.00020
       5 -> 41         0.00026
       5 -> 44         0.00046
       5 -> 45        -0.00058
       5 -> 48         0.00033
       6 -> 27         0.00083
       6 -> 46         0.00083
       7 -> 12         0.00201
       7 -> 16         0.00160
       7 -> 18         0.00425
       7 -> 23        -0.00247
       7 -> 24         0.00221
       7 -> 35        -0.00011
       7 -> 42        -0.00038
       7 -> 47         0.00037
       7 -> 50         0.00051
       8 -> 10         0.70610
       8 -> 11        -0.02527
       8 -> 14        -0.01233
       8 -> 15         0.01131
       8 -> 19         0.01953
       8 -> 20         0.00883
       8 -> 21        -0.00695
       8 -> 25         0.00080
       8 -> 26        -0.00075
       8 -> 30         0.00019
       8 -> 32         0.00244
       8 -> 34         0.00172
       8 -> 38         0.00072
       8 -> 39        -0.00058
       8 -> 41        -0.00026
       8 -> 44        -0.00059
       8 -> 45        -0.00100
       8 -> 48         0.00026
       8 -> 54        -0.00016
       3 <- 12         0.00031
       3 <- 16        -0.00022
       3 <- 18         0.00060
       3 <- 23        -0.00018
       3 <- 24         0.00085
       3 <- 29        -0.00015
       3 <- 35        -0.00015
       4 <- 12         0.00017
       4 <- 16         0.00016
       4 <- 18         0.00274
       4 <- 23        -0.00173
       4 <- 24         0.00301
       4 <- 29        -0.00030
       4 <- 33        -0.00070
       4 <- 35         0.00065
       4 <- 40        -0.00024
       4 <- 42         0.00015
       5 <- 10         0.00224
       5 <- 14         0.00450
       5 <- 15         0.00157
       5 <- 19         0.00092
       5 <- 20        -0.00016
       5 <- 21         0.00196
       5 <- 25         0.00167
       5 <- 26        -0.00130
       5 <- 30         0.00088
       5 <- 32        -0.00044
       5 <- 38        -0.00050
       5 <- 39         0.00016
       5 <- 41         0.00033
       5 <- 44         0.00031
       5 <- 45        -0.00050
       5 <- 48         0.00029
       6 <- 27         0.00064
       6 <- 46         0.00070
       7 <- 12         0.00057
       7 <- 16         0.00135
       7 <- 18         0.00170
       7 <- 23        -0.00097
       7 <- 24         0.00097
       7 <- 29         0.00059
       7 <- 33        -0.00013
       7 <- 35         0.00013
       7 <- 42        -0.00034
       7 <- 47         0.00033
       7 <- 50         0.00055
       8 <- 10        -0.00381
       8 <- 11        -0.00153
       8 <- 14        -0.01139
       8 <- 15        -0.00128
       8 <- 19        -0.00084
       8 <- 20        -0.00033
       8 <- 21        -0.00389
       8 <- 25        -0.00306
       8 <- 26        -0.00055
       8 <- 30        -0.00056
       8 <- 32         0.00113
       8 <- 34         0.00160
       8 <- 38         0.00074
       8 <- 39        -0.00047
       8 <- 41        -0.00012
       8 <- 44        -0.00050
       8 <- 45        -0.00070
       8 <- 48         0.00026

 Excited State   3:      Singlet-B2     6.9320 eV  178.86 nm  f=0.0209  <S**2>=0.000
       3 -> 12        -0.00014
       3 -> 16         0.00070
       3 -> 18         0.00015
       3 -> 23         0.00018
       3 -> 24         0.00040
       3 -> 29         0.00112
       3 -> 33         0.00014
       3 -> 35        -0.00031
       3 -> 42        -0.00032
       3 -> 47         0.00021
       3 -> 50         0.00024
       4 -> 12         0.00300
       4 -> 16         0.00333
       4 -> 18         0.00270
       4 -> 23        -0.00152
       4 -> 24         0.00358
       4 -> 29        -0.00111
       4 -> 33         0.00056
       4 -> 35        -0.00023
       4 -> 40        -0.00022
       4 -> 47         0.00015
       4 -> 50         0.00015
       5 -> 10        -0.00598
       5 -> 11         0.00018
       5 -> 14         0.00373
       5 -> 15         0.00529
       5 -> 19        -0.00366
       5 -> 20        -0.00132
       5 -> 21         0.00125
       5 -> 25         0.00111
       5 -> 26         0.00125
       5 -> 30         0.00082
       5 -> 32        -0.00200
       5 -> 34        -0.00066
       5 -> 39        -0.00066
       5 -> 41        -0.00080
       5 -> 44         0.00011
       5 -> 45         0.00063
       5 -> 48        -0.00045
       5 -> 51        -0.00024
       6 -> 27        -0.00076
       6 -> 36        -0.00130
       6 -> 46        -0.00118
       7 -> 12        -0.00304
       7 -> 16         0.00075
       7 -> 18        -0.00233
       7 -> 23         0.00139
       7 -> 24        -0.00018
       7 -> 29         0.00011
       7 -> 33        -0.00030
       7 -> 35         0.00130
       7 -> 40        -0.00035
       7 -> 42         0.00072
       7 -> 47        -0.00068
       7 -> 50        -0.00064
       7 -> 53         0.00015
       8 -> 10         0.02581
       8 -> 11         0.70564
       8 -> 14        -0.01555
       8 -> 15        -0.02170
       8 -> 19        -0.01967
       8 -> 20         0.01432
       8 -> 21        -0.00241
       8 -> 25         0.00032
       8 -> 26         0.00024
       8 -> 30        -0.00165
       8 -> 32         0.00017
       8 -> 34         0.00042
       8 -> 38        -0.00012
       8 -> 39        -0.00045
       8 -> 41        -0.00139
       8 -> 45         0.00077
       8 -> 48        -0.00072
       8 -> 51        -0.00021
       8 -> 54         0.00017
       3 <- 12         0.00026
       3 <- 16         0.00054
       3 <- 18         0.00045
       3 <- 24         0.00047
       3 <- 29         0.00073
       3 <- 33         0.00018
       3 <- 35        -0.00034
       3 <- 42        -0.00028
       3 <- 47         0.00016
       3 <- 50         0.00013
       3 <- 53        -0.00022
       4 <- 12         0.00031
       4 <- 16         0.00030
       4 <- 18         0.00122
       4 <- 23        -0.00127
       4 <- 24         0.00162
       4 <- 29        -0.00046
       4 <- 33         0.00055
       4 <- 35         0.00011
       4 <- 40        -0.00022
       4 <- 42        -0.00012
       4 <- 50         0.00022
       5 <- 10         0.00136
       5 <- 11        -0.00043
       5 <- 14         0.00193
       5 <- 15         0.00052
       5 <- 19         0.00065
       5 <- 20         0.00017
       5 <- 21         0.00100
       5 <- 25         0.00096
       5 <- 26         0.00090
       5 <- 30         0.00080
       5 <- 32        -0.00058
       5 <- 34        -0.00115
       5 <- 38         0.00012
       5 <- 39        -0.00044
       5 <- 41        -0.00082
       5 <- 44         0.00014
       5 <- 45         0.00063
       5 <- 48        -0.00031
       5 <- 51        -0.00024
       6 <- 27        -0.00031
       6 <- 36        -0.00106
       6 <- 46        -0.00101
       7 <- 12        -0.00036
       7 <- 16        -0.00020
       7 <- 18        -0.00029
       7 <- 23         0.00030
       7 <- 29        -0.00021
       7 <- 35         0.00092
       7 <- 40        -0.00027
       7 <- 42         0.00050
       7 <- 47        -0.00058
       7 <- 50        -0.00058
       8 <- 10        -0.00146
       8 <- 11         0.00107
       8 <- 14        -0.00575
       8 <- 15        -0.00112
       8 <- 19         0.00222
       8 <- 20        -0.00178
       8 <- 21        -0.00247
       8 <- 25        -0.00028
       8 <- 26         0.00105
       8 <- 30        -0.00101
       8 <- 32         0.00113
       8 <- 34        -0.00012
       8 <- 38        -0.00028
       8 <- 39        -0.00021
       8 <- 41        -0.00117
       8 <- 45         0.00066
       8 <- 48        -0.00047
       8 <- 51        -0.00021

 Excited State   4:      Singlet-A1     7.0702 eV  175.36 nm  f=0.0479  <S**2>=0.000
       3 -> 10         0.00140
       3 -> 11        -0.00091
       3 -> 14         0.00023
       3 -> 15         0.00053
       3 -> 19         0.00125
       3 -> 20         0.00053
       3 -> 21        -0.00012
       3 -> 25         0.00014
       3 -> 26        -0.00020
       3 -> 30         0.00112
       3 -> 32        -0.00028
       3 -> 34        -0.00020
       3 -> 38        -0.00036
       3 -> 39        -0.00021
       3 -> 41        -0.00016
       3 -> 48        -0.00015
       3 -> 51        -0.00031
       3 -> 54         0.00021
       4 -> 10         0.00555
       4 -> 11         0.00981
       4 -> 14         0.00623
       4 -> 15         0.00128
       4 -> 19         0.00081
       4 -> 20         0.00641
       4 -> 21         0.00243
       4 -> 25         0.00696
       4 -> 26        -0.00080
       4 -> 30        -0.00068
       4 -> 32        -0.00049
       4 -> 34        -0.00095
       4 -> 38        -0.00017
       4 -> 39         0.00067
       4 -> 41         0.00019
       4 -> 45        -0.00032
       4 -> 48        -0.00025
       5 -> 12         0.00771
       5 -> 16         0.00599
       5 -> 18         0.00946
       5 -> 23         0.00016
       5 -> 24         0.00448
       5 -> 29         0.00052
       5 -> 33        -0.00016
       5 -> 35         0.00091
       5 -> 42        -0.00020
       5 -> 50        -0.00036
       5 -> 53        -0.00015
       6 ->  9         0.00872
       6 -> 13         0.00455
       6 -> 17         0.00515
       6 -> 22         0.00446
       6 -> 28         0.00048
       6 -> 31         0.00087
       6 -> 37         0.00053
       6 -> 43         0.00056
       6 -> 49        -0.00037
       7 -> 10         0.01330
       7 -> 11        -0.00491
       7 -> 14         0.00339
       7 -> 15        -0.00129
       7 -> 19         0.00706
       7 -> 20         0.00364
       7 -> 21         0.00141
       7 -> 25         0.00212
       7 -> 26        -0.00036
       7 -> 32         0.00058
       7 -> 34        -0.00089
       7 -> 39         0.00020
       7 -> 44        -0.00010
       7 -> 48        -0.00019
       7 -> 51         0.00050
       8 -> 12         0.70555
       8 -> 16         0.03821
       8 -> 18         0.01092
       8 -> 23         0.00441
       8 -> 24         0.00146
       8 -> 29         0.00277
       8 -> 33         0.00152
       8 -> 35        -0.00241
       8 -> 42         0.00128
       8 -> 47        -0.00040
       8 -> 50        -0.00017
       8 -> 53        -0.00015
       3 <- 10         0.00057
       3 <- 11        -0.00030
       3 <- 14         0.00016
       3 <- 15         0.00023
       3 <- 19         0.00066
       3 <- 20         0.00023
       3 <- 25         0.00026
       3 <- 30         0.00067
       3 <- 32        -0.00022
       3 <- 34        -0.00013
       3 <- 38        -0.00027
       3 <- 39        -0.00018
       3 <- 41        -0.00016
       3 <- 48        -0.00017
       3 <- 51        -0.00027
       3 <- 54         0.00019
       4 <- 10         0.00554
       4 <- 11         0.00325
       4 <- 14         0.00461
       4 <- 15         0.00143
       4 <- 19         0.00062
       4 <- 20         0.00362
       4 <- 21         0.00090
       4 <- 25         0.00413
       4 <- 26        -0.00037
       4 <- 32        -0.00077
       4 <- 34        -0.00091
       4 <- 38        -0.00026
       4 <- 39         0.00059
       4 <- 45        -0.00030
       4 <- 48        -0.00021
       5 <- 12         0.00270
       5 <- 16         0.00119
       5 <- 18         0.00415
       5 <- 23         0.00046
       5 <- 24         0.00242
       5 <- 29         0.00013
       5 <- 33        -0.00031
       5 <- 35         0.00080
       5 <- 42        -0.00018
       5 <- 50        -0.00028
       5 <- 53        -0.00013
       6 <-  9         0.00261
       6 <- 13         0.00166
       6 <- 17         0.00218
       6 <- 22         0.00256
       6 <- 28         0.00026
       6 <- 31         0.00065
       6 <- 37         0.00043
       6 <- 43         0.00047
       6 <- 49        -0.00032
       7 <- 10         0.00434
       7 <- 11        -0.00101
       7 <- 14         0.00158
       7 <- 15        -0.00043
       7 <- 19         0.00289
       7 <- 20         0.00202
       7 <- 21         0.00053
       7 <- 25         0.00123
       7 <- 26        -0.00040
       7 <- 30         0.00011
       7 <- 32         0.00032
       7 <- 34        -0.00065
       7 <- 39         0.00027
       7 <- 41         0.00012
       7 <- 51         0.00046
       8 <- 12        -0.00302
       8 <- 16         0.00732
       8 <- 18        -0.00815
       8 <- 23        -0.00013
       8 <- 24        -0.00233
       8 <- 29         0.00120
       8 <- 33         0.00106
       8 <- 35        -0.00161
       8 <- 42         0.00105
       8 <- 47        -0.00047
       8 <- 50        -0.00015
       8 <- 53        -0.00016

 Excited State   5:      Singlet-A2     7.6944 eV  161.14 nm  f=0.0000  <S**2>=0.000
       3 -> 27        -0.00133
       3 -> 36        -0.00113
       3 -> 46        -0.00060
       4 -> 27        -0.00044
       4 -> 36         0.00068
       4 -> 46         0.00020
       5 ->  9        -0.00954
       5 -> 13         0.00521
       5 -> 17         0.00359
       5 -> 22         0.00036
       5 -> 28        -0.00012
       5 -> 31        -0.00214
       5 -> 37        -0.00205
       5 -> 43        -0.00030
       5 -> 52        -0.00032
       6 -> 12        -0.00034
       6 -> 16         0.00207
       6 -> 18         0.00087
       6 -> 23        -0.00106
       6 -> 24        -0.00025
       6 -> 29         0.00031
       6 -> 35        -0.00030
       6 -> 42        -0.00027
       6 -> 47        -0.00026
       6 -> 53        -0.00015
       7 -> 36         0.00026
       7 -> 46        -0.00063
       8 ->  9         0.11811
       8 -> 13         0.69675
       8 -> 17         0.00188
       8 -> 22         0.02195
       8 -> 28        -0.00122
       8 -> 31        -0.00136
       8 -> 37         0.00059
       8 -> 43         0.00012
       8 -> 49         0.00017
       8 -> 52        -0.00037
       3 <- 27        -0.00074
       3 <- 36        -0.00090
       3 <- 46        -0.00070
       4 <- 27        -0.00097
       4 <- 46         0.00023
       5 <-  9        -0.00028
       5 <- 17         0.00061
       5 <- 22        -0.00011
       5 <- 31         0.00015
       5 <- 37        -0.00061
       5 <- 43        -0.00016
       5 <- 52        -0.00010
       6 <- 12        -0.00054
       6 <- 16         0.00051
       6 <- 18         0.00062
       6 <- 23        -0.00215
       6 <- 24         0.00011
       6 <- 33         0.00064
       6 <- 35        -0.00114
       6 <- 40         0.00012
       6 <- 42        -0.00062
       6 <- 47        -0.00010
       6 <- 53        -0.00031
       7 <- 27        -0.00030
       7 <- 36         0.00026
       7 <- 46        -0.00029
       8 <-  9         0.00574
       8 <- 13         0.00013
       8 <- 17         0.00054
       8 <- 22        -0.00046
       8 <- 28         0.00019
       8 <- 31        -0.00068
       8 <- 37         0.00070
       8 <- 52        -0.00015

 The electronic state is 1-A1.
 Alpha  occ. eigenvalues --  -19.13801 -10.23967  -1.23646  -0.60429  -0.58244
 Alpha  occ. eigenvalues --   -0.52740  -0.50870  -0.25111
 Alpha virt. eigenvalues --    0.00476   0.01370   0.04332   0.04404   0.08083
 Alpha virt. eigenvalues --    0.14030   0.17875   0.20432   0.21939   0.22717
 Alpha virt. eigenvalues --    0.26531   0.36134   0.49791   0.52042   0.52275

 Mulliken charges:
               1
     1  C    0.159638
     2  H    0.024536
     3  H    0.024536
     4  O   -0.208711
 Sum of Mulliken charges =   0.00000

 Dipole moment (field-independent basis, Debye):
    X=              0.0000    Y=              0.0000    Z=             -0.9411  Tot=              0.9411
 Quadrupole moment (field-independent basis, Debye-Ang):
   XX=            -10.9516   YY=            -12.1507   ZZ=            -13.0855
   XY=             -0.0000   XZ=             -0.0000   YZ=              0.0000

 Normal termination of Gaussian 16 at Fri Sep 17 10:52:33 2021.
