 Gaussian 16, Revision A.03,
 Gaussian 16:  ES64L-G16RevA.03 25-Dec-2016

 --------------------------------------------------------------------
 #p B3LYP/6-311+G** #p TD=(singlets,nstates=30)IOp(6/8=3) IOp(9/40=4)
 --------------------------------------------------------------------

 -------------------------------
 Scan Step 262, Bond Length 1.81
 -------------------------------
 Symbolic Z-matrix:
 Charge =  0 Multiplicity = 1

                         Standard orientation:
 ---------------------------------------------------------------------
 Center     Atomic      Atomic             Coordinates (Angstroms)
 Number     Number       Type             X           Y           Z
 ---------------------------------------------------------------------
      1          6           0        0.000000   -0.000000   -0.831081
      2          1           0        0.000000    0.937260   -1.422431
      3          1           0       -0.000000   -0.937260   -1.422431
      4          8           0        0.000000    0.000000    0.978919
 ---------------------------------------------------------------------

 SCF Done:  E(RB3LYP) =  -114.353284364     A.U. after   12 cycles

 Excitation energies and oscillator strengths:

 Excited State   1:      Singlet-A2     1.3427 eV  923.39 nm  f=0.0000  <S**2>=0.000
       3 -> 27         0.00075
       3 -> 38         0.00048
       3 -> 46         0.00335
       4 -> 27         0.00041
       4 -> 46        -0.00100
       5 ->  9         0.00213
       5 -> 13         0.00111
       5 -> 18         0.00180
       5 -> 23         0.00140
       5 -> 28         0.00141
       5 -> 37         0.00079
       5 -> 44         0.00022
       5 -> 52         0.00019
       6 -> 27        -0.00058
       6 -> 38        -0.00058
       6 -> 46         0.00098
       7 -> 12        -0.00124
       7 -> 16         0.00526
       7 -> 19        -0.00462
       7 -> 22        -0.00110
       7 -> 25        -0.00060
       7 -> 29        -0.00188
       7 -> 33         0.00028
       7 -> 49         0.00013
       7 -> 53         0.00039
       8 ->  9         0.71057
       8 -> 13        -0.00730
       8 -> 18         0.02091
       8 -> 23        -0.00115
       8 -> 28         0.01039
       8 -> 31         0.00159
       8 -> 37         0.00050
       8 -> 48        -0.00030
       8 -> 52         0.00187
       3 <- 27         0.00022
       3 <- 38         0.00025
       3 <- 46         0.00338
       4 <- 27         0.00076
       4 <- 38         0.00020
       4 <- 46        -0.00078
       5 <-  9         0.00030
       5 <- 13        -0.00035
       5 <- 18        -0.00041
       5 <- 23         0.00017
       5 <- 28        -0.00030
       5 <- 31         0.00023
       5 <- 37         0.00046
       6 <- 38        -0.00045
       6 <- 46         0.00072
       7 <- 12         0.00169
       7 <- 16        -0.01054
       7 <- 19         0.00541
       7 <- 22         0.00587
       7 <- 25        -0.00063
       7 <- 29         0.00560
       7 <- 33        -0.00035
       7 <- 35         0.00021
       7 <- 40        -0.00014
       7 <- 42        -0.00013
       7 <- 49        -0.00048
       7 <- 53         0.00145
       8 <-  9        -0.07284
       8 <- 13        -0.00035
       8 <- 18        -0.00763
       8 <- 23        -0.00029
       8 <- 28        -0.00273
       8 <- 31        -0.00080
       8 <- 37        -0.00022
       8 <- 48         0.00013
       8 <- 52         0.00045
 This state for optimization and/or second-order correction.
 Total Energy, E(TD-HF/TD-DFT) =  -114.303940631
 Copying the excited state density for this state as the 1-particle RhoCI density.

 Excited State   2:      Singlet-A1     3.5317 eV  351.06 nm  f=0.0343  <S**2>=0.000
       3 -> 10        -0.01540
       3 -> 11        -0.00360
       3 -> 14         0.00199
       3 -> 15         0.00064
       3 -> 17        -0.00313
       3 -> 20        -0.00363
       3 -> 21         0.00035
       3 -> 24         0.00068
       3 -> 26         0.00155
       3 -> 30        -0.00078
       3 -> 32         0.00277
       3 -> 34        -0.00115
       3 -> 36        -0.00103
       3 -> 39         0.00046
       3 -> 43         0.00053
       3 -> 45        -0.00090
       3 -> 47         0.00231
       3 -> 50         0.00151
       4 -> 10        -0.00219
       4 -> 11         0.01091
       4 -> 14         0.00211
       4 -> 15        -0.00802
       4 -> 17         0.00233
       4 -> 20         0.00240
       4 -> 21         0.00029
       4 -> 24        -0.00390
       4 -> 26         0.00350
       4 -> 30         0.00044
       4 -> 32        -0.00127
       4 -> 34         0.00085
       4 -> 36         0.00017
       4 -> 39         0.00017
       4 -> 43        -0.00048
       4 -> 45         0.00078
       4 -> 47        -0.00081
       4 -> 50        -0.00029
       4 -> 54         0.00015
       5 -> 12         0.01033
       5 -> 16         0.00332
       5 -> 19         0.00121
       5 -> 22         0.00699
       5 -> 25        -0.00496
       5 -> 29         0.00033
       5 -> 33        -0.00248
       5 -> 35         0.00275
       5 -> 40        -0.00105
       5 -> 42        -0.00096
       5 -> 49         0.00017
       5 -> 51        -0.00084
       6 -> 10         0.24479
       6 -> 11         0.04178
       6 -> 14        -0.04732
       6 -> 15        -0.02538
       6 -> 17        -0.01625
       6 -> 20        -0.00225
       6 -> 21         0.00618
       6 -> 24        -0.00850
       6 -> 26        -0.00352
       6 -> 30        -0.00472
       6 -> 32         0.00363
       6 -> 34        -0.00139
       6 -> 36         0.00040
       6 -> 39         0.00129
       6 -> 41        -0.00014
       6 -> 43         0.00083
       6 -> 45        -0.00086
       6 -> 47         0.00083
       6 -> 50         0.00059
       6 -> 54        -0.00094
       7 ->  9         0.67690
       7 -> 13        -0.00638
       7 -> 18        -0.01116
       7 -> 23        -0.00243
       7 -> 28         0.00103
       7 -> 31        -0.00327
       7 -> 37         0.00130
       7 -> 44        -0.00097
       7 -> 48         0.00011
       7 -> 52         0.00106
       8 -> 12        -0.00765
       8 -> 16         0.03944
       8 -> 19        -0.01914
       8 -> 22        -0.01384
       8 -> 29        -0.00840
       8 -> 33         0.00106
       8 -> 35        -0.00085
       8 -> 40         0.00035
       8 -> 42         0.00028
       8 -> 49         0.00017
       8 -> 51         0.00015
       8 -> 53        -0.00052
       3 <- 10        -0.01194
       3 <- 11        -0.00315
       3 <- 14         0.00165
       3 <- 15         0.00010
       3 <- 17        -0.00177
       3 <- 20        -0.00308
       3 <- 21        -0.00011
       3 <- 24         0.00015
       3 <- 26         0.00058
       3 <- 30        -0.00032
       3 <- 32         0.00244
       3 <- 34        -0.00061
       3 <- 36        -0.00101
       3 <- 39         0.00042
       3 <- 43         0.00059
       3 <- 45        -0.00104
       3 <- 47         0.00232
       3 <- 50         0.00151
       4 <- 10        -0.00028
       4 <- 11         0.00786
       4 <- 14         0.00155
       4 <- 15        -0.00543
       4 <- 17         0.00139
       4 <- 20         0.00278
       4 <- 21         0.00013
       4 <- 24        -0.00295
       4 <- 26         0.00306
       4 <- 30        -0.00016
       4 <- 32        -0.00137
       4 <- 34         0.00072
       4 <- 36         0.00046
       4 <- 39         0.00019
       4 <- 43        -0.00044
       4 <- 45         0.00074
       4 <- 47        -0.00050
       4 <- 50        -0.00016
       4 <- 54         0.00012
       5 <- 12         0.00605
       5 <- 16         0.00215
       5 <- 19         0.00095
       5 <- 22         0.00496
       5 <- 25        -0.00383
       5 <- 29         0.00035
       5 <- 33        -0.00206
       5 <- 35         0.00236
       5 <- 40        -0.00095
       5 <- 42        -0.00084
       5 <- 49         0.00017
       5 <- 51        -0.00079
       6 <- 10         0.08293
       6 <- 11         0.01696
       6 <- 14        -0.02249
       6 <- 15        -0.01329
       6 <- 17        -0.00963
       6 <- 20        -0.00268
       6 <- 21         0.00423
       6 <- 24        -0.00560
       6 <- 26        -0.00185
       6 <- 30        -0.00319
       6 <- 32         0.00361
       6 <- 34        -0.00156
       6 <- 36        -0.00011
       6 <- 39         0.00118
       6 <- 41        -0.00012
       6 <- 43         0.00069
       6 <- 45        -0.00064
       6 <- 47         0.00048
       6 <- 50         0.00046
       6 <- 54        -0.00086
       7 <-  9        -0.13090
       7 <- 13         0.00378
       7 <- 18        -0.01163
       7 <- 23         0.00104
       7 <- 28        -0.00191
       7 <- 31        -0.00159
       7 <- 37         0.00061
       7 <- 44        -0.00077
       7 <- 48        -0.00040
       7 <- 52         0.00097
       8 <- 12        -0.00301
       8 <- 16         0.01920
       8 <- 19        -0.01079
       8 <- 22        -0.00901
       8 <- 25         0.00012
       8 <- 29        -0.00668
       8 <- 33         0.00084
       8 <- 35        -0.00067
       8 <- 40         0.00027
       8 <- 42         0.00022
       8 <- 51         0.00013
       8 <- 53        -0.00049

 Excited State   3:      Singlet-B2     3.9334 eV  315.21 nm  f=0.0030  <S**2>=0.000
       3 -> 12        -0.00127
       3 -> 16         0.00142
       3 -> 19        -0.00409
       3 -> 22         0.00102
       3 -> 25        -0.00085
       3 -> 29        -0.00273
       3 -> 33         0.00018
       3 -> 35         0.00155
       3 -> 40        -0.00140
       3 -> 42        -0.00052
       3 -> 49        -0.00376
       3 -> 51         0.00018
       3 -> 53         0.00028
       4 -> 12         0.00042
       4 -> 16        -0.00163
       4 -> 19         0.00040
       4 -> 22         0.00192
       4 -> 25         0.00075
       4 -> 29         0.00100
       4 -> 33        -0.00036
       4 -> 35         0.00045
       4 -> 40         0.00032
       4 -> 42         0.00012
       4 -> 49         0.00072
       4 -> 51        -0.00011
       5 -> 10         0.01049
       5 -> 11         0.00159
       5 -> 14        -0.00413
       5 -> 15         0.00347
       5 -> 17        -0.00047
       5 -> 20         0.00203
       5 -> 21         0.00345
       5 -> 24         0.00150
       5 -> 26        -0.00067
       5 -> 30        -0.00206
       5 -> 32        -0.00153
       5 -> 34         0.00035
       5 -> 39        -0.00073
       5 -> 41         0.00045
       5 -> 47        -0.00046
       5 -> 50         0.00029
       5 -> 54        -0.00020
       6 -> 12         0.00254
       6 -> 16        -0.00266
       6 -> 19         0.00405
       6 -> 22        -0.00059
       6 -> 25         0.00111
       6 -> 35        -0.00137
       6 -> 40         0.00096
       6 -> 42         0.00067
       6 -> 49         0.00132
       6 -> 53        -0.00045
       7 -> 27        -0.00057
       7 -> 38         0.00039
       7 -> 46         0.00322
       8 -> 10         0.70101
       8 -> 11         0.07041
       8 -> 14        -0.06355
       8 -> 15        -0.02521
       8 -> 17        -0.01647
       8 -> 20         0.00407
       8 -> 21         0.00646
       8 -> 24        -0.00612
       8 -> 26        -0.00472
       8 -> 30        -0.01267
       8 -> 32        -0.00235
       8 -> 34         0.00133
       8 -> 36         0.00123
       8 -> 39        -0.00061
       8 -> 41        -0.00014
       8 -> 45        -0.00089
       8 -> 47        -0.00398
       8 -> 50         0.00160
       8 -> 54        -0.00238
       3 <- 12        -0.00045
       3 <- 16         0.00048
       3 <- 19        -0.00200
       3 <- 22         0.00095
       3 <- 25        -0.00077
       3 <- 29        -0.00110
       3 <- 33         0.00018
       3 <- 35         0.00106
       3 <- 40        -0.00121
       3 <- 42        -0.00038
       3 <- 49        -0.00383
       3 <- 51         0.00017
       3 <- 53         0.00077
       4 <- 16        -0.00179
       4 <- 19         0.00017
       4 <- 22         0.00220
       4 <- 25         0.00044
       4 <- 29         0.00118
       4 <- 33        -0.00038
       4 <- 35         0.00065
       4 <- 40         0.00013
       4 <- 49         0.00051
       5 <- 10        -0.00089
       5 <- 11        -0.00077
       5 <- 14        -0.00053
       5 <- 15         0.00270
       5 <- 17         0.00020
       5 <- 20         0.00077
       5 <- 21         0.00174
       5 <- 24         0.00174
       5 <- 26        -0.00016
       5 <- 30        -0.00044
       5 <- 32        -0.00031
       5 <- 39        -0.00032
       5 <- 41         0.00048
       5 <- 45        -0.00025
       5 <- 47        -0.00045
       5 <- 50         0.00016
       6 <- 12        -0.00064
       6 <- 16         0.00750
       6 <- 19        -0.00390
       6 <- 22        -0.00510
       6 <- 25         0.00114
       6 <- 29        -0.00597
       6 <- 33         0.00026
       6 <- 35        -0.00123
       6 <- 40         0.00097
       6 <- 42         0.00071
       6 <- 49         0.00178
       6 <- 53        -0.00139
       7 <- 27        -0.00057
       7 <- 38         0.00032
       7 <- 46         0.00276
       8 <- 10        -0.03907
       8 <- 11        -0.00781
       8 <- 14         0.00822
       8 <- 15         0.00232
       8 <- 17         0.00169
       8 <- 20        -0.00313
       8 <- 21        -0.00149
       8 <- 24         0.00157
       8 <- 26         0.00134
       8 <- 30         0.00111
       8 <- 32         0.00300
       8 <- 34        -0.00090
       8 <- 36        -0.00073
       8 <- 39         0.00120
       8 <- 41         0.00026
       8 <- 43         0.00046
       8 <- 45        -0.00165
       8 <- 47        -0.00326
       8 <- 50         0.00124
       8 <- 54        -0.00064

 Excited State   4:      Singlet-B1     4.0032 eV  309.71 nm  f=0.0004  <S**2>=0.000
       3 ->  9        -0.02371
       3 -> 13         0.00093
       3 -> 18        -0.00378
       3 -> 23         0.00127
       3 -> 28        -0.00090
       3 -> 31        -0.00071
       3 -> 37         0.00014
       3 -> 44         0.00033
       3 -> 48         0.00047
       3 -> 52         0.00075
       4 ->  9         0.00762
       4 -> 13        -0.00177
       4 -> 18         0.00014
       4 -> 23        -0.00159
       4 -> 28         0.00051
       4 -> 31        -0.00122
       4 -> 37        -0.00027
       4 -> 48        -0.00055
       4 -> 52        -0.00032
       5 -> 27        -0.00019
       5 -> 38         0.00157
       5 -> 46         0.00048
       6 ->  9         0.66832
       6 -> 13        -0.01689
       6 -> 18         0.01419
       6 -> 23        -0.01009
       6 -> 28         0.00360
       6 -> 31         0.00219
       6 -> 37        -0.00148
       6 -> 44        -0.00185
       6 -> 48         0.00339
       6 -> 52         0.00099
       7 -> 10         0.23389
       7 -> 11         0.02722
       7 -> 14        -0.02588
       7 -> 15        -0.00873
       7 -> 17        -0.00996
       7 -> 20         0.00376
       7 -> 21         0.00170
       7 -> 24        -0.00286
       7 -> 26        -0.00296
       7 -> 30        -0.00488
       7 -> 32         0.00014
       7 -> 34        -0.00054
       7 -> 36         0.00142
       7 -> 39         0.00017
       7 -> 41        -0.00020
       7 -> 43         0.00048
       7 -> 45        -0.00059
       7 -> 47         0.00361
       7 -> 50         0.00121
       7 -> 54        -0.00017
       8 -> 27         0.00012
       8 -> 46         0.00442
       3 <-  9        -0.00796
       3 <- 13        -0.00082
       3 <- 18        -0.00253
       3 <- 23        -0.00053
       3 <- 28        -0.00050
       3 <- 31        -0.00076
       3 <- 37         0.00016
       3 <- 48         0.00057
       3 <- 52         0.00070
       4 <-  9         0.00493
       4 <- 13        -0.00030
       4 <- 18         0.00145
       4 <- 23        -0.00060
       4 <- 28         0.00143
       4 <- 31        -0.00086
       4 <- 37        -0.00016
       4 <- 44        -0.00014
       4 <- 48        -0.00050
       4 <- 52        -0.00017
       5 <- 27        -0.00061
       5 <- 38         0.00136
       5 <- 46         0.00042
       6 <-  9        -0.03991
       6 <- 13         0.00212
       6 <- 18        -0.00480
       6 <- 23         0.00016
       6 <- 28        -0.00400
       6 <- 37        -0.00119
       6 <- 44        -0.00053
       6 <- 48         0.00306
       7 <- 10        -0.04624
       7 <- 11        -0.00929
       7 <- 14         0.01337
       7 <- 15         0.00842
       7 <- 17         0.00298
       7 <- 20         0.00284
       7 <- 21        -0.00339
       7 <- 24         0.00408
       7 <- 26         0.00178
       7 <- 30         0.00203
       7 <- 32         0.00033
       7 <- 34        -0.00093
       7 <- 36         0.00136
       7 <- 39         0.00059
       7 <- 41         0.00016
       7 <- 43         0.00027
       7 <- 45        -0.00034
       7 <- 47         0.00335
       7 <- 50         0.00133
       7 <- 54         0.00081
       8 <- 27         0.00057
       8 <- 38         0.00011
       8 <- 46         0.00414

 Excited State   5:      Singlet-B1     4.7356 eV  261.81 nm  f=0.0070  <S**2>=0.000
       3 ->  9        -0.00551
       3 -> 13         0.00021
       3 -> 18        -0.00211
       3 -> 23         0.00046
       3 -> 28        -0.00262
       3 -> 31        -0.00144
       3 -> 37         0.00011
       3 -> 44         0.00018
       3 -> 48        -0.00304
       3 -> 52        -0.00019
       4 ->  9        -0.03061
       4 -> 13         0.00602
       4 -> 18         0.00094
       4 -> 23         0.00464
       4 -> 28         0.00115
       4 -> 31         0.00029
       4 -> 37         0.00033
       4 -> 44        -0.00043
       4 -> 48         0.00084
       4 -> 52         0.00016
       5 -> 27        -0.00646
       5 -> 38        -0.00341
       5 -> 46         0.00021
       6 ->  9        -0.23366
       6 -> 13         0.00187
       6 -> 18         0.00029
       6 -> 23         0.00165
       6 -> 28         0.00285
       6 -> 31        -0.00388
       6 -> 37         0.00235
       6 -> 44         0.00074
       6 -> 48        -0.00026
       6 -> 52        -0.00080
       7 -> 10         0.66193
       7 -> 11         0.05750
       7 -> 14        -0.05487
       7 -> 15        -0.03084
       7 -> 17        -0.00897
       7 -> 20        -0.00254
       7 -> 21         0.00332
       7 -> 24        -0.00929
       7 -> 26        -0.00585
       7 -> 30        -0.00727
       7 -> 32        -0.00156
       7 -> 34         0.00370
       7 -> 36        -0.00139
       7 -> 39        -0.00063
       7 -> 43         0.00054
       7 -> 45        -0.00094
       7 -> 47         0.00089
       7 -> 50         0.00041
       7 -> 54        -0.00166
       8 -> 27         0.00065
       8 -> 38         0.00020
       8 -> 46         0.00109
       3 <-  9        -0.00107
       3 <- 13         0.00071
       3 <- 18        -0.00076
       3 <- 23         0.00061
       3 <- 28        -0.00178
       3 <- 31        -0.00017
       3 <- 37        -0.00023
       3 <- 48        -0.00317
       3 <- 52         0.00026
       4 <-  9        -0.01341
       4 <- 13         0.00279
       4 <- 18         0.00022
       4 <- 23         0.00274
       4 <- 28         0.00110
       4 <- 31         0.00012
       4 <- 37         0.00036
       4 <- 44        -0.00063
       4 <- 48         0.00043
       4 <- 52         0.00014
       5 <- 27        -0.00462
       5 <- 38        -0.00278
       5 <- 46         0.00023
       6 <-  9        -0.02768
       6 <- 13        -0.00019
       6 <- 18        -0.00346

 The electronic state is 1-A1.
 Alpha  occ. eigenvalues --  -19.17710 -10.33858  -0.89457  -0.71305  -0.49199
 Alpha  occ. eigenvalues --   -0.39126  -0.30887  -0.28731
 Alpha virt. eigenvalues --   -0.16983  -0.06726   0.00004   0.04049   0.06094
 Alpha virt. eigenvalues --    0.06523   0.11828   0.13404   0.18753   0.21043
 Alpha virt. eigenvalues --    0.23958   0.30395   0.38545   0.39688   0.50659

 Mulliken charges:
               1
     1  C   -0.095002
     2  H    0.191588
     3  H    0.191588
     4  O   -0.288173
 Sum of Mulliken charges =  -0.00000

 Dipole moment (field-independent basis, Debye):
    X=             -0.0000    Y=             -0.0000    Z=             -4.1471  Tot=              4.1471
 Quadrupole moment (field-independent basis, Debye-Ang):
   XX=            -13.0205   YY=            -12.0281   ZZ=            -10.6938
   XY=              0.0000   XZ=              0.0000   YZ=              0.0000

 Normal termination of Gaussian 16 at Fri Sep 17 10:53:08 2021.
