 Gaussian 16, Revision A.03,
 Gaussian 16:  ES64L-G16RevA.03 25-Dec-2016

 --------------------------------------------------------------------
 #p B3LYP/6-311+G** #p TD=(singlets,nstates=30)IOp(6/8=3) IOp(9/40=4)
 --------------------------------------------------------------------

 ------------------------------
 Scan Step 10, Bond Length 0.55
 ------------------------------
 Symbolic Z-matrix:
 Charge =  0 Multiplicity = 1

                         Standard orientation:
 ---------------------------------------------------------------------
 Center     Atomic      Atomic             Coordinates (Angstroms)
 Number     Number       Type             X           Y           Z
 ---------------------------------------------------------------------
      1          6           0        0.000000    0.000000   -0.201081
      2          1           0        0.000000    0.937260   -0.792431
      3          1           0       -0.000000   -0.937260   -0.792431
      4          8           0        0.000000   -0.000000    0.348919
 ---------------------------------------------------------------------

 SCF Done:  E(RB3LYP) =  -110.389972605     A.U. after   10 cycles

 Excitation energies and oscillator strengths:

 Excited State   1:      Singlet-B2     4.3663 eV  283.96 nm  f=0.1514  <S**2>=0.000
       3 -> 11         0.00072
       3 -> 15         0.00130
       3 -> 19         0.00074
       3 -> 22         0.00114
       3 -> 25         0.00147
       3 -> 31        -0.00034
       3 -> 37         0.00012
       3 -> 40         0.00054
       3 -> 43         0.00025
       3 -> 54         0.00016
       4 ->  9        -0.00240
       4 -> 12         0.00164
       4 -> 13         0.00288
       4 -> 16         0.00119
       4 -> 17         0.00165
       4 -> 20         0.00204
       4 -> 21         0.00154
       4 -> 24         0.00107
       4 -> 26        -0.00070
       4 -> 30         0.00155
       4 -> 32         0.00060
       4 -> 33        -0.00084
       4 -> 38        -0.00050
       4 -> 42         0.00043
       4 -> 44        -0.00024
       4 -> 47        -0.00066
       4 -> 49        -0.00011
       4 -> 51        -0.00011
       4 -> 53        -0.00014
       5 -> 28         0.00216
       5 -> 35         0.00097
       5 -> 45         0.00065
       6 -> 11         0.00899
       6 -> 15        -0.00194
       6 -> 19         0.00211
       6 -> 22         0.00017
       6 -> 25        -0.00361
       6 -> 29        -0.00105
       6 -> 31         0.00076
       6 -> 40        -0.00014
       6 -> 43        -0.00018
       6 -> 46        -0.00021
       7 -> 11         0.00830
       7 -> 15         0.00516
       7 -> 19         0.00393
       7 -> 22         0.00074
       7 -> 25         0.00240
       7 -> 29        -0.00091
       7 -> 31         0.00105
       7 -> 37        -0.00062
       7 -> 43        -0.00032
       7 -> 46         0.00047
       7 -> 50         0.00040
       7 -> 54        -0.00016
       8 ->  9         0.70415
       8 -> 12        -0.00650
       8 -> 13         0.06497
       8 -> 16        -0.00652
       8 -> 17        -0.02407
       8 -> 20         0.00612
       8 -> 21         0.01172
       8 -> 24        -0.00062
       8 -> 26        -0.00112
       8 -> 30        -0.00355
       8 -> 32        -0.00178
       8 -> 33         0.00111
       8 -> 38        -0.00093
       8 -> 39        -0.00026
       8 -> 42         0.00073
       8 -> 44         0.00057
       8 -> 47         0.00053
       8 -> 49         0.00026
       3 <- 11         0.00037
       3 <- 15         0.00091
       3 <- 19         0.00044
       3 <- 22         0.00097
       3 <- 25         0.00113
       3 <- 31        -0.00035
       3 <- 37         0.00014
       3 <- 40         0.00052
       3 <- 43         0.00026
       3 <- 46         0.00010
       3 <- 54         0.00017
       4 <-  9        -0.00094
       4 <- 12        -0.00011
       4 <- 13         0.00235
       4 <- 16         0.00125
       4 <- 20         0.00137
       4 <- 21         0.00128
       4 <- 24         0.00060
       4 <- 26        -0.00123
       4 <- 30         0.00121
       4 <- 32         0.00032
       4 <- 33        -0.00032
       4 <- 38        -0.00033
       4 <- 39         0.00014
       4 <- 42         0.00034
       4 <- 44        -0.00021
       4 <- 47        -0.00061
       5 <- 28         0.00187
       5 <- 35         0.00080
       5 <- 45         0.00055
       6 <- 11         0.00297
       6 <- 15        -0.00245
       6 <- 19         0.00087
       6 <- 22        -0.00040
       6 <- 25        -0.00284
       6 <- 29        -0.00075
       6 <- 31         0.00069
       6 <- 40        -0.00015
       6 <- 43        -0.00015
       6 <- 46        -0.00018
       7 <- 11         0.00200
       7 <- 15         0.00261
       7 <- 19         0.00101
       7 <- 22         0.00042
       7 <- 25         0.00155
       7 <- 29        -0.00163
       7 <- 31         0.00092
       7 <- 37        -0.00038
       7 <- 43        -0.00021
       7 <- 46         0.00050
       7 <- 50         0.00050
       8 <-  9        -0.01453
       8 <- 12        -0.00774
       8 <- 13         0.02679
       8 <- 16         0.00764
       8 <- 17        -0.00077
       8 <- 20         0.00164
       8 <- 21         0.00638
       8 <- 24         0.00262
       8 <- 26        -0.00095
       8 <- 30        -0.00244
       8 <- 32        -0.00186
       8 <- 33         0.00050
       8 <- 38        -0.00092
       8 <- 39        -0.00030
       8 <- 42         0.00069
       8 <- 44         0.00026
       8 <- 47         0.00047
       8 <- 49         0.00016
 This state for optimization and/or second-order correction.
 Total Energy, E(TD-HF/TD-DFT) =  -110.229513509
 Copying the excited state density for this state as the 1-particle RhoCI density.

 Excited State   2:      Singlet-A2     4.7599 eV  260.47 nm  f=0.0000  <S**2>=0.000
       3 -> 28        -0.00205
       3 -> 35        -0.00102
       3 -> 45        -0.00029
       4 -> 10        -0.00077
       4 -> 14        -0.00090
       4 -> 18        -0.00195
       4 -> 23        -0.00047
       4 -> 27        -0.00185
       4 -> 34         0.00027
       4 -> 36        -0.00097
       4 -> 48        -0.00015
       4 -> 52        -0.00020
       5 -> 11         0.00017
       5 -> 15        -0.00021
       5 -> 19         0.00030
       5 -> 22        -0.00064
       5 -> 25         0.00023
       5 -> 29         0.00037
       5 -> 37        -0.00032
       5 -> 40        -0.00015
       5 -> 43        -0.00035
       5 -> 46        -0.00025
       5 -> 50         0.00016
       6 -> 28         0.00320
       6 -> 35        -0.00081
       6 -> 45        -0.00020
       7 -> 28         0.00132
       7 -> 35        -0.00013
       7 -> 45        -0.00022
       8 -> 10         0.70672
       8 -> 14        -0.00044
       8 -> 18         0.02445
       8 -> 23        -0.00355
       8 -> 27        -0.00022
       8 -> 34         0.00355
       8 -> 36        -0.00132
       8 -> 41         0.00069
       8 -> 48         0.00015
       8 -> 52         0.00025
       3 <- 28        -0.00172
       3 <- 35        -0.00088
       3 <- 45        -0.00028
       4 <- 10        -0.00022
       4 <- 14         0.00019
       4 <- 18        -0.00079
       4 <- 23        -0.00012
       4 <- 27        -0.00051
       4 <- 34         0.00061
       4 <- 36        -0.00060
       5 <- 11         0.00041
       5 <- 15        -0.00043
       5 <- 19         0.00094
       5 <- 22        -0.00076
       5 <- 25         0.00059
       5 <- 29         0.00115
       5 <- 31         0.00010
       5 <- 37        -0.00054
       5 <- 40        -0.00011
       5 <- 43        -0.00039
       5 <- 46        -0.00028
       5 <- 54        -0.00017
       6 <- 28         0.00316
       6 <- 35        -0.00095
       6 <- 45        -0.00020
       7 <- 28         0.00130
       7 <- 35        -0.00025
       7 <- 45        -0.00026
       8 <- 10         0.00296
       8 <- 14         0.00146
       8 <- 18        -0.00765
       8 <- 23        -0.00011
       8 <- 27        -0.00092
       8 <- 34         0.00336
       8 <- 36        -0.00108
       8 <- 41         0.00039
       8 <- 52         0.00011

 Excited State   3:      Singlet-B2     5.4959 eV  225.59 nm  f=0.0393  <S**2>=0.000
       3 -> 11        -0.00028
       3 -> 15         0.00039
       3 -> 19        -0.00054
       3 -> 22         0.00021
       3 -> 31         0.00013
       3 -> 37        -0.00015
       3 -> 40        -0.00025
       3 -> 43        -0.00017
       3 -> 54        -0.00019
       4 ->  9         0.00070
       4 -> 13         0.00080
       4 -> 16         0.00153
       4 -> 17        -0.00079
       4 -> 20        -0.00055
       4 -> 21         0.00084
       4 -> 24         0.00089
       4 -> 30        -0.00197
       4 -> 32        -0.00012
       4 -> 38         0.00048
       4 -> 39        -0.00086
       4 -> 42        -0.00030
       4 -> 47         0.00036
       5 -> 28        -0.00099
       5 -> 35        -0.00107
       5 -> 45        -0.00056
       6 -> 11         0.00095
       6 -> 15        -0.00428
       6 -> 19         0.00198
       6 -> 22         0.00032
       6 -> 25        -0.00175
       6 -> 29        -0.00236
       6 -> 31        -0.00058
       6 -> 37        -0.00040
       6 -> 40         0.00037
       6 -> 43        -0.00028
       6 -> 46         0.00015
       6 -> 50         0.00017
       6 -> 54        -0.00013
       7 -> 11        -0.00099
       7 -> 15        -0.00351
       7 -> 19        -0.00128
       7 -> 22        -0.00035
       7 -> 25        -0.00266
       7 -> 29        -0.00085
       7 -> 31        -0.00041
       7 -> 37         0.00057
       7 -> 40        -0.00019
       7 -> 43         0.00011
       7 -> 46        -0.00059
       7 -> 50        -0.00027
       7 -> 54         0.00020
       8 ->  9         0.00328
       8 -> 12         0.70533
       8 -> 13         0.04331
       8 -> 16         0.02345
       8 -> 17         0.00127
       8 -> 20         0.01558
       8 -> 21         0.00524
       8 -> 24        -0.00104
       8 -> 26         0.00203
       8 -> 30        -0.00325
       8 -> 32         0.00037
       8 -> 33        -0.00034
       8 -> 38        -0.00089
       8 -> 39         0.00126
       8 -> 42         0.00096
       8 -> 44        -0.00018
       8 -> 47        -0.00017
       8 -> 51        -0.00012
       8 -> 53        -0.00011
       3 <- 11        -0.00011
       3 <- 15         0.00028
       3 <- 19        -0.00020
       3 <- 25         0.00015
       3 <- 31         0.00016
       3 <- 37        -0.00018
       3 <- 40        -0.00021
       3 <- 43        -0.00017
       3 <- 54        -0.00023
       4 <-  9        -0.00094
       4 <- 12        -0.00021
       4 <- 13         0.00090
       4 <- 16         0.00065
       4 <- 17         0.00041
       4 <- 20        -0.00034
       4 <- 21         0.00059
       4 <- 24         0.00092
       4 <- 26         0.00021
       4 <- 30        -0.00137
       4 <- 32        -0.00037
       4 <- 33        -0.00037
       4 <- 38         0.00031
       4 <- 39        -0.00061
       4 <- 42        -0.00033
       4 <- 44         0.00011
       4 <- 47         0.00033
       5 <- 28        -0.00064
       5 <- 35        -0.00094
       5 <- 45        -0.00051
       6 <- 11         0.00089
       6 <- 15        -0.00089
       6 <- 19        -0.00010
       6 <- 22         0.00053
       6 <- 25        -0.00162
       6 <- 29        -0.00179
       6 <- 31        -0.00074
       6 <- 37        -0.00042
       6 <- 40         0.00028
       6 <- 43        -0.00023
       6 <- 46         0.00012
       6 <- 50         0.00011
       6 <- 54        -0.00012
       7 <- 11         0.00035
       7 <- 15        -0.00122
       7 <- 19        -0.00052
       7 <- 22        -0.00029
       7 <- 25        -0.00162
       7 <- 29        -0.00011
       7 <- 31        -0.00028
       7 <- 37         0.00025
       7 <- 40        -0.00012
       7 <- 46        -0.00051
       7 <- 50        -0.00034
       7 <- 54         0.00012
       8 <-  9        -0.00709
       8 <- 12         0.00060
       8 <- 13         0.01292
       8 <- 16         0.00464
       8 <- 17        -0.00214
       8 <- 20        -0.00328
       8 <- 21         0.00315
       8 <- 24         0.00051
       8 <- 30        -0.00252
       8 <- 32         0.00029
       8 <- 33        -0.00043
       8 <- 38        -0.00075
       8 <- 39         0.00120
       8 <- 42         0.00083
       8 <- 44        -0.00012
       8 <- 47        -0.00015

 Excited State   4:      Singlet-A1     5.7663 eV  215.01 nm  f=0.0000  <S**2>=0.000
       3 ->  9         0.00179
       3 -> 12        -0.00022
       3 -> 16        -0.00128
       3 -> 17        -0.00189
       3 -> 21         0.00108
       3 -> 24        -0.00133
       3 -> 26        -0.00037
       3 -> 30         0.00067
       3 -> 33         0.00107
       3 -> 38         0.00061
       3 -> 39         0.00033
       3 -> 44        -0.00021
       3 -> 51        -0.00010
       3 -> 53         0.00017
       4 -> 11        -0.00522
       4 -> 15        -0.00448
       4 -> 19        -0.00480
       4 -> 22        -0.00278
       4 -> 25        -0.00315
       4 -> 29        -0.00108
       4 -> 37        -0.00079
       4 -> 40         0.00013
       4 -> 43         0.00015
       4 -> 46        -0.00013
       5 -> 10        -0.00192
       5 -> 14        -0.00383
       5 -> 18         0.00010
       5 -> 23         0.00382
       5 -> 34        -0.00060
       5 -> 36        -0.00054
       6 ->  9        -0.00979
       6 -> 12        -0.00883
       6 -> 13         0.00288
       6 -> 16         0.00746
       6 -> 17         0.00400
       6 -> 20        -0.00389
       6 -> 21        -0.00327
       6 -> 24         0.00467
       6 -> 26        -0.00256
       6 -> 30         0.00039
       6 -> 32        -0.00358
       6 -> 33         0.00123
       6 -> 38        -0.00197
       6 -> 39         0.00109
       6 -> 42         0.00039
       6 -> 44        -0.00099
       6 -> 47         0.00023
       6 -> 49         0.00039
       6 -> 51         0.00017
       7 ->  9         0.01379
       7 -> 12        -0.01131
       7 -> 13        -0.00245
       7 -> 16         0.00527
       7 -> 17        -0.01126
       7 -> 20        -0.00269
       7 -> 21        -0.00240
       7 -> 24        -0.00102
       7 -> 26        -0.00403
       7 -> 30        -0.00112
       7 -> 33         0.00114
       7 -> 38        -0.00094
       7 -> 39         0.00015
       7 -> 42         0.00012
       7 -> 53        -0.00015
       8 -> 11         0.70422
       8 -> 15         0.05746
       8 -> 19        -0.02454
       8 -> 22        -0.00163
       8 -> 25         0.01086
       8 -> 29        -0.00197
       8 -> 31         0.00233
       8 -> 37        -0.00370
       8 -> 40         0.00108
       8 -> 43         0.00187
       8 -> 46        -0.00122
       8 -> 50         0.00024
       3 <-  9         0.00116
       3 <- 16        -0.00088
       3 <- 17        -0.00123
       3 <- 21         0.00082
       3 <- 24        -0.00099
       3 <- 26        -0.00030
       3 <- 30         0.00055
       3 <- 33         0.00083
       3 <- 38         0.00050
       3 <- 39         0.00028
       3 <- 44        -0.00018
       3 <- 53         0.00015
       4 <- 11        -0.00245
       4 <- 15        -0.00199
       4 <- 19        -0.00295
       4 <- 22        -0.00194
       4 <- 25        -0.00188
       4 <- 29        -0.00079
       4 <- 37        -0.00066
       4 <- 40         0.00013
       4 <- 43         0.00015
       5 <- 10        -0.00121
       5 <- 14        -0.00248
       5 <- 23         0.00281
       5 <- 34        -0.00051
       5 <- 36        -0.00047
       6 <-  9        -0.00803
       6 <- 12        -0.00435
       6 <- 13         0.00266
       6 <- 16         0.00530
       6 <- 17         0.00193
       6 <- 20        -0.00186
       6 <- 21        -0.00319
       6 <- 24         0.00322
       6 <- 26        -0.00185
       6 <- 32        -0.00267
       6 <- 33         0.00100
       6 <- 38        -0.00180
       6 <- 39         0.00074
       6 <- 42         0.00035
       6 <- 44        -0.00093
       6 <- 47         0.00016
       6 <- 49         0.00034
       6 <- 51         0.00016
       7 <-  9         0.00254
       7 <- 12        -0.00428
       7 <- 13        -0.00022
       7 <- 16         0.00336
       7 <- 17        -0.00535
       7 <- 20        -0.00103
       7 <- 21        -0.00180
       7 <- 24        -0.00053
       7 <- 26        -0.00279
       7 <- 30        -0.00089
       7 <- 33         0.00086
       7 <- 38        -0.00079
       7 <- 53        -0.00013
       8 <- 11        -0.01593
       8 <- 15         0.00487
       8 <- 19        -0.01735
       8 <- 22        -0.00471
       8 <- 25         0.00627
       8 <- 29        -0.00169
       8 <- 31         0.00213
       8 <- 37        -0.00302
       8 <- 40         0.00065
       8 <- 43         0.00154
       8 <- 46        -0.00111
       8 <- 50         0.00025

 Excited State   5:      Singlet-A2     8.5515 eV  144.99 nm  f=0.0000  <S**2>=0.000
       3 -> 28         0.00168
       3 -> 35         0.00084
       3 -> 45         0.00018
       4 -> 10        -0.00108
       4 -> 14        -0.00364
       4 -> 18         0.00151
       4 -> 23         0.00231
       4 -> 27         0.00010
       4 -> 34         0.00023
       4 -> 36         0.00124
       4 -> 41        -0.00034
       5 -> 19        -0.00036
       5 -> 22         0.00068
       5 -> 25        -0.00057
       5 -> 29        -0.00018
       5 -> 37         0.00025
       5 -> 40         0.00013
       5 -> 43         0.00036
       5 -> 46         0.00021
       6 -> 28        -0.00187
       6 -> 35         0.00056
       7 -> 28        -0.00104
       7 -> 45         0.00014
       8 -> 10         0.00266
       8 -> 14         0.70372
       8 -> 18        -0.06741
       8 -> 23        -0.01488
       8 -> 27        -0.00092
       8 -> 34        -0.00209
       8 -> 36         0.00215
       8 -> 41        -0.00028
       8 -> 52        -0.00021
       3 <- 28         0.00122
       3 <- 35         0.00065
       3 <- 45         0.00019
       4 <- 10         0.00024
       4 <- 14        -0.00015
       4 <- 18         0.00057
       4 <- 23         0.00018
       4 <- 27         0.00028
       4 <- 34        -0.00038
       4 <- 36         0.00049
       5 <- 11         0.00044
       5 <- 19         0.00010
       5 <- 22         0.00069
       5 <- 25        -0.00086
       5 <- 31        -0.00029
       5 <- 37         0.00053
       5 <- 43         0.00036
       6 <- 28        -0.00187
       6 <- 35         0.00055
       6 <- 45         0.00013
       7 <- 28        -0.00067
       7 <- 35        -0.00017
       8 <- 10         0.00205
       8 <- 14         0.00103
       8 <- 18         0.00422
       8 <- 23         0.00083
       8 <- 27         0.00021
       8 <- 34        -0.00231
       8 <- 36         0.00088
       8 <- 41        -0.00022

 Excited State   6:      Singlet-B2     8.7439 eV  141.80 nm  f=0.1555  <S**2>=0.000
       3 -> 11         0.00079
       3 -> 15        -0.00151
       3 -> 19         0.00169
       3 -> 22        -0.00121
       3 -> 25        -0.00052
       3 -> 29         0.00109
       3 -> 31         0.00071
       3 -> 40        -0.00071
       3 -> 43        -0.00031
       4 ->  9         0.00201
       4 -> 12        -0.00213
       4 -> 13        -0.00520
       4 -> 16        -0.00048
       4 -> 17        -0.00090
       4 -> 20        -0.00407
       4 -> 21        -0.00507
       4 -> 24        -0.00084
       4 -> 26         0.00045
       4 -> 30        -0.00276
       4 -> 32         0.00021

 The electronic state is 1-A1.
 Alpha  occ. eigenvalues --  -19.37892 -10.58669  -1.20650  -0.96274  -0.93859
 Alpha  occ. eigenvalues --   -0.57277  -0.48634  -0.19448
 Alpha virt. eigenvalues --   -0.00185   0.02299   0.04432   0.04688   0.13961
 Alpha virt. eigenvalues --    0.16641   0.17086   0.18323   0.21424   0.22232
 Alpha virt. eigenvalues --    0.29212   0.36723   0.50512   0.57226   0.63062

 Mulliken charges:
               1
     1  C    0.141936
     2  H   -0.140054
     3  H   -0.140054
     4  O    0.138173
 Sum of Mulliken charges =   0.00000

 Dipole moment (field-independent basis, Debye):
    X=              0.0000    Y=              0.0000    Z=              1.7551  Tot=              1.7551
 Quadrupole moment (field-independent basis, Debye-Ang):
   XX=             -9.9524   YY=            -14.4915   ZZ=            -13.7763
   XY=             -0.0000   XZ=             -0.0000   YZ=              0.0000

 Normal termination of Gaussian 16 at Fri Sep 17 10:52:18 2021.
