 Gaussian 16, Revision C.01,
 Gaussian 16:  ES64L-G16RevC.01  3-Jul-2019

 ----------------------------------------
 #P wB97XD/6-311+G* NoSymm #P Field=Y-194
 ----------------------------------------

 -------
 TitleMe
 -------
 Symbolic Z-matrix:
 Charge =  1 Multiplicity = 1

                          Input orientation:
 ---------------------------------------------------------------------
 Center     Atomic      Atomic             Coordinates (Angstroms)
 Number     Number       Type             X           Y           Z
 ---------------------------------------------------------------------
      1          6           0        0.029500    1.339700    0.068200
      2          6           0        1.434800    1.286700    0.006400
      3          6           0        2.111800    0.051100   -0.005400
      4          6           0        1.445100   -1.137200    0.031200
      5          6           0       -0.687900    0.168200    0.110000
      6          1           0       -0.471300    2.298400    0.078100
      7          1           0        2.027300    2.196500   -0.032200
      8          1           0        1.989700   -2.076400    0.023200
      9          1           0       -1.771600    0.180400    0.158200
     10          7           0        3.586400    0.051000   -0.067500
     11          8           0        4.147100   -1.059700   -0.088100
     12          8           0        4.145000    1.163900   -0.090100
     13          6           0       -0.023600   -1.145800    0.083500
     14          1           0       -0.436700   -1.872500    0.788900
     15         35           0       -0.535900   -1.869700   -1.740800
 ---------------------------------------------------------------------

 SCF Done:  E(RwB97XD) =  -3010.55215184     A.U. after   21 cycles

 Alpha  occ. eigenvalues -- -483.34414 -62.89472 -56.69117 -56.68612 -56.68609
 Alpha  occ. eigenvalues --  -19.46605 -19.46159 -14.85791 -10.60923 -10.58188
 Alpha  occ. eigenvalues --  -10.58108 -10.57251 -10.56728 -10.52066  -9.05301
 Alpha  occ. eigenvalues --   -6.87846  -6.86180  -6.86170  -2.97782  -2.97335
 Alpha  occ. eigenvalues --   -2.97327  -2.95993  -2.95992  -1.50104  -1.33071
 Alpha  occ. eigenvalues --   -1.23626  -1.15576  -1.11987  -1.06781  -1.01481
 Alpha  occ. eigenvalues --   -0.96343  -0.91514  -0.85788  -0.81426  -0.81073
 Alpha  occ. eigenvalues --   -0.80522  -0.79454  -0.76500  -0.76060  -0.73703
 Alpha  occ. eigenvalues --   -0.69477  -0.67365  -0.64387  -0.62101  -0.60186
 Alpha  occ. eigenvalues --   -0.57670  -0.57196  -0.56552  -0.55890
 Alpha virt. eigenvalues --   -0.30722  -0.21861  -0.18135  -0.17193  -0.13869
 Alpha virt. eigenvalues --   -0.12513  -0.12218  -0.08667  -0.07393  -0.07125
 Alpha virt. eigenvalues --   -0.05779  -0.04877  -0.03440  -0.02950  -0.01654

 Mulliken charges:
               1
     1  C   -0.532711
     2  C    0.433991
     3  C   -0.629148
     4  C    0.269680
     5  C    0.051329
     6  H    0.409369
     7  H    0.432637
     8  H    0.305560
     9  H    0.357008
    10  N   -0.109745
    11  O   -0.065338
    12  O    0.140822
    13  C   -0.464811
    14  H    0.353750
    15  Br   0.047606
 Sum of Mulliken charges =   1.00000

 Dipole moment (field-independent basis, Debye):
    X=             -0.1254    Y=              5.0003    Z=              0.6893  Tot=              5.0492
 Quadrupole moment (field-independent basis, Debye-Ang):
   XX=            -70.0845   YY=            -55.0343   ZZ=            -64.3217
   XY=              7.5417   XZ=              0.4926   YZ=             -0.9064

 Normal termination of Gaussian 16 at Wed May  1 15:06:52 2024.
