 Gaussian 16, Revision A.03,
 Gaussian 16:  ES64L-G16RevA.03 25-Dec-2016

 --------------------------------------------------------------------
 #p B3LYP/6-311+G** #p TD=(singlets,nstates=30)IOp(6/8=3) IOp(9/40=4)
 --------------------------------------------------------------------

 --------------------------------------------
 Scan Step 66, Bond Length 0.8300000000000001
 --------------------------------------------
 Symbolic Z-matrix:
 Charge =  0 Multiplicity = 1

                         Standard orientation:
 ---------------------------------------------------------------------
 Center     Atomic      Atomic             Coordinates (Angstroms)
 Number     Number       Type             X           Y           Z
 ---------------------------------------------------------------------
      1          6           0        0.000000    0.000000   -0.341081
      2          1           0        0.000000    0.937260   -0.932431
      3          1           0       -0.000000   -0.937260   -0.932431
      4          8           0        0.000000   -0.000000    0.488919
 ---------------------------------------------------------------------

 SCF Done:  E(RB3LYP) =  -113.990352736     A.U. after    9 cycles

 Excitation energies and oscillator strengths:

 Excited State   1:      Singlet-A2     5.5691 eV  222.63 nm  f=0.0000  <S**2>=0.000
       3 -> 27         0.00254
       3 -> 35         0.00189
       3 -> 46         0.00091
       4 -> 10         0.00429
       4 -> 13         0.00679
       4 -> 17         0.00564
       4 -> 22        -0.00330
       4 -> 28         0.00276
       4 -> 32         0.00116
       4 -> 37         0.00290
       4 -> 43         0.00040
       4 -> 52         0.00057
       5 -> 11        -0.00049
       5 -> 16        -0.00049
       5 -> 18        -0.00040
       5 -> 23         0.00155
       5 -> 24         0.00017
       5 -> 29        -0.00019
       5 -> 33         0.00021
       5 -> 36         0.00048
       5 -> 42         0.00048
       5 -> 47         0.00058
       5 -> 50        -0.00019
       5 -> 53         0.00021
       6 -> 27         0.00363
       6 -> 35        -0.00064
       6 -> 46        -0.00050
       7 -> 27         0.00092
       7 -> 35        -0.00012
       7 -> 46         0.00090
       8 -> 10         0.69920
       8 -> 13         0.10077
       8 -> 17         0.03079
       8 -> 22        -0.00370
       8 -> 28         0.00415
       8 -> 32         0.00330
       8 -> 37        -0.00240
       8 -> 43        -0.00010
       8 -> 52         0.00072
       3 <- 27         0.00194
       3 <- 35         0.00163
       3 <- 46         0.00093
       4 <- 10         0.00022
       4 <- 13         0.00112
       4 <- 17         0.00034
       4 <- 32        -0.00100
       4 <- 37         0.00137
       4 <- 43         0.00040
       4 <- 52         0.00014
       5 <- 11        -0.00086
       5 <- 16         0.00114
       5 <- 18        -0.00272
       5 <- 23         0.00343
       5 <- 24        -0.00171
       5 <- 29         0.00154
       5 <- 33        -0.00065
       5 <- 36         0.00153
       5 <- 42         0.00072
       5 <- 47         0.00047
       5 <- 53         0.00056
       6 <- 27         0.00391
       6 <- 35        -0.00056
       6 <- 46        -0.00051
       7 <- 27         0.00091
       7 <- 35        -0.00019
       7 <- 46         0.00075
       8 <- 10        -0.00476
       8 <- 13        -0.00844
       8 <- 17        -0.00458
       8 <- 22         0.00035
       8 <- 28        -0.00038
       8 <- 32         0.00297
       8 <- 37        -0.00212
       8 <- 52         0.00023
 This state for optimization and/or second-order correction.
 Total Energy, E(TD-HF/TD-DFT) =  -113.785692149
 Copying the excited state density for this state as the 1-particle RhoCI density.

 Excited State   2:      Singlet-B2     5.6129 eV  220.89 nm  f=0.0965  <S**2>=0.000
       3 -> 11         0.00083
       3 -> 16         0.00036
       3 -> 18         0.00092
       3 -> 24         0.00108
       3 -> 29        -0.00021
       3 -> 42         0.00016
       3 -> 50        -0.00015
       3 -> 53         0.00010
       4 ->  9         0.00231
       4 -> 12         0.00563
       4 -> 14         0.00478
       4 -> 15         0.00163
       4 -> 19         0.00365
       4 -> 20         0.00149
       4 -> 21         0.00245
       4 -> 25         0.00139
       4 -> 26        -0.00098
       4 -> 30        -0.00186
       4 -> 31         0.00066
       4 -> 34         0.00045
       4 -> 38        -0.00081
       4 -> 39         0.00010
       4 -> 41         0.00050
       4 -> 44         0.00041
       4 -> 45        -0.00061
       4 -> 48         0.00037
       5 -> 27         0.00123
       5 -> 35         0.00040
       5 -> 46         0.00087
       6 -> 11        -0.00683
       6 -> 16         0.00143
       6 -> 18         0.00081
       6 -> 23        -0.00211
       6 -> 24         0.00414
       6 -> 29        -0.00075
       6 -> 33        -0.00105
       6 -> 36         0.00084
       6 -> 40        -0.00012
       6 -> 42         0.00042
       7 -> 11         0.00296
       7 -> 16         0.00376
       7 -> 18         0.00328
       7 -> 23        -0.00176
       7 -> 24         0.00252
       7 -> 29         0.00022
       7 -> 36        -0.00030
       7 -> 42        -0.00037
       7 -> 47         0.00043
       7 -> 50         0.00047
       7 -> 53        -0.00010
       8 ->  9         0.70617
       8 -> 12         0.00656
       8 -> 14        -0.02708
       8 -> 15         0.01093
       8 -> 19         0.02083
       8 -> 20        -0.00712
       8 -> 21        -0.00857
       8 -> 25         0.00056
       8 -> 26        -0.00035
       8 -> 30         0.00024
       8 -> 31         0.00311
       8 -> 34         0.00140
       8 -> 38         0.00097
       8 -> 39        -0.00047
       8 -> 41        -0.00053
       8 -> 45        -0.00104
       8 -> 48         0.00036
       8 -> 54        -0.00013
       3 <- 11         0.00029
       3 <- 18         0.00058
       3 <- 24         0.00080
       3 <- 29        -0.00019
       3 <- 42         0.00014
       3 <- 53         0.00012
       4 <-  9         0.00188
       4 <- 12        -0.00017
       4 <- 14         0.00383
       4 <- 15         0.00183
       4 <- 19         0.00091
       4 <- 20         0.00062
       4 <- 21         0.00161
       4 <- 25         0.00160
       4 <- 26        -0.00125
       4 <- 30        -0.00068
       4 <- 34         0.00023
       4 <- 38        -0.00052
       4 <- 39         0.00016
       4 <- 41         0.00046
       4 <- 44         0.00029
       4 <- 45        -0.00055
       4 <- 48         0.00031
       5 <- 27         0.00097
       5 <- 35         0.00032
       5 <- 46         0.00074
       6 <- 11        -0.00037
       6 <- 16         0.00149
       6 <- 18         0.00201
       6 <- 23        -0.00118
       6 <- 24         0.00322
       6 <- 29        -0.00061
       6 <- 33        -0.00081
       6 <- 36         0.00065
       6 <- 40        -0.00016
       6 <- 42         0.00021
       7 <- 11         0.00075
       7 <- 16         0.00228
       7 <- 18         0.00099
       7 <- 23        -0.00071
       7 <- 24         0.00120
       7 <- 29         0.00084
       7 <- 42        -0.00031
       7 <- 47         0.00041
       7 <- 50         0.00054
       8 <-  9        -0.00517
       8 <- 12         0.00280
       8 <- 14        -0.01464
       8 <- 15        -0.00304
       8 <- 19        -0.00126
       8 <- 20         0.00016
       8 <- 21        -0.00447
       8 <- 25        -0.00315
       8 <- 26        -0.00063
       8 <- 30         0.00049
       8 <- 31         0.00175
       8 <- 34         0.00152
       8 <- 38         0.00094
       8 <- 39        -0.00039
       8 <- 41        -0.00038
       8 <- 44        -0.00016
       8 <- 45        -0.00079
       8 <- 48         0.00032

 Excited State   3:      Singlet-B2     6.4212 eV  193.09 nm  f=0.0247  <S**2>=0.000
       3 -> 11         0.00011
       3 -> 16        -0.00060
       3 -> 18         0.00014
       3 -> 23        -0.00021
       3 -> 24        -0.00044
       3 -> 29        -0.00080
       3 -> 33        -0.00014
       3 -> 36         0.00027
       3 -> 42         0.00029
       3 -> 47        -0.00019
       3 -> 50        -0.00019
       3 -> 53         0.00012
       4 ->  9         0.00409
       4 -> 12        -0.00018
       4 -> 14        -0.00236
       4 -> 15        -0.00401
       4 -> 19         0.00277
       4 -> 20        -0.00024
       4 -> 21        -0.00143
       4 -> 25        -0.00086
       4 -> 26        -0.00111
       4 -> 30         0.00081
       4 -> 31         0.00219
       4 -> 34         0.00031
       4 -> 39         0.00086
       4 -> 41         0.00056
       4 -> 45        -0.00062
       4 -> 48         0.00036
       4 -> 51         0.00018
       5 -> 27         0.00092
       5 -> 35         0.00134
       5 -> 46         0.00096
       6 -> 11        -0.00225
       6 -> 16        -0.00486
       6 -> 18        -0.00080
       6 -> 23         0.00117
       6 -> 24        -0.00376
       6 -> 29         0.00137
       6 -> 33        -0.00055
       6 -> 40         0.00028
       6 -> 47        -0.00010
       7 -> 11         0.00285
       7 -> 16         0.00063
       7 -> 18         0.00234
       7 -> 23        -0.00122
       7 -> 24         0.00072
       7 -> 29         0.00014
       7 -> 33         0.00022
       7 -> 36        -0.00110
       7 -> 40         0.00029
       7 -> 42        -0.00057
       7 -> 47         0.00066
       7 -> 50         0.00053
       7 -> 53        -0.00017
       8 ->  9        -0.00665
       8 -> 12         0.70600
       8 -> 14         0.02024
       8 -> 15         0.02491
       8 -> 19         0.01499
       8 -> 20         0.01549
       8 -> 21         0.00365
       8 -> 25        -0.00048
       8 -> 26         0.00081
       8 -> 30        -0.00184
       8 -> 31        -0.00068
       8 -> 34        -0.00035
       8 -> 38         0.00011
       8 -> 39         0.00099
       8 -> 41         0.00111
       8 -> 45        -0.00068
       8 -> 48         0.00048
       8 -> 54        -0.00016
       3 <- 11        -0.00019
       3 <- 16        -0.00059
       3 <- 18        -0.00012
       3 <- 24        -0.00049
       3 <- 29        -0.00054
       3 <- 33        -0.00016
       3 <- 36         0.00029
       3 <- 42         0.00025
       3 <- 47        -0.00014
       3 <- 53         0.00021
       4 <-  9        -0.00135
       4 <- 12        -0.00012
       4 <- 14        -0.00170
       4 <- 15        -0.00063
       4 <- 19        -0.00064
       4 <- 20         0.00036
       4 <- 21        -0.00101
       4 <- 25        -0.00093
       4 <- 26        -0.00093
       4 <- 30         0.00092
       4 <- 31         0.00094
       4 <- 34         0.00085
       4 <- 39         0.00065
       4 <- 41         0.00056
       4 <- 45        -0.00063
       4 <- 48         0.00024
       4 <- 51         0.00017
       5 <- 27         0.00047
       5 <- 35         0.00112
       5 <- 46         0.00083
       6 <- 11        -0.00015
       6 <- 16        -0.00104
       6 <- 18        -0.00101
       6 <- 23         0.00120
       6 <- 24        -0.00200
       6 <- 29         0.00066
       6 <- 33        -0.00059
       6 <- 36        -0.00027
       6 <- 40         0.00028
       6 <- 50        -0.00016
       7 <- 11         0.00038
       7 <- 16         0.00050
       7 <- 18         0.00020
       7 <- 23        -0.00025
       7 <- 24         0.00015
       7 <- 29         0.00046
       7 <- 36        -0.00074
       7 <- 40         0.00023
       7 <- 42        -0.00040
       7 <- 47         0.00058
       7 <- 50         0.00052
       8 <-  9         0.00260
       8 <- 12         0.00140
       8 <- 14         0.00771
       8 <- 15         0.00213
       8 <- 19        -0.00168
       8 <- 20        -0.00227
       8 <- 21         0.00293
       8 <- 25         0.00053
       8 <- 26        -0.00060
       8 <- 30        -0.00138
       8 <- 31        -0.00112
       8 <- 38         0.00027
       8 <- 39         0.00075
       8 <- 41         0.00094
       8 <- 45        -0.00057
       8 <- 48         0.00029

 Excited State   4:      Singlet-A1     6.5610 eV  188.97 nm  f=0.0337  <S**2>=0.000
       3 ->  9         0.00126
       3 -> 12         0.00072
       3 -> 15         0.00061
       3 -> 19         0.00135
       3 -> 20        -0.00019
       3 -> 21        -0.00043
       3 -> 25         0.00033
       3 -> 30        -0.00101
       3 -> 31        -0.00016
       3 -> 34        -0.00024
       3 -> 38        -0.00032
       3 -> 39        -0.00028
       3 -> 48        -0.00012
       3 -> 51        -0.00026
       3 -> 54         0.00019
       4 -> 11         0.00719
       4 -> 16         0.00815
       4 -> 18         0.00569
       4 -> 23         0.00128
       4 -> 24         0.00382
       4 -> 29         0.00071
       4 -> 33        -0.00015
       4 -> 36         0.00099
       4 -> 42        -0.00026
       4 -> 50        -0.00034
       4 -> 53        -0.00011
       5 -> 10         0.00632
       5 -> 13        -0.00274
       5 -> 17         0.00493
       5 -> 22         0.00375
       5 -> 28         0.00088
       5 -> 32         0.00092
       5 -> 37         0.00054
       5 -> 43         0.00040
       5 -> 49        -0.00035
       6 ->  9         0.00598
       6 -> 12        -0.01094
       6 -> 14         0.00613
       6 -> 15         0.00292
       6 -> 19         0.00164
       6 -> 20        -0.00686
       6 -> 21         0.00147
       6 -> 25         0.00674
       6 -> 26        -0.00104
       6 -> 30         0.00092
       6 -> 31        -0.00093
       6 -> 34        -0.00118
       6 -> 38        -0.00048
       6 -> 39         0.00105
       6 -> 44         0.00027
       6 -> 45        -0.00027
       6 -> 48        -0.00033
       7 ->  9         0.01268
       7 -> 12         0.00585
       7 -> 14         0.00204
       7 -> 15        -0.00107
       7 -> 19         0.00851
       7 -> 20        -0.00188
       7 -> 21         0.00044
       7 -> 25         0.00165
       7 -> 26         0.00045
       7 -> 30        -0.00038
       7 -> 31         0.00077
       7 -> 34        -0.00097
       7 -> 38        -0.00013
       7 -> 39         0.00022
       7 -> 48        -0.00022
       7 -> 51         0.00037
       8 -> 11         0.70533
       8 -> 16         0.04442
       8 -> 18        -0.00865
       8 -> 23         0.00236
       8 -> 24         0.00212
       8 -> 29         0.00379
       8 -> 33         0.00161
       8 -> 36        -0.00271
       8 -> 40         0.00018
       8 -> 42         0.00155
       8 -> 47        -0.00054
       3 <-  9         0.00057
       3 <- 12         0.00030
       3 <- 15         0.00033
       3 <- 19         0.00078
       3 <- 21        -0.00020
       3 <- 25         0.00033
       3 <- 26         0.00010
       3 <- 30        -0.00061
       3 <- 31        -0.00015
       3 <- 34        -0.00021
       3 <- 38        -0.00024
       3 <- 39        -0.00024
       3 <- 41        -0.00011
       3 <- 45         0.00011
       3 <- 48        -0.00014
       3 <- 51        -0.00022
       3 <- 54         0.00017
       4 <- 11         0.00258
       4 <- 16         0.00275
       4 <- 18         0.00297
       4 <- 23         0.00109
       4 <- 24         0.00204
       4 <- 29         0.00029
       4 <- 33        -0.00026
       4 <- 36         0.00084
       4 <- 42        -0.00023
       4 <- 50        -0.00028
       4 <- 53        -0.00010
       5 <- 10         0.00261
       5 <- 13        -0.00122
       5 <- 17         0.00246
       5 <- 22         0.00233
       5 <- 28         0.00058
       5 <- 32         0.00071
       5 <- 37         0.00045
       5 <- 43         0.00034
       5 <- 49        -0.00031
       6 <-  9         0.00619
       6 <- 12        -0.00425
       6 <- 14         0.00466
       6 <- 15         0.00260
       6 <- 19         0.00112
       6 <- 20        -0.00386
       6 <- 21         0.00019
       6 <- 25         0.00422
       6 <- 26        -0.00050
       6 <- 30         0.00026
       6 <- 31        -0.00108
       6 <- 34        -0.00092
       6 <- 38        -0.00057
       6 <- 39         0.00084
       6 <- 44         0.00032
       6 <- 45        -0.00023
       6 <- 48        -0.00026
       7 <-  9         0.00448
       7 <- 12         0.00164
       7 <- 14         0.00095
       7 <- 15        -0.00045
       7 <- 19         0.00384
       7 <- 20        -0.00121
       7 <- 25         0.00102
       7 <- 26         0.00018
       7 <- 30        -0.00038
       7 <- 31         0.00051
       7 <- 34        -0.00066
       7 <- 38        -0.00017
       7 <- 39         0.00028
       7 <- 45        -0.00013
       7 <- 48        -0.00012
       7 <- 51         0.00034
       8 <- 11        -0.00473
       8 <- 16         0.00486
       8 <- 18        -0.01224
       8 <- 23        -0.00171
       8 <- 24        -0.00139
       8 <- 29         0.00215
       8 <- 33         0.00130
       8 <- 36        -0.00200
       8 <- 42         0.00125
       8 <- 47        -0.00059
       8 <- 53        -0.00011

 Excited State   5:      Singlet-A2     7.6169 eV  162.77 nm  f=0.0000  <S**2>=0.000
       3 -> 27         0.00222
       3 -> 35         0.00175
       3 -> 46         0.00078
       4 -> 10         0.00613
       4 -> 13         0.00981
       4 -> 17        -0.00080
       4 -> 22        -0.00243
       4 -> 28         0.00057
       4 -> 32         0.00215
       4 -> 37         0.00293
       4 -> 43         0.00031
       4 -> 49        -0.00010
       4 -> 52         0.00048
       5 -> 16        -0.00174
       5 -> 18        -0.00032
       5 -> 23         0.00159
       5 -> 29        -0.00038
       5 -> 33         0.00012
       5 -> 36         0.00046
       5 -> 42         0.00049
       5 -> 47         0.00047
       5 -> 53         0.00019
       6 -> 27         0.00173
       6 -> 35        -0.00083
       6 -> 46        -0.00025
       7 -> 27         0.00043
       7 -> 35        -0.00013
       7 -> 46         0.00084
       8 -> 10        -0.10170
       8 -> 13         0.69907
       8 -> 17         0.01727
       8 -> 22        -0.02391
       8 -> 28         0.00267
       8 -> 32         0.00204
       8 -> 37        -0.00179
       8 -> 43        -0.00017
       8 -> 49        -0.00012
       8 -> 52         0.00052
       3 <- 27         0.00143
       3 <- 35         0.00143
       3 <- 46         0.00088
       4 <- 10         0.00033
       4 <- 13         0.00057
       4 <- 17        -0.00031
       4 <- 32        -0.00046
       4 <- 37         0.00102
       4 <- 43         0.00031
       4 <- 52         0.00015
       5 <- 11         0.00033
       5 <- 16        -0.00042
       5 <- 18        -0.00095
       5 <- 23         0.00285
       5 <- 24        -0.00102
       5 <- 29         0.00024
       5 <- 33        -0.00078
       5 <- 36         0.00150
       5 <- 42         0.00082
       5 <- 47         0.00023
       5 <- 53         0.00043
       6 <- 27         0.00228
       6 <- 35        -0.00021
       6 <- 46        -0.00033
       7 <- 27         0.00060
       7 <- 35        -0.00026
       7 <- 46         0.00046
       8 <- 10        -0.00735
       8 <- 13        -0.00304
       8 <- 17        -0.00170
       8 <- 22         0.00064
       8 <- 28        -0.00034
       8 <- 32         0.00182
       8 <- 37        -0.00140
       8 <- 52         0.00020

 Excited State   6:      Singlet-B2     9.6897 eV  127.95 nm  f=0.1840  <S**2>=0.000
       3 -> 11        -0.00038
       3 -> 16         0.00104
       3 -> 18        -0.00082
       3 -> 23         0.00070
       3 -> 24         0.00039
       3 -> 29         0.00091
       3 -> 33        -0.00073

 The electronic state is 1-A1.
 Alpha  occ. eigenvalues --  -19.14231 -10.23928  -1.30267  -0.64882  -0.60599
 Alpha  occ. eigenvalues --   -0.58677  -0.53375  -0.23083
 Alpha virt. eigenvalues --    0.01353   0.02297   0.04433   0.04472   0.10448
 Alpha virt. eigenvalues --    0.14345   0.17667   0.20021   0.21792   0.24173
 Alpha virt. eigenvalues --    0.25512   0.36487   0.50391   0.53725   0.54982

 Mulliken charges:
               1
     1  C    0.276909
     2  H   -0.025916
     3  H   -0.025916
     4  O   -0.225077
 Sum of Mulliken charges =  -0.00000

 Dipole moment (field-independent basis, Debye):
    X=              0.0000    Y=              0.0000    Z=             -0.0654  Tot=              0.0654
 Quadrupole moment (field-independent basis, Debye-Ang):
   XX=            -10.6165   YY=            -12.6289   ZZ=            -13.3494
   XY=             -0.0000   XZ=             -0.0000   YZ=             -0.0000

 Normal termination of Gaussian 16 at Fri Sep 17 10:52:28 2021.
