 Gaussian 16, Revision C.01,
 Gaussian 16:  ES64L-G16RevC.01  3-Jul-2019

 ---------------------------------------
 #P wB97XD/6-311+G* NoSymm #P Field=X+68
 ---------------------------------------

 -------
 TitleMe
 -------
 Symbolic Z-matrix:
 Charge =  1 Multiplicity = 1

                          Input orientation:
 ---------------------------------------------------------------------
 Center     Atomic      Atomic             Coordinates (Angstroms)
 Number     Number       Type             X           Y           Z
 ---------------------------------------------------------------------
      1          6           0        0.519300    1.233000   -0.031900
      2          6           0        1.944500    1.269200   -0.036700
      3          6           0        2.620400    0.092800   -0.025000
      4          6           0       -0.196000    0.030100    0.001000
      5          1           0       -0.020700    2.174200   -0.043400
      6          1           0        2.482800    2.208900   -0.036100
      7          1           0       -1.277700    0.039900    0.011700
      8          7           0        4.092100    0.095900    0.036600
      9          8           0        4.639300   -1.021700    0.144600
     10          8           0        4.664900    1.198400   -0.023300
     11          6           0        0.494300   -1.167100    0.021000
     12          1           0       -0.032500   -2.114900    0.054500
     13          6           0        1.962900   -1.216500   -0.021100
     14          1           0        2.443600   -1.963100    0.615100
     15         35           0        2.173000   -1.949100   -1.906200
 ---------------------------------------------------------------------

 SCF Done:  E(RwB97XD) =  -3010.52704588     A.U. after   19 cycles

 Alpha  occ. eigenvalues -- -483.33389 -62.88415 -56.68106 -56.67540 -56.67531
 Alpha  occ. eigenvalues --  -19.50447 -19.50396 -14.89748 -10.61568 -10.60347
 Alpha  occ. eigenvalues --  -10.59088 -10.58650 -10.55938 -10.54161  -9.04224
 Alpha  occ. eigenvalues --   -6.86896  -6.85039  -6.85011  -2.96802  -2.96312
 Alpha  occ. eigenvalues --   -2.96290  -2.94804  -2.94803  -1.54085  -1.37090
 Alpha  occ. eigenvalues --   -1.24653  -1.15043  -1.14746  -1.07063  -1.02886
 Alpha  occ. eigenvalues --   -0.97382  -0.92874  -0.88170  -0.84437  -0.83177
 Alpha  occ. eigenvalues --   -0.82784  -0.80109  -0.79501  -0.77822  -0.74073
 Alpha  occ. eigenvalues --   -0.70151  -0.69544  -0.65319  -0.62230  -0.61448
 Alpha  occ. eigenvalues --   -0.60927  -0.60222  -0.58563  -0.57022
 Alpha virt. eigenvalues --   -0.32273  -0.23585  -0.17967  -0.15512  -0.10450
 Alpha virt. eigenvalues --   -0.07863  -0.07154  -0.06734  -0.05952  -0.04753
 Alpha virt. eigenvalues --   -0.04091  -0.03948  -0.03458  -0.02589  -0.01902

 Mulliken charges:
               1
     1  C   -0.117686
     2  C    0.185434
     3  C   -0.110927
     4  C   -0.329597
     5  H    0.362612
     6  H    0.341894
     7  H    0.362316
     8  N   -0.238016
     9  O    0.061931
    10  O    0.037085
    11  C   -0.177637
    12  H    0.373444
    13  C   -0.322956
    14  H    0.402838
    15  Br   0.169266
 Sum of Mulliken charges =   1.00000

 Dipole moment (field-independent basis, Debye):
    X=              0.8505    Y=             -0.8057    Z=             -0.6552  Tot=              1.3423
 Quadrupole moment (field-independent basis, Debye-Ang):
   XX=            -75.4742   YY=            -51.2753   ZZ=            -62.3789
   XY=             -2.4845   XZ=             -2.0241   YZ=              2.2305

 Normal termination of Gaussian 16 at Thu May  2 14:18:32 2024.
