 Gaussian 16, Revision C.01,
 Gaussian 16:  ES64L-G16RevC.01  3-Jul-2019

 ----------------------------------------
 #P wB97XD/6-311+G* NoSymm #P Field=Z+184
 ----------------------------------------

 -------
 TitleMe
 -------
 Symbolic Z-matrix:
 Charge =  1 Multiplicity = 1

                          Input orientation:
 ---------------------------------------------------------------------
 Center     Atomic      Atomic             Coordinates (Angstroms)
 Number     Number       Type             X           Y           Z
 ---------------------------------------------------------------------
      1          6           0        0.029500    1.339700    0.068200
      2          6           0        1.434800    1.286700    0.006400
      3          6           0        2.111800    0.051100   -0.005400
      4          6           0        1.445100   -1.137200    0.031200
      5          6           0       -0.687900    0.168200    0.110000
      6          1           0       -0.471300    2.298400    0.078100
      7          1           0        2.027300    2.196500   -0.032200
      8          1           0        1.989700   -2.076400    0.023200
      9          1           0       -1.771600    0.180400    0.158200
     10          7           0        3.586400    0.051000   -0.067500
     11          8           0        4.147100   -1.059700   -0.088100
     12          8           0        4.145000    1.163900   -0.090100
     13          6           0       -0.023600   -1.145800    0.083500
     14          1           0       -0.436700   -1.872500    0.788900
     15         35           0       -0.535900   -1.869700   -1.740800
 ---------------------------------------------------------------------

 SCF Done:  E(RwB97XD) =  -3010.54707985     A.U. after   18 cycles

 Alpha  occ. eigenvalues -- -483.28475 -62.83452 -56.63195 -56.62553 -56.62552
 Alpha  occ. eigenvalues --  -19.45003 -19.44945 -14.84500 -10.56818 -10.56334
 Alpha  occ. eigenvalues --  -10.56175 -10.55946 -10.55764 -10.52054  -8.99223
 Alpha  occ. eigenvalues --   -6.82033  -6.79948  -6.79937  -2.91905  -2.91353
 Alpha  occ. eigenvalues --   -2.91343  -2.89677  -2.89677  -1.48764  -1.31744
 Alpha  occ. eigenvalues --   -1.21500  -1.12686  -1.10628  -1.02014  -1.00075
 Alpha  occ. eigenvalues --   -0.94256  -0.89932  -0.84381  -0.79878  -0.79619
 Alpha  occ. eigenvalues --   -0.79057  -0.77417  -0.75184  -0.74938  -0.70785
 Alpha  occ. eigenvalues --   -0.68289  -0.66548  -0.61982  -0.58651  -0.56186
 Alpha  occ. eigenvalues --   -0.55285  -0.54743  -0.53014  -0.52350
 Alpha virt. eigenvalues --   -0.28241  -0.20463  -0.14423  -0.13070  -0.11000
 Alpha virt. eigenvalues --   -0.09065  -0.08569  -0.06086  -0.04862  -0.04320
 Alpha virt. eigenvalues --   -0.02506  -0.01277  -0.00447   0.00805   0.01189

 Mulliken charges:
               1
     1  C   -0.546214
     2  C    0.446049
     3  C   -0.692323
     4  C    0.258584
     5  C   -0.059089
     6  H    0.330634
     7  H    0.367344
     8  H    0.370730
     9  H    0.346035
    10  N   -0.112838
    11  O    0.033370
    12  O    0.030931
    13  C   -0.456872
    14  H    0.338972
    15  Br   0.344686
 Sum of Mulliken charges =   1.00000

 Dipole moment (field-independent basis, Debye):
    X=             -1.2813    Y=             -1.3028    Z=             -3.2363  Tot=              3.7166
 Quadrupole moment (field-independent basis, Debye-Ang):
   XX=            -71.9087   YY=            -51.0560   ZZ=            -59.4671
   XY=              1.8292   XZ=             -0.3758   YZ=              4.3832

 Normal termination of Gaussian 16 at Wed May  1 15:27:09 2024.
