 Gaussian 16, Revision A.03,
 Gaussian 16:  ES64L-G16RevA.03 25-Dec-2016

 --------------------------------------------------------------------
 #p B3LYP/6-311+G** #p TD=(singlets,nstates=30)IOp(6/8=3) IOp(9/40=4)
 --------------------------------------------------------------------

 --------------------------------------------
 Scan Step 41, Bond Length 0.7050000000000001
 --------------------------------------------
 Symbolic Z-matrix:
 Charge =  0 Multiplicity = 1

                         Standard orientation:
 ---------------------------------------------------------------------
 Center     Atomic      Atomic             Coordinates (Angstroms)
 Number     Number       Type             X           Y           Z
 ---------------------------------------------------------------------
      1          6           0        0.000000    0.000000   -0.278581
      2          1           0        0.000000    0.937260   -0.869931
      3          1           0       -0.000000   -0.937260   -0.869931
      4          8           0        0.000000   -0.000000    0.426419
 ---------------------------------------------------------------------

 SCF Done:  E(RB3LYP) =  -113.106282095     A.U. after   10 cycles

 Excitation energies and oscillator strengths:

 Excited State   1:      Singlet-B2     4.9808 eV  248.93 nm  f=0.1182  <S**2>=0.000
       3 -> 11         0.00075
       3 -> 16         0.00055
       3 -> 19         0.00078
       3 -> 22         0.00037
       3 -> 24        -0.00099
       3 -> 29        -0.00021
       3 -> 32        -0.00016
       3 -> 40         0.00018
       3 -> 43         0.00020
       3 -> 50        -0.00012
       3 -> 53         0.00014
       4 ->  9        -0.00290
       4 -> 12         0.00344
       4 -> 14         0.00373
       4 -> 15         0.00156
       4 -> 18         0.00302
       4 -> 20         0.00197
       4 -> 21         0.00180
       4 -> 25         0.00150
       4 -> 26        -0.00078
       4 -> 30         0.00018
       4 -> 31         0.00168
       4 -> 33         0.00035
       4 -> 38        -0.00070
       4 -> 42        -0.00050
       4 -> 44        -0.00033
       4 -> 46        -0.00077
       4 -> 49         0.00020
       5 -> 28         0.00170
       5 -> 35         0.00074
       5 -> 45         0.00082
       6 -> 11        -0.00583
       6 -> 16         0.00313
       6 -> 19         0.00063
       6 -> 22        -0.00118
       6 -> 24        -0.00469
       6 -> 29        -0.00078
       6 -> 32        -0.00086
       6 -> 36         0.00037
       6 -> 43         0.00021
       6 -> 47         0.00028
       7 -> 11         0.00713
       7 -> 16         0.00367
       7 -> 19         0.00283
       7 -> 22        -0.00020
       7 -> 24        -0.00093
       7 -> 29         0.00093
       7 -> 32         0.00072
       7 -> 36        -0.00069
       7 -> 43        -0.00043
       7 -> 47         0.00043
       7 -> 50         0.00044
       7 -> 53        -0.00011
       8 ->  9         0.70551
       8 -> 12        -0.00019
       8 -> 14         0.04402
       8 -> 15        -0.00748
       8 -> 18        -0.02183
       8 -> 20         0.00564
       8 -> 21         0.00994
       8 -> 25        -0.00023
       8 -> 26        -0.00020
       8 -> 30        -0.00268
       8 -> 31        -0.00241
       8 -> 33        -0.00111
       8 -> 38        -0.00112
       8 -> 39         0.00019
       8 -> 42        -0.00073
       8 -> 44         0.00028
       8 -> 46         0.00082
       8 -> 49        -0.00029
       8 -> 51         0.00012
       3 <- 11         0.00030
       3 <- 16         0.00022
       3 <- 19         0.00051
       3 <- 22         0.00028
       3 <- 24        -0.00075
       3 <- 29        -0.00018
       3 <- 32        -0.00017
       3 <- 40         0.00019
       3 <- 43         0.00019
       3 <- 53         0.00015
       4 <-  9        -0.00139
       4 <- 12        -0.00023
       4 <- 14         0.00305
       4 <- 15         0.00184
       4 <- 18         0.00066
       4 <- 20         0.00108
       4 <- 21         0.00136
       4 <- 25         0.00131
       4 <- 26        -0.00131
       4 <- 30         0.00025
       4 <- 31         0.00069
       4 <- 33         0.00026
       4 <- 38        -0.00045
       4 <- 39         0.00016
       4 <- 42        -0.00042
       4 <- 44        -0.00026
       4 <- 46        -0.00069
       4 <- 49         0.00014
       5 <- 28         0.00140
       5 <- 35         0.00059
       5 <- 45         0.00069
       6 <- 11        -0.00083
       6 <- 16         0.00285
       6 <- 19         0.00109
       6 <- 22        -0.00036
       6 <- 24        -0.00347
       6 <- 29        -0.00036
       6 <- 32        -0.00073
       6 <- 36         0.00037
       6 <- 43         0.00012
       6 <- 47         0.00025
       6 <- 50         0.00014
       7 <- 11         0.00144
       7 <- 16         0.00172
       7 <- 19         0.00023
       7 <- 29         0.00145
       7 <- 32         0.00055
       7 <- 36        -0.00040
       7 <- 43        -0.00030
       7 <- 47         0.00045
       7 <- 50         0.00051
       8 <-  9        -0.00761
       8 <- 12        -0.00486
       8 <- 14         0.01894
       8 <- 15         0.00558
       8 <- 18         0.00147
       8 <- 20         0.00037
       8 <- 21         0.00504
       8 <- 25         0.00313
       8 <- 26         0.00020
       8 <- 30        -0.00176
       8 <- 31        -0.00152
       8 <- 33        -0.00142
       8 <- 38        -0.00107
       8 <- 39         0.00014
       8 <- 42        -0.00059
       8 <- 46         0.00069
       8 <- 49        -0.00022
 This state for optimization and/or second-order correction.
 Total Energy, E(TD-HF/TD-DFT) =  -112.923242625
 Copying the excited state density for this state as the 1-particle RhoCI density.

 Excited State   2:      Singlet-A2     5.2709 eV  235.23 nm  f=0.0000  <S**2>=0.000
       3 -> 28        -0.00192
       3 -> 35        -0.00125
       3 -> 45        -0.00048
       4 -> 10        -0.00109
       4 -> 13         0.00173
       4 -> 17        -0.00407
       4 -> 23         0.00197
       4 -> 27        -0.00230
       4 -> 34        -0.00012
       4 -> 37        -0.00169
       4 -> 41        -0.00020
       4 -> 48        -0.00013
       4 -> 52        -0.00032
       5 -> 11         0.00032
       5 -> 19         0.00036
       5 -> 22        -0.00102
       5 -> 24        -0.00020
       5 -> 29        -0.00016
       5 -> 32        -0.00013
       5 -> 36        -0.00035
       5 -> 43        -0.00040
       5 -> 47        -0.00040
       5 -> 50         0.00019
       5 -> 53        -0.00011
       6 -> 28        -0.00347
       6 -> 35         0.00050
       7 -> 28         0.00100
       7 -> 35        -0.00025
       7 -> 45        -0.00052
       8 -> 10         0.70557
       8 -> 13        -0.03722
       8 -> 17         0.02864
       8 -> 23         0.00232
       8 -> 27         0.00203
       8 -> 34         0.00317
       8 -> 37        -0.00204
       8 -> 41         0.00018
       8 -> 48         0.00013
       8 -> 52         0.00042
       3 <- 28        -0.00156
       3 <- 35        -0.00108
       3 <- 45        -0.00046
       4 <- 10        -0.00017
       4 <- 13         0.00080
       4 <- 17        -0.00070
       4 <- 27        -0.00032
       4 <- 34         0.00080
       4 <- 37        -0.00091
       4 <- 41        -0.00027
       5 <- 11         0.00066
       5 <- 16        -0.00063
       5 <- 19         0.00170
       5 <- 22        -0.00162
       5 <- 24        -0.00131
       5 <- 29        -0.00135
       5 <- 32         0.00028
       5 <- 36        -0.00085
       5 <- 43        -0.00046
       5 <- 47        -0.00038
       5 <- 53        -0.00029
       6 <- 28        -0.00342
       6 <- 35         0.00063
       7 <- 28         0.00110
       7 <- 35        -0.00030
       7 <- 45        -0.00051
       8 <- 10         0.00061
       8 <- 13         0.00602
       8 <- 17        -0.00576
       8 <- 23         0.00020
       8 <- 27        -0.00046
       8 <- 34         0.00305
       8 <- 37        -0.00164
       8 <- 41         0.00015
       8 <- 52         0.00014

 Excited State   3:      Singlet-B2     5.8829 eV  210.75 nm  f=0.0321  <S**2>=0.000
       3 -> 11        -0.00013
       3 -> 16         0.00048
       3 -> 19        -0.00026
       3 -> 22         0.00028
       3 -> 24        -0.00038
       3 -> 29         0.00047
       3 -> 32         0.00013
       3 -> 36        -0.00023
       3 -> 43        -0.00023
       3 -> 47         0.00016
       3 -> 50         0.00013
       3 -> 53        -0.00016
       4 ->  9         0.00219
       4 -> 12         0.00035
       4 -> 14         0.00143
       4 -> 15         0.00276
       4 -> 18        -0.00161
       4 -> 20        -0.00041
       4 -> 21         0.00130
       4 -> 25         0.00083
       4 -> 26         0.00071
       4 -> 30        -0.00209
       4 -> 31        -0.00092
       4 -> 33        -0.00011
       4 -> 38         0.00019
       4 -> 39        -0.00096
       4 -> 42         0.00034
       4 -> 46         0.00056
       4 -> 49        -0.00013
       5 -> 28        -0.00099
       5 -> 35        -0.00126
       5 -> 45        -0.00074
       6 -> 16         0.00423
       6 -> 19        -0.00133
       6 -> 22        -0.00017
       6 -> 24        -0.00257
       6 -> 29        -0.00180
       6 -> 32         0.00044
       6 -> 36         0.00054
       6 -> 40        -0.00041
       6 -> 43         0.00028
       6 -> 47        -0.00023
       6 -> 50        -0.00020
       6 -> 53         0.00011
       7 -> 11        -0.00252
       7 -> 16        -0.00361
       7 -> 19        -0.00161
       7 -> 22         0.00091
       7 -> 24         0.00280
       7 -> 29         0.00066
       7 -> 32        -0.00040
       7 -> 36         0.00069
       7 -> 40        -0.00013
       7 -> 43         0.00026
       7 -> 47        -0.00061
       7 -> 50        -0.00036
       7 -> 53         0.00016
       8 ->  9        -0.00082
       8 -> 12         0.70581
       8 -> 14         0.02883
       8 -> 15         0.02694
       8 -> 18         0.00972
       8 -> 20         0.01581
       8 -> 21         0.00511
       8 -> 25        -0.00084
       8 -> 26         0.00159
       8 -> 30        -0.00244
       8 -> 31         0.00022
       8 -> 33        -0.00029
       8 -> 38        -0.00024
       8 -> 39         0.00138
       8 -> 42        -0.00087
       8 -> 46        -0.00051
       8 -> 49         0.00015
       8 -> 54        -0.00015
       3 <- 16         0.00049
       3 <- 22         0.00013
       3 <- 24        -0.00043
       3 <- 29         0.00030
       3 <- 32         0.00013
       3 <- 36        -0.00024
       3 <- 43        -0.00020
       3 <- 47         0.00012
       3 <- 53        -0.00022
       4 <-  9        -0.00125
       4 <- 12        -0.00011
       4 <- 14         0.00138
       4 <- 15         0.00070
       4 <- 18         0.00063
       4 <- 20        -0.00043
       4 <- 21         0.00089
       4 <- 25         0.00097
       4 <- 26         0.00072
       4 <- 30        -0.00142
       4 <- 31        -0.00023
       4 <- 33        -0.00063
       4 <- 38         0.00013
       4 <- 39        -0.00072
       4 <- 42         0.00035
       4 <- 46         0.00053
       5 <- 28        -0.00057
       5 <- 35        -0.00108
       5 <- 45        -0.00065
       6 <- 11        -0.00032
       6 <- 16         0.00093
       6 <- 19         0.00052
       6 <- 22        -0.00071
       6 <- 24        -0.00186
       6 <- 29        -0.00124
       6 <- 32         0.00059
       6 <- 36         0.00057
       6 <- 40        -0.00037
       6 <- 43         0.00018
       6 <- 47        -0.00020
       6 <- 50        -0.00012
       7 <- 11        -0.00018
       7 <- 16        -0.00124
       7 <- 19        -0.00054
       7 <- 22         0.00049
       7 <- 24         0.00146
       7 <- 32        -0.00029
       7 <- 36         0.00032
       7 <- 43         0.00018
       7 <- 47        -0.00054
       7 <- 50        -0.00043
       8 <-  9        -0.00448
       8 <- 12         0.00123
       8 <- 14         0.01035
       8 <- 15         0.00384
       8 <- 18        -0.00120
       8 <- 20        -0.00289
       8 <- 21         0.00330
       8 <- 25         0.00065
       8 <- 26        -0.00017
       8 <- 30        -0.00215
       8 <- 31         0.00012
       8 <- 39         0.00117
       8 <- 42        -0.00076
       8 <- 46        -0.00042

 Excited State   4:      Singlet-A1     6.0403 eV  205.26 nm  f=0.0137  <S**2>=0.000
       3 ->  9         0.00122
       3 -> 12        -0.00054
       3 -> 14         0.00018
       3 -> 15        -0.00067
       3 -> 18        -0.00144
       3 -> 21         0.00070
       3 -> 25        -0.00053
       3 -> 26        -0.00026
       3 -> 30         0.00080
       3 -> 31        -0.00062
       3 -> 33         0.00036
       3 -> 38         0.00032
       3 -> 39         0.00032
       3 -> 46        -0.00012
       3 -> 51         0.00020
       3 -> 54        -0.00015
       4 -> 11        -0.00635
       4 -> 16        -0.00687
       4 -> 19        -0.00466
       4 -> 22        -0.00219
       4 -> 24         0.00333
       4 -> 29        -0.00047
       4 -> 36        -0.00104
       4 -> 43         0.00027
       4 -> 50         0.00023
       5 -> 10        -0.00403
       5 -> 13        -0.00315
       5 -> 17        -0.00354
       5 -> 23        -0.00338
       5 -> 27        -0.00100
       5 -> 34        -0.00091
       5 -> 37        -0.00058
       5 -> 41        -0.00018
       5 -> 48         0.00026
       6 ->  9         0.01059
       6 -> 12         0.00766
       6 -> 14        -0.00480
       6 -> 15        -0.00418
       6 -> 18        -0.00618
       6 -> 20         0.00561
       6 -> 21         0.00061
       6 -> 25        -0.00616
       6 -> 26         0.00101
       6 -> 30        -0.00038
       6 -> 31         0.00137
       6 -> 33         0.00184
       6 -> 38         0.00108
       6 -> 39        -0.00121
       6 -> 42         0.00010
       6 -> 44         0.00054
       6 -> 49         0.00046
       7 ->  9         0.00828
       7 -> 12        -0.01107
       7 -> 14         0.00109
       7 -> 15         0.00384
       7 -> 18        -0.00755
       7 -> 20        -0.00289
       7 -> 25         0.00132
       7 -> 26        -0.00227
       7 -> 30        -0.00033
       7 -> 31        -0.00166
       7 -> 33         0.00033
       7 -> 38        -0.00037
       7 -> 39         0.00040
       7 -> 44        -0.00026
       7 -> 51        -0.00019
       8 -> 11         0.70488
       8 -> 16         0.05066
       8 -> 19        -0.01745
       8 -> 22        -0.00013
       8 -> 24        -0.00524
       8 -> 29         0.00409
       8 -> 32         0.00185
       8 -> 36        -0.00311
       8 -> 40         0.00032
       8 -> 43         0.00179
       8 -> 47        -0.00080
       8 -> 50         0.00015
       3 <-  9         0.00064
       3 <- 12        -0.00026
       3 <- 14         0.00013
       3 <- 15        -0.00040
       3 <- 18        -0.00090
       3 <- 21         0.00043
       3 <- 25        -0.00043
       3 <- 26        -0.00021
       3 <- 30         0.00058
       3 <- 31        -0.00039
       3 <- 33         0.00032
       3 <- 38         0.00024
       3 <- 39         0.00027
       3 <- 46        -0.00016
       3 <- 51         0.00017
       3 <- 54        -0.00014
       4 <- 11        -0.00249
       4 <- 16        -0.00271
       4 <- 19        -0.00261
       4 <- 22        -0.00161
       4 <- 24         0.00178
       4 <- 29        -0.00022
       4 <- 32         0.00018
       4 <- 36        -0.00087
       4 <- 43         0.00025
       4 <- 50         0.00021
       5 <- 10        -0.00210
       5 <- 13        -0.00171
       5 <- 17        -0.00206
       5 <- 23        -0.00229
       5 <- 27        -0.00071
       5 <- 34        -0.00074
       5 <- 37        -0.00049
       5 <- 41        -0.00015
       5 <- 48         0.00024
       6 <-  9         0.00796
       6 <- 12         0.00364
       6 <- 14        -0.00375
       6 <- 15        -0.00346
       6 <- 18        -0.00339
       6 <- 20         0.00318
       6 <- 21         0.00125
       6 <- 25        -0.00407
       6 <- 26         0.00059
       6 <- 30         0.00014
       6 <- 31         0.00106
       6 <- 33         0.00133
       6 <- 38         0.00111
       6 <- 39        -0.00095
       6 <- 44         0.00054
       6 <- 49         0.00038
       7 <-  9         0.00108
       7 <- 12        -0.00432
       7 <- 14         0.00141
       7 <- 15         0.00268
       7 <- 18        -0.00352
       7 <- 20        -0.00136
       7 <- 21        -0.00033
       7 <- 25         0.00090
       7 <- 26        -0.00142
       7 <- 30        -0.00041
       7 <- 31        -0.00129
       7 <- 33         0.00022
       7 <- 38        -0.00034
       7 <- 39         0.00021
       7 <- 44        -0.00027
       7 <- 46         0.00010
       7 <- 51        -0.00018
       8 <- 11        -0.00810
       8 <- 16         0.00495
       8 <- 19        -0.01478
       8 <- 22        -0.00364
       8 <- 24        -0.00144
       8 <- 29         0.00276
       8 <- 32         0.00164
       8 <- 36        -0.00244
       8 <- 40         0.00010
       8 <- 43         0.00143
       8 <- 47        -0.00079
       8 <- 50         0.00015

 Excited State   5:      Singlet-A2     7.9958 eV  155.06 nm  f=0.0000  <S**2>=0.000
       3 -> 28         0.00267
       3 -> 35         0.00184
       3 -> 45         0.00067
       4 -> 10         0.00144
       4 -> 13        -0.00855
       4 -> 17         0.00128
       4 -> 23        -0.00350
       4 -> 27         0.00076
       4 -> 34         0.00131
       4 -> 37         0.00289
       4 -> 52         0.00041
       5 -> 16        -0.00081
       5 -> 19        -0.00044
       5 -> 22         0.00159
       5 -> 24         0.00058
       5 -> 29        -0.00012
       5 -> 32         0.00011
       5 -> 36         0.00049
       5 -> 43         0.00064
       5 -> 47         0.00052
       5 -> 50        -0.00013
       5 -> 53         0.00017
       6 -> 28         0.00293
       6 -> 35        -0.00074
       6 -> 45         0.00011
       7 -> 28        -0.00084
       7 -> 35         0.00037
       7 -> 45         0.00068
       8 -> 10         0.03905
       8 -> 13         0.70397
       8 -> 17        -0.04901
       8 -> 23         0.02161
       8 -> 27        -0.00294
       8 -> 34        -0.00276
       8 -> 37         0.00279
       8 -> 52        -0.00046
       3 <- 28         0.00182
       3 <- 35         0.00151
       3 <- 45         0.00074
       4 <- 10         0.00033
       4 <- 13        -0.00081
       4 <- 17         0.00032
       4 <- 23        -0.00014
       4 <- 27         0.00019
       4 <- 34        -0.00065
       4 <- 37         0.00109
       4 <- 41         0.00034
       4 <- 52         0.00014
       5 <- 11         0.00031
       5 <- 16        -0.00029
       5 <- 19        -0.00074
       5 <- 22         0.00220
       5 <- 24         0.00164
       5 <- 29         0.00043
       5 <- 32        -0.00067
       5 <- 36         0.00134
       5 <- 43         0.00080
       5 <- 47         0.00023
       5 <- 53         0.00036
       6 <- 28         0.00319
       6 <- 35        -0.00050
       6 <- 45        -0.00012
       7 <- 28        -0.00090
       7 <- 45         0.00043
       8 <- 10         0.00608
       8 <- 13        -0.00401
       8 <- 17         0.00363
       8 <- 23        -0.00075
       8 <- 27         0.00047
       8 <- 34        -0.00297
       8 <- 37         0.00172
       8 <- 41        -0.00018
       8 <- 52        -0.00019

 Excited State   6:      Singlet-B2     9.1236 eV  135.89 nm  f=0.0897  <S**2>=0.000

 The electronic state is 1-A1.
 Alpha  occ. eigenvalues --  -19.17657 -10.28989  -1.32681  -0.75474  -0.72189
 Alpha  occ. eigenvalues --   -0.57825  -0.54863  -0.20943
 Alpha virt. eigenvalues --    0.00964   0.02812   0.04434   0.04631   0.13904
 Alpha virt. eigenvalues --    0.14420   0.17712   0.18860   0.21676   0.23870
 Alpha virt. eigenvalues --    0.26448   0.36561   0.50680   0.57069   0.57093

 Mulliken charges:
               1
     1  C    0.333464
     2  H   -0.084215
     3  H   -0.084215
     4  O   -0.165034
 Sum of Mulliken charges =   0.00000

 Dipole moment (field-independent basis, Debye):
    X=              0.0000    Y=             -0.0000    Z=              0.9074  Tot=              0.9074
 Quadrupole moment (field-independent basis, Debye-Ang):
   XX=            -10.2964   YY=            -13.4065   ZZ=            -13.5900
   XY=             -0.0000   XZ=             -0.0000   YZ=             -0.0000

 Normal termination of Gaussian 16 at Fri Sep 17 10:52:23 2021.
