 Gaussian 16, Revision A.03,
 Gaussian 16:  ES64L-G16RevA.03 25-Dec-2016

 --------------------------------------------------------------------
 #p B3LYP/6-311+G** #p TD=(singlets,nstates=30)IOp(6/8=3) IOp(9/40=4)
 --------------------------------------------------------------------

 ---------------------------------------------
 Scan Step 147, Bond Length 1.2349999999999999
 ---------------------------------------------
 Symbolic Z-matrix:
 Charge =  0 Multiplicity = 1

                         Standard orientation:
 ---------------------------------------------------------------------
 Center     Atomic      Atomic             Coordinates (Angstroms)
 Number     Number       Type             X           Y           Z
 ---------------------------------------------------------------------
      1          6           0        0.000000    0.000000   -0.543581
      2          1           0        0.000000    0.937260   -1.134931
      3          1           0       -0.000000   -0.937260   -1.134931
      4          8           0        0.000000   -0.000000    0.691419
 ---------------------------------------------------------------------

 SCF Done:  E(RB3LYP) =  -114.540108466     A.U. after    9 cycles

 Excitation energies and oscillator strengths:

 Excited State   1:      Singlet-A2     3.7677 eV  329.07 nm  f=0.0000  <S**2>=0.000
       3 -> 27         0.00239
       3 -> 38         0.00202
       3 -> 45         0.00256
       4 -> 27         0.00181
       4 -> 38        -0.00052
       4 -> 45        -0.00133
       5 ->  9         0.02062
       5 -> 13        -0.00269
       5 -> 17         0.00550
       5 -> 29         0.00437
       5 -> 31        -0.00210
       5 -> 37         0.00329
       5 -> 44         0.00060
       5 -> 47         0.00014
       5 -> 52         0.00075
       6 -> 27        -0.00017
       6 -> 38        -0.00085
       6 -> 45         0.00178
       7 -> 12        -0.00062
       7 -> 15         0.00296
       7 -> 18        -0.00287
       7 -> 22         0.00060
       7 -> 25         0.00142
       7 -> 30        -0.00095
       7 -> 33         0.00044
       7 -> 35        -0.00024
       7 -> 40         0.00022
       7 -> 42        -0.00011
       7 -> 49         0.00032
       7 -> 50         0.00033
       7 -> 53         0.00047
       8 ->  9         0.70566
       8 -> 13        -0.04023
       8 -> 17         0.02293
       8 -> 23        -0.00992
       8 -> 29         0.00934
       8 -> 31        -0.00235
       8 -> 44        -0.00011
       8 -> 47        -0.00025
       8 -> 52         0.00171
       3 <- 27         0.00153
       3 <- 38         0.00166
       3 <- 45         0.00265
       4 <- 27         0.00262
       4 <- 45        -0.00112
       5 <-  9        -0.00046
       5 <- 13        -0.00081
       5 <- 17        -0.00100
       5 <- 23         0.00053
       5 <- 29        -0.00068
       5 <- 31         0.00086
       5 <- 37         0.00159
       5 <- 44         0.00024
       5 <- 47         0.00015
       5 <- 52         0.00020
       6 <- 27         0.00040
       6 <- 38        -0.00075
       6 <- 45         0.00139
       7 <- 12        -0.00075
       7 <- 15        -0.00743
       7 <- 18         0.00047
       7 <- 22         0.00737
       7 <- 30         0.00355
       7 <- 33        -0.00129
       7 <- 35        -0.00233
       7 <- 40         0.00096
       7 <- 49         0.00011
       7 <- 50         0.00022
       7 <- 53         0.00130
       8 <-  9        -0.02534
       8 <- 13         0.00285
       8 <- 17        -0.00445
       8 <- 23         0.00079
       8 <- 29        -0.00104
       8 <- 31        -0.00078
       8 <- 37        -0.00138
       8 <- 52         0.00049
 This state for optimization and/or second-order correction.
 Total Energy, E(TD-HF/TD-DFT) =  -114.401647385
 Copying the excited state density for this state as the 1-particle RhoCI density.

 Excited State   2:      Singlet-B2     6.8923 eV  179.89 nm  f=0.0267  <S**2>=0.000
       3 -> 12         0.00154
       3 -> 15         0.00071
       3 -> 18         0.00120
       3 -> 22        -0.00032
       3 -> 25         0.00127
       3 -> 33         0.00021
       3 -> 35         0.00043
       3 -> 40        -0.00012
       4 -> 12        -0.00300
       4 -> 15         0.00189
       4 -> 18         0.00202
       4 -> 22        -0.00330
       4 -> 25         0.00330
       4 -> 30         0.00032
       4 -> 33        -0.00046
       4 -> 35        -0.00057
       4 -> 40         0.00046
       4 -> 42        -0.00012
       5 -> 10        -0.00714
       5 -> 11        -0.00832
       5 -> 14         0.00700
       5 -> 16        -0.00079
       5 -> 19        -0.00034
       5 -> 20         0.00252
       5 -> 21         0.00585
       5 -> 24         0.00019
       5 -> 26         0.00240
       5 -> 28         0.00114
       5 -> 32        -0.00096
       5 -> 34        -0.00100
       5 -> 36        -0.00019
       5 -> 39        -0.00029
       5 -> 41        -0.00039
       5 -> 43        -0.00053
       5 -> 46        -0.00031
       5 -> 54         0.00012
       6 -> 12        -0.00015
       6 -> 15         0.00151
       6 -> 18         0.00188
       6 -> 22        -0.00247
       6 -> 25         0.00113
       6 -> 30        -0.00052
       6 -> 33        -0.00023
       6 -> 35        -0.00042
       6 -> 40        -0.00011
       6 -> 42        -0.00019
       6 -> 49         0.00047
       6 -> 50        -0.00029
       7 -> 27         0.00015
       7 -> 38        -0.00059
       7 -> 45         0.00038
       8 -> 10         0.70284
       8 -> 11        -0.07236
       8 -> 14         0.01519
       8 -> 16        -0.00568
       8 -> 19         0.00903
       8 -> 20         0.01560
       8 -> 21        -0.00281
       8 -> 24         0.00011
       8 -> 26         0.00257
       8 -> 28         0.00081
       8 -> 32         0.00100
       8 -> 34         0.00111
       8 -> 36         0.00037
       8 -> 39         0.00036
       8 -> 41        -0.00020
       8 -> 43         0.00061
       8 -> 46        -0.00056
       8 -> 48        -0.00015
       8 -> 54         0.00019
       3 <- 12         0.00036
       3 <- 15         0.00054
       3 <- 18         0.00045
       3 <- 22        -0.00047
       3 <- 25         0.00073
       3 <- 30        -0.00011
       3 <- 33         0.00018
       3 <- 35         0.00039
       3 <- 40        -0.00014
       3 <- 49         0.00010
       4 <- 12         0.00075
       4 <- 15         0.00193
       4 <- 18         0.00194
       4 <- 22        -0.00204
       4 <- 25         0.00225
       4 <- 30         0.00023
       4 <- 33        -0.00026
       4 <- 35        -0.00031
       4 <- 40         0.00013
       4 <- 42        -0.00023
       4 <- 50        -0.00013
       5 <- 10         0.00236
       5 <- 11        -0.00025
       5 <- 14         0.00480
       5 <- 16        -0.00068
       5 <- 20         0.00083
       5 <- 21         0.00201
       5 <- 24         0.00196
       5 <- 26         0.00152
       5 <- 28         0.00015
       5 <- 32        -0.00067
       5 <- 34        -0.00095
       5 <- 36        -0.00027
       5 <- 39        -0.00016
       5 <- 41        -0.00020
       5 <- 43        -0.00040
       5 <- 46        -0.00027
       6 <- 15        -0.00012
       6 <- 18         0.00112
       6 <- 22        -0.00066
       6 <- 25         0.00038
       6 <- 30         0.00030
       6 <- 33        -0.00029
       6 <- 35        -0.00050
       6 <- 40        -0.00011
       6 <- 42        -0.00017
       6 <- 49         0.00039
       6 <- 50        -0.00030
       6 <- 53         0.00015
       7 <- 27         0.00014
       7 <- 38        -0.00044
       7 <- 45         0.00034
       8 <- 10        -0.00167
       8 <- 11        -0.00052
       8 <- 14        -0.00514
       8 <- 16        -0.00045
       8 <- 20        -0.00062
       8 <- 21        -0.00176
       8 <- 24        -0.00217
       8 <- 26        -0.00074
       8 <- 28        -0.00053
       8 <- 32         0.00106
       8 <- 34         0.00019
       8 <- 36         0.00034
       8 <- 39         0.00028
       8 <- 43         0.00041
       8 <- 46        -0.00035

 Excited State   3:      Singlet-B2     7.6669 eV  161.71 nm  f=0.0263  <S**2>=0.000
       3 -> 12        -0.00032
       3 -> 15        -0.00086
       3 -> 18         0.00094
       3 -> 22         0.00045
       3 -> 25         0.00011
       3 -> 30         0.00226
       3 -> 33         0.00014
       3 -> 35         0.00052
       3 -> 40        -0.00047
       3 -> 49         0.00051
       3 -> 50        -0.00021
       4 -> 12         0.00264
       4 -> 15         0.00019
       4 -> 18         0.00220
       4 -> 22        -0.00149
       4 -> 25         0.00293
       4 -> 30        -0.00130
       4 -> 33         0.00050
       4 -> 35         0.00055
       4 -> 42        -0.00012
       4 -> 49         0.00024
       5 -> 10        -0.00667
       5 -> 11        -0.00017
       5 -> 14         0.00909
       5 -> 16        -0.00706
       5 -> 19        -0.00168
       5 -> 20        -0.00472
       5 -> 21         0.00186
       5 -> 24         0.00098
       5 -> 26         0.00124
       5 -> 28         0.00160
       5 -> 32        -0.00019
       5 -> 34        -0.00101
       5 -> 36        -0.00030
       5 -> 39         0.00042
       5 -> 41        -0.00072
       5 -> 43         0.00016
       5 -> 46         0.00089
       5 -> 51        -0.00041
       6 -> 12        -0.00300
       6 -> 15        -0.00165
       6 -> 18        -0.00082
       6 -> 22         0.00122
       6 -> 25         0.00016
       6 -> 30         0.00107
       6 -> 33        -0.00055
       6 -> 35        -0.00149
       6 -> 40         0.00107
       6 -> 49        -0.00119
       6 -> 50         0.00038
       6 -> 53         0.00011
       7 -> 38        -0.00089
       7 -> 45        -0.00186
       8 -> 10         0.07269
       8 -> 11         0.70240
       8 -> 14        -0.00446
       8 -> 16         0.00984
       8 -> 19        -0.03179
       8 -> 20         0.00415
       8 -> 21        -0.00293
       8 -> 24         0.00015
       8 -> 26        -0.00107
       8 -> 28         0.00151
       8 -> 32         0.00017
       8 -> 34        -0.00020
       8 -> 36        -0.00015
       8 -> 39        -0.00024
       8 -> 41        -0.00118
       8 -> 43         0.00034
       8 -> 46         0.00209
       8 -> 48         0.00013
       8 -> 51        -0.00100
       3 <- 12         0.00034
       3 <- 15        -0.00027
       3 <- 18         0.00094
       3 <- 25         0.00027
       3 <- 30         0.00125
       3 <- 33         0.00025
       3 <- 35         0.00056
       3 <- 40        -0.00043
       3 <- 49         0.00044
       3 <- 50        -0.00014
       3 <- 53        -0.00030
       4 <- 12         0.00032
       4 <- 15         0.00079
       4 <- 18         0.00051
       4 <- 22        -0.00115
       4 <- 25         0.00123
       4 <- 30        -0.00065
       4 <- 33         0.00046
       4 <- 35         0.00023
       4 <- 42        -0.00012
       4 <- 49         0.00018
       5 <- 10         0.00124
       5 <- 11        -0.00126
       5 <- 14         0.00266
       5 <- 16        -0.00043
       5 <- 19         0.00123
       5 <- 20        -0.00047
       5 <- 21         0.00076
       5 <- 24         0.00138
       5 <- 28         0.00069
       5 <- 32        -0.00099
       5 <- 36         0.00015
       5 <- 39         0.00011
       5 <- 41        -0.00075
       5 <- 46         0.00084
       5 <- 48         0.00014
       5 <- 51        -0.00030
       6 <- 12        -0.00030
       6 <- 15        -0.00084
       6 <- 18         0.00021
       6 <- 22         0.00079
       6 <- 25        -0.00013
       6 <- 30         0.00089
       6 <- 33        -0.00043
       6 <- 35        -0.00125
       6 <- 40         0.00083
       6 <- 49        -0.00097
       6 <- 50         0.00030
       7 <- 27         0.00027
       7 <- 38        -0.00071
       7 <- 45        -0.00156
       8 <- 10        -0.00073
       8 <- 11        -0.00124
       8 <- 14        -0.00364
       8 <- 16         0.00043
       8 <- 19         0.00466
       8 <- 20        -0.00061
       8 <- 21        -0.00200
       8 <- 24         0.00041
       8 <- 26        -0.00166
       8 <- 28         0.00044
       8 <- 32        -0.00118
       8 <- 34         0.00147
       8 <- 39        -0.00062
       8 <- 41        -0.00106
       8 <- 43         0.00017
       8 <- 46         0.00167
       8 <- 48         0.00028
       8 <- 51        -0.00067

 Excited State   4:      Singlet-A1     7.8870 eV  157.20 nm  f=0.0452  <S**2>=0.000
       3 -> 10         0.00206
       3 -> 11        -0.00063
       3 -> 14         0.00109
       3 -> 19        -0.00100
       3 -> 20         0.00211
       3 -> 21         0.00096
       3 -> 24        -0.00075
       3 -> 26         0.00125
       3 -> 28         0.00087
       3 -> 32         0.00011
       3 -> 34        -0.00074
       3 -> 36        -0.00017
       3 -> 41        -0.00020
       3 -> 46         0.00017
       3 -> 48         0.00031
       3 -> 51        -0.00017
       3 -> 54        -0.00018
       4 -> 10         0.00476
       4 -> 11         0.00494
       4 -> 14         0.00460
       4 -> 16         0.00056
       4 -> 19         0.00020
       4 -> 20         0.00342
       4 -> 24         0.00697
       4 -> 26         0.00200
       4 -> 28        -0.00033
       4 -> 32        -0.00063
       4 -> 34         0.00012
       4 -> 43         0.00016
       4 -> 46        -0.00020
       4 -> 51        -0.00014
       5 -> 12         0.00577
       5 -> 15         0.00290
       5 -> 18         0.00969
       5 -> 22        -0.00249
       5 -> 25         0.00541
       5 -> 30        -0.00026
       5 -> 33        -0.00018
       5 -> 35        -0.00074
       5 -> 50         0.00019
       5 -> 53        -0.00012
       6 -> 10         0.01138
       6 -> 11        -0.00234
       6 -> 14         0.00424
       6 -> 16         0.00028
       6 -> 19         0.00183
       6 -> 20         0.00302
       6 -> 21        -0.00040
       6 -> 24         0.00420
       6 -> 26        -0.00027
       6 -> 28        -0.00210
       6 -> 32        -0.00033
       6 -> 39         0.00017
       6 -> 43         0.00015
       6 -> 48        -0.00069
       6 -> 51         0.00019
       6 -> 54        -0.00011
       7 ->  9         0.02526
       7 -> 13         0.01151
       7 -> 17         0.00144
       7 -> 23         0.00518
       7 -> 29        -0.00075
       7 -> 31        -0.00095
       7 -> 37         0.00058
       7 -> 44         0.00063
       7 -> 47        -0.00033
       7 -> 52        -0.00011
       8 -> 12         0.70562
       8 -> 15        -0.00257
       8 -> 18         0.02991
       8 -> 22         0.00332
       8 -> 25         0.00434
       8 -> 30        -0.00041
       8 -> 33         0.00164
       8 -> 35         0.00197
       8 -> 40         0.00046
       8 -> 42         0.00013
       8 -> 49        -0.00046
       8 -> 50         0.00026
       8 -> 53        -0.00024
       3 <- 10         0.00064
       3 <- 11         0.00021
       3 <- 14         0.00057
       3 <- 16         0.00013
       3 <- 19        -0.00068
       3 <- 20         0.00094
       3 <- 21         0.00065
       3 <- 24        -0.00017
       3 <- 26         0.00084
       3 <- 28         0.00058
       3 <- 32         0.00023
       3 <- 34        -0.00051
       3 <- 36        -0.00012
       3 <- 41        -0.00012
       3 <- 46         0.00025
       3 <- 48         0.00025
       3 <- 51        -0.00014
       3 <- 54        -0.00016
       4 <- 10         0.00405
       4 <- 11         0.00103
       4 <- 14         0.00340
       4 <- 20         0.00198
       4 <- 21        -0.00021
       4 <- 24         0.00376
       4 <- 26         0.00123
       4 <- 32        -0.00080
       4 <- 34        -0.00028
       4 <- 39        -0.00011
       4 <- 41        -0.00011
       4 <- 43         0.00012
       4 <- 46        -0.00015
       4 <- 51        -0.00013
       5 <- 12         0.00270
       5 <- 15         0.00282
       5 <- 18         0.00342
       5 <- 22        -0.00093
       5 <- 25         0.00294
       5 <- 30        -0.00016
       5 <- 33        -0.00035
       5 <- 35        -0.00067
       5 <- 50         0.00011
       5 <- 53        -0.00011
       6 <- 10         0.00272
       6 <- 14         0.00160
       6 <- 19         0.00043
       6 <- 20         0.00137
       6 <- 21        -0.00039
       6 <- 24         0.00203
       6 <- 28        -0.00137
       6 <- 32        -0.00037
       6 <- 34        -0.00014
       6 <- 41         0.00011
       6 <- 46        -0.00015
       6 <- 48        -0.00057
       6 <- 51         0.00022
       6 <- 54        -0.00010
       7 <-  9        -0.00085
       7 <- 13         0.00240
       7 <- 17         0.00010
       7 <- 23         0.00260
       7 <- 29        -0.00059
       7 <- 31        -0.00064
       7 <- 37         0.00045
       7 <- 44         0.00053
       7 <- 47        -0.00028
       8 <- 12        -0.00058
       8 <- 15        -0.00459
       8 <- 18        -0.00167
       8 <- 22         0.00043
       8 <- 25        -0.00147
       8 <- 30        -0.00093
       8 <- 33         0.00064
       8 <- 35         0.00077
       8 <- 40         0.00050
       8 <- 42         0.00014
       8 <- 49        -0.00046
       8 <- 50         0.00017
       8 <- 53        -0.00025

 Excited State   5:      Singlet-A2     8.3998 eV  147.60 nm  f=0.0000  <S**2>=0.000
       3 -> 27        -0.00041
       3 -> 38        -0.00036
       3 -> 45        -0.00018
       4 -> 27         0.00017
       4 -> 38         0.00045
       5 ->  9        -0.00361
       5 -> 13        -0.00536
       5 -> 17         0.00665
       5 -> 23        -0.00216
       5 -> 29        -0.00020
       5 -> 31         0.00132
       5 -> 37        -0.00088
       5 -> 44        -0.00019
       6 -> 27         0.00023
       6 -> 38         0.00030
       6 -> 45        -0.00018
       7 -> 15        -0.00192
       7 -> 18         0.00203
       7 -> 22        -0.00072
       7 -> 35         0.00012
       8 ->  9         0.03976
       8 -> 13         0.70540
       8 -> 17         0.02160
       8 -> 23         0.01616
       8 -> 29         0.00022
       8 -> 31         0.00169
       8 -> 37        -0.00039
       8 -> 47         0.00017
       3 <- 27        -0.00011
       3 <- 38        -0.00022
       3 <- 45        -0.00025
       5 <-  9        -0.00038
       5 <- 13        -0.00032
       5 <- 17         0.00048
       5 <- 37        -0.00019
       6 <- 38         0.00018
       7 <- 12        -0.00056
       7 <- 15        -0.00106
       7 <- 18         0.00078
       7 <- 22        -0.00087
       7 <- 25        -0.00042
       7 <- 30         0.00023
       7 <- 33         0.00035
       7 <- 35         0.00055
       7 <- 40        -0.00034
       8 <-  9         0.00139
       8 <- 13         0.00122
       8 <- 17         0.00024
       8 <- 23        -0.00013
       8 <- 37         0.00011

 Excited State   6:      Singlet-B1     8.7222 eV  142.15 nm  f=0.0010  <S**2>=0.000
       3 ->  9        -0.03310
       3 -> 13         0.00558
       3 -> 17        -0.00722
       3 -> 23         0.00431
       3 -> 29        -0.00278
       3 -> 31        -0.00011
       3 -> 44         0.00069
       3 -> 52         0.00113
       4 ->  9         0.01698
       4 -> 13        -0.00279
       4 -> 17         0.00104
       4 -> 23        -0.00248
       4 -> 31        -0.00266
       4 -> 37        -0.00036
       4 -> 44        -0.00011
       4 -> 47        -0.00165
       4 -> 52        -0.00100
       5 -> 27        -0.00185
       5 -> 38         0.00219
       5 -> 45         0.00316
       6 ->  9         0.70471

 The electronic state is 1-A1.
 Alpha  occ. eigenvalues --  -19.15319 -10.28421  -1.05937  -0.65047  -0.50245
 Alpha  occ. eigenvalues --   -0.46054  -0.40412  -0.28397
 Alpha virt. eigenvalues --   -0.07294   0.00680   0.03844   0.04243   0.06409
 Alpha virt. eigenvalues --    0.12774   0.17457   0.18647   0.21953   0.23314
 Alpha virt. eigenvalues --    0.26525   0.32143   0.44695   0.45925   0.50923

 Mulliken charges:
               1
     1  C    0.010892
     2  H    0.120003
     3  H    0.120003
     4  O   -0.250899
 Sum of Mulliken charges =  -0.00000

 Dipole moment (field-independent basis, Debye):
    X=             -0.0000    Y=             -0.0000    Z=             -2.6288  Tot=              2.6288
 Quadrupole moment (field-independent basis, Debye-Ang):
   XX=            -11.8479   YY=            -11.7329   ZZ=            -12.3534
   XY=              0.0000   XZ=              0.0000   YZ=              0.0000

 Normal termination of Gaussian 16 at Fri Sep 17 10:52:45 2021.
