 Gaussian 16, Revision A.03,
 Gaussian 16:  ES64L-G16RevA.03 25-Dec-2016

 --------------------------------------------------------------------
 #p B3LYP/6-311+G** #p TD=(singlets,nstates=30)IOp(6/8=3) IOp(9/40=4)
 --------------------------------------------------------------------

 ------------------------------
 Scan Step 42, Bond Length 0.71
 ------------------------------
 Symbolic Z-matrix:
 Charge =  0 Multiplicity = 1

                         Standard orientation:
 ---------------------------------------------------------------------
 Center     Atomic      Atomic             Coordinates (Angstroms)
 Number     Number       Type             X           Y           Z
 ---------------------------------------------------------------------
      1          6           0        0.000000    0.000000   -0.281081
      2          1           0        0.000000    0.937260   -0.872431
      3          1           0       -0.000000   -0.937260   -0.872431
      4          8           0        0.000000   -0.000000    0.428919
 ---------------------------------------------------------------------

 SCF Done:  E(RB3LYP) =  -113.157062162     A.U. after   10 cycles

 Excitation energies and oscillator strengths:

 Excited State   1:      Singlet-B2     5.0054 eV  247.70 nm  f=0.1173  <S**2>=0.000
       3 -> 11         0.00075
       3 -> 16         0.00054
       3 -> 19         0.00078
       3 -> 23         0.00035
       3 -> 24        -0.00099
       3 -> 29        -0.00021
       3 -> 32        -0.00015
       3 -> 40         0.00018
       3 -> 43         0.00020
       3 -> 50        -0.00012
       3 -> 53         0.00014
       4 ->  9        -0.00290
       4 -> 12         0.00351
       4 -> 14         0.00376
       4 -> 15         0.00157
       4 -> 18         0.00306
       4 -> 20         0.00196
       4 -> 21         0.00182
       4 -> 25         0.00150
       4 -> 26        -0.00078
       4 -> 31         0.00169
       4 -> 33         0.00036
       4 -> 38        -0.00071
       4 -> 42        -0.00050
       4 -> 44        -0.00033
       4 -> 46        -0.00076
       4 -> 49         0.00021
       5 -> 28         0.00168
       5 -> 35         0.00073
       5 -> 45         0.00083
       6 -> 11        -0.00596
       6 -> 16         0.00305
       6 -> 19         0.00063
       6 -> 23        -0.00123
       6 -> 24        -0.00469
       6 -> 29        -0.00079
       6 -> 32        -0.00088
       6 -> 36         0.00040
       6 -> 43         0.00022
       6 -> 47         0.00027
       7 -> 11         0.00691
       7 -> 16         0.00371
       7 -> 19         0.00282
       7 -> 23        -0.00025
       7 -> 24        -0.00102
       7 -> 29         0.00090
       7 -> 32         0.00069
       7 -> 36        -0.00068
       7 -> 43        -0.00043
       7 -> 47         0.00044
       7 -> 50         0.00045
       7 -> 53        -0.00011
       8 ->  9         0.70555
       8 -> 12        -0.00017
       8 -> 14         0.04335
       8 -> 15        -0.00765
       8 -> 18        -0.02179
       8 -> 20         0.00567
       8 -> 21         0.00988
       8 -> 25        -0.00024
       8 -> 26        -0.00017
       8 -> 30         0.00259
       8 -> 31        -0.00249
       8 -> 33        -0.00112
       8 -> 38        -0.00111
       8 -> 39         0.00020
       8 -> 42        -0.00072
       8 -> 44         0.00027
       8 -> 46         0.00083
       8 -> 49        -0.00030
       8 -> 51         0.00012
       3 <- 11         0.00030
       3 <- 16         0.00021
       3 <- 19         0.00051
       3 <- 23         0.00027
       3 <- 24        -0.00075
       3 <- 29        -0.00018
       3 <- 32        -0.00017
       3 <- 40         0.00018
       3 <- 43         0.00019
       3 <- 53         0.00015
       4 <-  9        -0.00141
       4 <- 12        -0.00023
       4 <- 14         0.00308
       4 <- 15         0.00185
       4 <- 18         0.00067
       4 <- 20         0.00107
       4 <- 21         0.00137
       4 <- 25         0.00133
       4 <- 26        -0.00130
       4 <- 30        -0.00020
       4 <- 31         0.00069
       4 <- 33         0.00026
       4 <- 38        -0.00045
       4 <- 39         0.00016
       4 <- 42        -0.00042
       4 <- 44        -0.00026
       4 <- 46        -0.00068
       4 <- 49         0.00014
       5 <- 28         0.00138
       5 <- 35         0.00059
       5 <- 45         0.00070
       6 <- 11        -0.00082
       6 <- 16         0.00280
       6 <- 19         0.00113
       6 <- 23        -0.00040
       6 <- 24        -0.00347
       6 <- 29        -0.00039
       6 <- 32        -0.00074
       6 <- 36         0.00039
       6 <- 43         0.00013
       6 <- 47         0.00024
       6 <- 50         0.00013
       7 <- 11         0.00139
       7 <- 16         0.00177
       7 <- 19         0.00024
       7 <- 24        -0.00015
       7 <- 29         0.00143
       7 <- 32         0.00053
       7 <- 36        -0.00039
       7 <- 43        -0.00030
       7 <- 47         0.00045
       7 <- 50         0.00051
       8 <-  9        -0.00747
       8 <- 12        -0.00477
       8 <- 14         0.01874
       8 <- 15         0.00548
       8 <- 18         0.00147
       8 <- 20         0.00034
       8 <- 21         0.00501
       8 <- 25         0.00314
       8 <- 26         0.00023
       8 <- 30         0.00170
       8 <- 31        -0.00155
       8 <- 33        -0.00143
       8 <- 38        -0.00107
       8 <- 39         0.00016
       8 <- 42        -0.00059
       8 <- 46         0.00070
       8 <- 49        -0.00022
 This state for optimization and/or second-order correction.
 Total Energy, E(TD-HF/TD-DFT) =  -112.973118527
 Copying the excited state density for this state as the 1-particle RhoCI density.

 Excited State   2:      Singlet-A2     5.2888 eV  234.43 nm  f=0.0000  <S**2>=0.000
       3 -> 28        -0.00194
       3 -> 35        -0.00127
       3 -> 45        -0.00049
       4 -> 10        -0.00113
       4 -> 13        -0.00188
       4 -> 17        -0.00414
       4 -> 22         0.00203
       4 -> 27        -0.00231
       4 -> 34        -0.00015
       4 -> 37        -0.00173
       4 -> 41        -0.00020
       4 -> 48        -0.00013
       4 -> 52        -0.00033
       5 -> 11         0.00033
       5 -> 19         0.00037
       5 -> 23        -0.00104
       5 -> 24        -0.00019
       5 -> 29        -0.00015
       5 -> 32        -0.00013
       5 -> 36        -0.00035
       5 -> 43        -0.00040
       5 -> 47        -0.00040
       5 -> 50         0.00019
       5 -> 53        -0.00011
       6 -> 28        -0.00350
       6 -> 35         0.00050
       6 -> 45         0.00011
       7 -> 28         0.00090
       7 -> 35        -0.00024
       7 -> 45        -0.00054
       8 -> 10         0.70547
       8 -> 13         0.03908
       8 -> 17         0.02874
       8 -> 22         0.00218
       8 -> 27         0.00211
       8 -> 34         0.00317
       8 -> 37        -0.00205
       8 -> 41         0.00016
       8 -> 48         0.00013
       8 -> 52         0.00043
       3 <- 28        -0.00157
       3 <- 35        -0.00110
       3 <- 45        -0.00047
       4 <- 10        -0.00017
       4 <- 13        -0.00082
       4 <- 17        -0.00069
       4 <- 27        -0.00031
       4 <- 34         0.00080
       4 <- 37        -0.00092
       4 <- 41        -0.00027
       5 <- 11         0.00067
       5 <- 16        -0.00064
       5 <- 19         0.00173
       5 <- 23        -0.00167
       5 <- 24        -0.00134
       5 <- 29        -0.00136
       5 <- 32         0.00029
       5 <- 36        -0.00087
       5 <- 43        -0.00047
       5 <- 47        -0.00038
       5 <- 53        -0.00030
       6 <- 28        -0.00346
       6 <- 35         0.00064
       6 <- 45         0.00011
       7 <- 28         0.00100
       7 <- 35        -0.00028
       7 <- 45        -0.00052
       8 <- 10         0.00047
       8 <- 13        -0.00614
       8 <- 17        -0.00569
       8 <- 22         0.00020
       8 <- 27        -0.00046
       8 <- 34         0.00304
       8 <- 37        -0.00166
       8 <- 41         0.00015
       8 <- 52         0.00014

 Excited State   3:      Singlet-B2     5.9020 eV  210.07 nm  f=0.0318  <S**2>=0.000
       3 -> 11        -0.00012
       3 -> 16         0.00049
       3 -> 19        -0.00025
       3 -> 23         0.00028
       3 -> 24        -0.00038
       3 -> 29         0.00049
       3 -> 32         0.00013
       3 -> 36        -0.00023
       3 -> 43        -0.00023
       3 -> 47         0.00016
       3 -> 50         0.00013
       3 -> 53        -0.00016
       4 ->  9         0.00225
       4 -> 12         0.00035
       4 -> 14         0.00146
       4 -> 15         0.00281
       4 -> 18        -0.00165
       4 -> 20        -0.00039
       4 -> 21         0.00131
       4 -> 25         0.00083
       4 -> 26         0.00072
       4 -> 30         0.00206
       4 -> 31        -0.00100
       4 -> 33        -0.00012
       4 -> 38         0.00019
       4 -> 39        -0.00096
       4 -> 42         0.00035
       4 -> 46         0.00056
       4 -> 49        -0.00014
       5 -> 28        -0.00098
       5 -> 35        -0.00126
       5 -> 45        -0.00075
       6 -> 16         0.00433
       6 -> 19        -0.00125
       6 -> 23        -0.00020
       6 -> 24        -0.00267
       6 -> 29        -0.00180
       6 -> 32         0.00045
       6 -> 36         0.00052
       6 -> 40        -0.00041
       6 -> 43         0.00028
       6 -> 47        -0.00021
       6 -> 50        -0.00019
       6 -> 53         0.00010
       7 -> 11        -0.00256
       7 -> 16        -0.00347
       7 -> 19        -0.00167
       7 -> 23         0.00094
       7 -> 24         0.00273
       7 -> 29         0.00061
       7 -> 32        -0.00039
       7 -> 36         0.00071
       7 -> 40        -0.00014
       7 -> 43         0.00027
       7 -> 47        -0.00062
       7 -> 50        -0.00037
       7 -> 53         0.00016
       8 ->  9        -0.00078
       8 -> 12         0.70582
       8 -> 14         0.02841
       8 -> 15         0.02691
       8 -> 18         0.00993
       8 -> 20         0.01581
       8 -> 21         0.00507
       8 -> 25        -0.00083
       8 -> 26         0.00157
       8 -> 30         0.00242
       8 -> 31         0.00016
       8 -> 33        -0.00029
       8 -> 38        -0.00022
       8 -> 39         0.00137
       8 -> 42        -0.00088
       8 -> 46        -0.00052
       8 -> 49         0.00016
       8 -> 54        -0.00015
       3 <- 16         0.00049
       3 <- 23         0.00012
       3 <- 24        -0.00043
       3 <- 29         0.00031
       3 <- 32         0.00013
       3 <- 36        -0.00024
       3 <- 43        -0.00021
       3 <- 47         0.00012
       3 <- 53        -0.00022
       4 <-  9        -0.00126
       4 <- 12        -0.00011
       4 <- 14         0.00140
       4 <- 15         0.00070
       4 <- 18         0.00063
       4 <- 20        -0.00043
       4 <- 21         0.00089
       4 <- 25         0.00096
       4 <- 26         0.00074
       4 <- 30         0.00141
       4 <- 31        -0.00027
       4 <- 33        -0.00063
       4 <- 38         0.00013
       4 <- 39        -0.00072
       4 <- 42         0.00036
       4 <- 46         0.00053
       5 <- 28        -0.00057
       5 <- 35        -0.00108
       5 <- 45        -0.00066
       6 <- 11        -0.00030
       6 <- 16         0.00096
       6 <- 19         0.00054
       6 <- 23        -0.00074
       6 <- 24        -0.00189
       6 <- 29        -0.00122
       6 <- 32         0.00060
       6 <- 36         0.00056
       6 <- 40        -0.00037
       6 <- 43         0.00018
       6 <- 47        -0.00018
       6 <- 50        -0.00011
       7 <- 11        -0.00020
       7 <- 16        -0.00120
       7 <- 19        -0.00053
       7 <- 23         0.00049
       7 <- 24         0.00139
       7 <- 32        -0.00027
       7 <- 36         0.00034
       7 <- 43         0.00019
       7 <- 47        -0.00054
       7 <- 50        -0.00044
       8 <-  9        -0.00439
       8 <- 12         0.00124
       8 <- 14         0.01024
       8 <- 15         0.00377
       8 <- 18        -0.00121
       8 <- 20        -0.00287
       8 <- 21         0.00329
       8 <- 25         0.00065
       8 <- 26        -0.00019
       8 <- 30         0.00213
       8 <- 39         0.00116
       8 <- 42        -0.00076
       8 <- 46        -0.00043

 Excited State   4:      Singlet-A1     6.0582 eV  204.65 nm  f=0.0144  <S**2>=0.000
       3 ->  9         0.00122
       3 -> 12        -0.00054
       3 -> 14         0.00017
       3 -> 15        -0.00066
       3 -> 18        -0.00143
       3 -> 21         0.00069
       3 -> 25        -0.00052
       3 -> 26        -0.00025
       3 -> 30        -0.00082
       3 -> 31        -0.00059
       3 -> 33         0.00035
       3 -> 38         0.00032
       3 -> 39         0.00032
       3 -> 46        -0.00012
       3 -> 51         0.00020
       3 -> 54        -0.00015
       4 -> 11        -0.00638
       4 -> 16        -0.00694
       4 -> 19        -0.00466
       4 -> 23        -0.00217
       4 -> 24         0.00334
       4 -> 29        -0.00049
       4 -> 36        -0.00104
       4 -> 43         0.00027
       4 -> 50         0.00024
       5 -> 10        -0.00411
       5 -> 13         0.00311
       5 -> 17        -0.00363
       5 -> 22        -0.00338
       5 -> 27        -0.00101
       5 -> 34        -0.00092
       5 -> 37        -0.00058
       5 -> 41        -0.00018
       5 -> 48         0.00027
       6 ->  9         0.01039
       6 -> 12         0.00792
       6 -> 14        -0.00490
       6 -> 15        -0.00419
       6 -> 18        -0.00597
       6 -> 20         0.00575
       6 -> 21         0.00053
       6 -> 25        -0.00623
       6 -> 26         0.00104
       6 -> 30         0.00040
       6 -> 31         0.00137
       6 -> 33         0.00182
       6 -> 38         0.00106
       6 -> 39        -0.00122
       6 -> 42         0.00010
       6 -> 44         0.00053
       6 -> 49         0.00046
       7 ->  9         0.00854
       7 -> 12        -0.01083
       7 -> 14         0.00099
       7 -> 15         0.00366
       7 -> 18        -0.00767
       7 -> 20        -0.00270
       7 -> 25         0.00118
       7 -> 26        -0.00218
       7 -> 30         0.00028
       7 -> 31        -0.00163
       7 -> 33         0.00037
       7 -> 38        -0.00033
       7 -> 39         0.00037
       7 -> 44        -0.00024
       7 -> 51        -0.00019
       8 -> 11         0.70490
       8 -> 16         0.05039
       8 -> 19        -0.01718
       8 -> 24        -0.00507
       8 -> 29         0.00411
       8 -> 32         0.00184
       8 -> 36        -0.00310
       8 -> 40         0.00031
       8 -> 43         0.00178
       8 -> 47        -0.00078
       8 -> 50         0.00014
       3 <-  9         0.00063
       3 <- 12        -0.00026
       3 <- 14         0.00012
       3 <- 15        -0.00040
       3 <- 18        -0.00090
       3 <- 21         0.00042
       3 <- 25        -0.00042
       3 <- 26        -0.00021
       3 <- 30        -0.00059
       3 <- 31        -0.00036
       3 <- 33         0.00031
       3 <- 38         0.00024
       3 <- 39         0.00027
       3 <- 46        -0.00016
       3 <- 51         0.00017
       3 <- 54        -0.00014
       4 <- 11        -0.00249
       4 <- 16        -0.00273
       4 <- 19        -0.00260
       4 <- 23        -0.00159
       4 <- 24         0.00179
       4 <- 29        -0.00024
       4 <- 32         0.00018
       4 <- 36        -0.00087
       4 <- 43         0.00025
       4 <- 50         0.00021
       5 <- 10        -0.00212
       5 <- 13         0.00167
       5 <- 17        -0.00210
       5 <- 22        -0.00228
       5 <- 27        -0.00072
       5 <- 34        -0.00074
       5 <- 37        -0.00049
       5 <- 41        -0.00016
       5 <- 48         0.00024
       6 <-  9         0.00792
       6 <- 12         0.00373
       6 <- 14        -0.00383
       6 <- 15        -0.00347
       6 <- 18        -0.00328
       6 <- 20         0.00325
       6 <- 21         0.00119
       6 <- 25        -0.00411
       6 <- 26         0.00060
       6 <- 30        -0.00013
       6 <- 31         0.00107
       6 <- 33         0.00131
       6 <- 38         0.00109
       6 <- 39        -0.00096
       6 <- 44         0.00054
       6 <- 49         0.00038
       7 <-  9         0.00128
       7 <- 12        -0.00419
       7 <- 14         0.00132
       7 <- 15         0.00254
       7 <- 18        -0.00358
       7 <- 20        -0.00127
       7 <- 21        -0.00027
       7 <- 25         0.00081
       7 <- 26        -0.00136
       7 <- 30         0.00036
       7 <- 31        -0.00127
       7 <- 33         0.00025
       7 <- 38        -0.00030
       7 <- 39         0.00018
       7 <- 44        -0.00025
       7 <- 46         0.00010
       7 <- 51        -0.00018
       8 <- 11        -0.00792
       8 <- 16         0.00493
       8 <- 19        -0.01469
       8 <- 23        -0.00357
       8 <- 24        -0.00129
       8 <- 29         0.00276
       8 <- 32         0.00162
       8 <- 36        -0.00242
       8 <- 43         0.00143
       8 <- 47        -0.00078
       8 <- 50         0.00014

 Excited State   5:      Singlet-A2     7.9755 eV  155.46 nm  f=0.0000  <S**2>=0.000
       3 -> 28        -0.00267
       3 -> 35        -0.00185
       3 -> 45        -0.00068
       4 -> 10        -0.00158
       4 -> 13        -0.00869
       4 -> 17        -0.00123
       4 -> 22         0.00349
       4 -> 27        -0.00077
       4 -> 34        -0.00135
       4 -> 37        -0.00292
       4 -> 41        -0.00011
       4 -> 52        -0.00042
       5 -> 16         0.00085
       5 -> 19         0.00044
       5 -> 23        -0.00161
       5 -> 24        -0.00056
       5 -> 29         0.00014
       5 -> 32        -0.00011
       5 -> 36        -0.00049
       5 -> 43        -0.00063
       5 -> 47        -0.00052
       5 -> 50         0.00012
       5 -> 53        -0.00017
       6 -> 28        -0.00293
       6 -> 35         0.00076
       7 -> 28         0.00074
       7 -> 35        -0.00036
       7 -> 45        -0.00069
       8 -> 10        -0.04086
       8 -> 13         0.70396
       8 -> 17         0.04754
       8 -> 22        -0.02178
       8 -> 27         0.00297
       8 -> 34         0.00274
       8 -> 37        -0.00277
       8 -> 52         0.00047
       3 <- 28        -0.00182
       3 <- 35        -0.00152
       3 <- 45        -0.00075
       4 <- 10        -0.00033
       4 <- 13        -0.00082
       4 <- 17        -0.00030
       4 <- 22         0.00014
       4 <- 27        -0.00018
       4 <- 34         0.00065
       4 <- 37        -0.00110
       4 <- 41        -0.00034
       4 <- 52        -0.00014
       5 <- 11        -0.00031
       5 <- 16         0.00030
       5 <- 19         0.00077
       5 <- 23        -0.00225
       5 <- 24        -0.00164
       5 <- 29        -0.00043
       5 <- 32         0.00067
       5 <- 36        -0.00136
       5 <- 43        -0.00081
       5 <- 47        -0.00023
       5 <- 53        -0.00037
       6 <- 28        -0.00321
       6 <- 35         0.00050
       6 <- 45         0.00013
       7 <- 28         0.00081
       7 <- 45        -0.00044
       8 <- 10        -0.00617
       8 <- 13        -0.00406
       8 <- 17        -0.00356
       8 <- 22         0.00075
       8 <- 27        -0.00047
       8 <- 34         0.00294
       8 <- 37        -0.00173
       8 <- 41         0.00018
       8 <- 52         0.00019

 Excited State   6:      Singlet-B2     9.1442 eV  135.59 nm  f=0.0901  <S**2>=0.000
       3 -> 11         0.00039

 The electronic state is 1-A1.
 Alpha  occ. eigenvalues --  -19.17405 -10.28598  -1.32757  -0.74968  -0.71649
 Alpha  occ. eigenvalues --   -0.57800  -0.54893  -0.21019
 Alpha virt. eigenvalues --    0.00988   0.02812   0.04435   0.04625   0.13771
 Alpha virt. eigenvalues --    0.14424   0.17703   0.18913   0.21676   0.23946
 Alpha virt. eigenvalues --    0.26353   0.36560   0.50674   0.56923   0.57014

 Mulliken charges:
               1
     1  C    0.335237
     2  H   -0.081949
     3  H   -0.081949
     4  O   -0.171338
 Sum of Mulliken charges =  -0.00000

 Dipole moment (field-independent basis, Debye):
    X=              0.0000    Y=              0.0000    Z=              0.8705  Tot=              0.8705
 Quadrupole moment (field-independent basis, Debye-Ang):
   XX=            -10.3082   YY=            -13.3710   ZZ=            -13.5820
   XY=             -0.0000   XZ=             -0.0000   YZ=             -0.0000

 Normal termination of Gaussian 16 at Fri Sep 17 10:52:23 2021.
