 Gaussian 16, Revision A.03,
 Gaussian 16:  ES64L-G16RevA.03 25-Dec-2016

 --------------------------------------------------------------------
 #p B3LYP/6-311+G** #p TD=(singlets,nstates=30)IOp(6/8=3) IOp(9/40=4)
 --------------------------------------------------------------------

 ------------------------------
 Scan Step 120, Bond Length 1.1
 ------------------------------
 Symbolic Z-matrix:
 Charge =  0 Multiplicity = 1

                         Standard orientation:
 ---------------------------------------------------------------------
 Center     Atomic      Atomic             Coordinates (Angstroms)
 Number     Number       Type             X           Y           Z
 ---------------------------------------------------------------------
      1          6           0        0.000000    0.000000   -0.476081
      2          1           0        0.000000    0.937260   -1.067431
      3          1           0       -0.000000   -0.937260   -1.067431
      4          8           0        0.000000   -0.000000    0.623919
 ---------------------------------------------------------------------

 SCF Done:  E(RB3LYP) =  -114.521386064     A.U. after    9 cycles

 Excitation energies and oscillator strengths:

 Excited State   1:      Singlet-A2     4.5598 eV  271.91 nm  f=0.0000  <S**2>=0.000
       3 -> 27         0.00281
       3 -> 38         0.00238
       3 -> 45         0.00209
       4 -> 27         0.00247
       4 -> 38        -0.00069
       4 -> 45        -0.00113
       5 ->  9         0.02044
       5 -> 13        -0.00606
       5 -> 17         0.00609
       5 -> 23        -0.00159
       5 -> 29         0.00404
       5 -> 31         0.00288
       5 -> 36         0.00390
       5 -> 44         0.00068
       5 -> 47         0.00013
       5 -> 52         0.00085
       6 -> 27         0.00027
       6 -> 38        -0.00071
       6 -> 45         0.00171
       7 -> 12        -0.00062
       7 -> 16         0.00214
       7 -> 18        -0.00218
       7 -> 22         0.00127
       7 -> 24         0.00131
       7 -> 30        -0.00078
       7 -> 34         0.00039
       7 -> 35         0.00042
       7 -> 40        -0.00038
       7 -> 48         0.00054
       7 -> 51         0.00023
       7 -> 53         0.00043
       8 ->  9         0.70335
       8 -> 13        -0.06669
       8 -> 17         0.02444
       8 -> 23        -0.01170
       8 -> 29         0.00765
       8 -> 31         0.00334
       8 -> 36        -0.00092
       8 -> 44        -0.00021
       8 -> 47        -0.00020
       8 -> 52         0.00147
       3 <- 27         0.00192
       3 <- 38         0.00201
       3 <- 45         0.00218
       4 <- 27         0.00328
       4 <- 38        -0.00012
       4 <- 45        -0.00100
       5 <- 13        -0.00091
       5 <- 17        -0.00079
       5 <- 23         0.00054
       5 <- 29        -0.00051
       5 <- 31        -0.00106
       5 <- 36         0.00178
       5 <- 44         0.00034
       5 <- 47         0.00017
       5 <- 52         0.00022
       6 <- 27         0.00074
       6 <- 38        -0.00066
       6 <- 45         0.00133
       7 <- 12        -0.00094
       7 <- 16        -0.00588
       7 <- 18        -0.00087
       7 <- 22         0.00682
       7 <- 24        -0.00059
       7 <- 30         0.00266
       7 <- 34        -0.00132
       7 <- 35         0.00254
       7 <- 40        -0.00101
       7 <- 42         0.00032
       7 <- 48         0.00037
       7 <- 51         0.00010
       7 <- 53         0.00114
       8 <-  9        -0.01901
       8 <- 13         0.00457
       8 <- 17        -0.00392
       8 <- 23         0.00076
       8 <- 29        -0.00062
       8 <- 31         0.00146
       8 <- 36        -0.00187
       8 <- 52         0.00043
 This state for optimization and/or second-order correction.
 Total Energy, E(TD-HF/TD-DFT) =  -114.353818111
 Copying the excited state density for this state as the 1-particle RhoCI density.

 Excited State   2:      Singlet-B2     6.6605 eV  186.15 nm  f=0.0478  <S**2>=0.000
       3 -> 12         0.00127
       3 -> 16         0.00065
       3 -> 18         0.00111
       3 -> 22        -0.00026
       3 -> 24         0.00131
       3 -> 30        -0.00012
       3 -> 34         0.00011
       3 -> 35        -0.00028
       4 -> 12        -0.00415
       4 -> 16         0.00126
       4 -> 18         0.00232
       4 -> 22        -0.00334
       4 -> 24         0.00372
       4 -> 34        -0.00073
       4 -> 35         0.00078
       4 -> 40        -0.00050
       5 -> 10        -0.00370
       5 -> 11        -0.00930
       5 -> 14         0.00684
       5 -> 15        -0.00118
       5 -> 19         0.00248
       5 -> 20         0.00054
       5 -> 21         0.00493
       5 -> 25         0.00011
       5 -> 26         0.00253
       5 -> 28         0.00197
       5 -> 33        -0.00096
       5 -> 37        -0.00034
       5 -> 39        -0.00030
       5 -> 41        -0.00013
       5 -> 43        -0.00056
       5 -> 46        -0.00050
       5 -> 49         0.00014
       6 -> 12         0.00100
       6 -> 16         0.00120
       6 -> 18         0.00331
       6 -> 22        -0.00271
       6 -> 24         0.00158
       6 -> 30        -0.00037
       6 -> 34        -0.00015
       6 -> 35         0.00013
       6 -> 40         0.00021
       6 -> 42        -0.00026
       6 -> 48         0.00040
       6 -> 51        -0.00047
       7 -> 27         0.00041
       7 -> 38        -0.00034
       7 -> 45         0.00065
       8 -> 10         0.70450
       8 -> 11        -0.05514
       8 -> 14         0.00417
       8 -> 15        -0.00882
       8 -> 19         0.01650
       8 -> 20         0.01121
       8 -> 21        -0.00453
       8 -> 25         0.00067
       8 -> 26         0.00159
       8 -> 28         0.00058
       8 -> 32         0.00016
       8 -> 33         0.00221
       8 -> 37         0.00050
       8 -> 39         0.00049
       8 -> 41        -0.00015
       8 -> 43         0.00068
       8 -> 46        -0.00082
       8 -> 54         0.00017
       3 <- 12         0.00034
       3 <- 16         0.00052
       3 <- 18         0.00046
       3 <- 22        -0.00036
       3 <- 24         0.00083
       3 <- 30        -0.00011
       3 <- 35        -0.00027
       4 <- 12         0.00060
       4 <- 16         0.00162
       4 <- 18         0.00237
       4 <- 22        -0.00203
       4 <- 24         0.00263
       4 <- 34        -0.00049
       4 <- 35         0.00051
       4 <- 40        -0.00021
       4 <- 42        -0.00018
       4 <- 48        -0.00011
       5 <- 10         0.00245
       5 <- 11        -0.00021
       5 <- 14         0.00495
       5 <- 15        -0.00108
       5 <- 19         0.00058
       5 <- 20         0.00044
       5 <- 21         0.00230
       5 <- 25         0.00169
       5 <- 26         0.00156
       5 <- 28         0.00051
       5 <- 32        -0.00016
       5 <- 33        -0.00094
       5 <- 37        -0.00036
       5 <- 39        -0.00017
       5 <- 43        -0.00040
       5 <- 46        -0.00043
       5 <- 49         0.00014
       6 <- 12         0.00031
       6 <- 16        -0.00016
       6 <- 18         0.00158
       6 <- 22        -0.00093
       6 <- 24         0.00059
       6 <- 30         0.00036
       6 <- 34        -0.00022
       6 <- 35         0.00030
       6 <- 40         0.00019
       6 <- 42        -0.00025
       6 <- 48         0.00033
       6 <- 51        -0.00048
       6 <- 53         0.00011
       7 <- 27         0.00032
       7 <- 38        -0.00026
       7 <- 45         0.00056
       8 <- 10        -0.00249
       8 <- 11        -0.00069
       8 <- 14        -0.00765
       8 <- 19        -0.00042
       8 <- 20        -0.00041
       8 <- 21        -0.00280
       8 <- 25        -0.00274
       8 <- 26        -0.00014
       8 <- 28        -0.00070
       8 <- 32        -0.00059
       8 <- 33         0.00133
       8 <- 37         0.00049
       8 <- 39         0.00040
       8 <- 43         0.00051
       8 <- 46        -0.00056
       8 <- 50        -0.00014

 Excited State   3:      Singlet-B2     7.4558 eV  166.29 nm  f=0.0220  <S**2>=0.000
       3 -> 12        -0.00023
       3 -> 16        -0.00067
       3 -> 18         0.00061
       3 -> 22         0.00029
       3 -> 24         0.00028
       3 -> 30         0.00165
       3 -> 34         0.00013
       3 -> 35        -0.00036
       3 -> 40         0.00034
       3 -> 42        -0.00015
       3 -> 48         0.00030
       3 -> 51        -0.00027
       4 -> 12         0.00306
       4 -> 16        -0.00070
       4 -> 18         0.00312
       4 -> 22        -0.00154
       4 -> 24         0.00325
       4 -> 30        -0.00109
       4 -> 34         0.00053
       4 -> 35        -0.00044
       4 -> 42        -0.00018
       4 -> 48         0.00020
       4 -> 51        -0.00014
       5 -> 10        -0.00761
       5 -> 11         0.00025
       5 -> 14         0.00642
       5 -> 15        -0.00678
       5 -> 19        -0.00363
       5 -> 20        -0.00327
       5 -> 21         0.00101
       5 -> 25         0.00141
       5 -> 26        -0.00027
       5 -> 28         0.00151
       5 -> 32        -0.00064
       5 -> 33        -0.00147
       5 -> 37        -0.00012
       5 -> 39         0.00044
       5 -> 41        -0.00084
       5 -> 46         0.00081
       5 -> 49        -0.00015
       5 -> 50         0.00042
       6 -> 12        -0.00324
       6 -> 16        -0.00189
       6 -> 18        -0.00134
       6 -> 22         0.00145
       6 -> 30         0.00065
       6 -> 34        -0.00046
       6 -> 35         0.00146
       6 -> 40        -0.00093
       6 -> 42         0.00019
       6 -> 48        -0.00086
       6 -> 51         0.00065
       6 -> 53         0.00012
       7 -> 27        -0.00036
       7 -> 38        -0.00110
       7 -> 45        -0.00150
       8 -> 10         0.05575
       8 -> 11         0.70398
       8 -> 14        -0.01071
       8 -> 15         0.01536
       8 -> 19        -0.02528
       8 -> 20         0.01129
       8 -> 21        -0.00220
       8 -> 25         0.00056
       8 -> 26        -0.00160
       8 -> 28        -0.00039
       8 -> 32        -0.00038
       8 -> 41        -0.00137
       8 -> 43         0.00016
       8 -> 46         0.00139
       8 -> 49        -0.00035
       8 -> 50         0.00080
       8 -> 54        -0.00016
       3 <- 12         0.00033
       3 <- 16        -0.00025
       3 <- 18         0.00079
       3 <- 24         0.00039
       3 <- 30         0.00099
       3 <- 34         0.00022
       3 <- 35        -0.00042
       3 <- 40         0.00030
       3 <- 42        -0.00013
       3 <- 48         0.00024
       3 <- 51        -0.00017
       3 <- 53        -0.00024
       4 <- 12         0.00036
       4 <- 16         0.00055
       4 <- 18         0.00086
       4 <- 22        -0.00118
       4 <- 24         0.00134
       4 <- 30        -0.00048
       4 <- 34         0.00049
       4 <- 42        -0.00020
       4 <- 48         0.00014
       4 <- 51        -0.00019
       5 <- 10         0.00130
       5 <- 11        -0.00089
       5 <- 14         0.00231
       5 <- 15        -0.00045
       5 <- 19         0.00082
       5 <- 20        -0.00023
       5 <- 21         0.00085
       5 <- 25         0.00118
       5 <- 26        -0.00046
       5 <- 28         0.00077
       5 <- 32         0.00073
       5 <- 33        -0.00097
       5 <- 37         0.00017
       5 <- 39         0.00018
       5 <- 41        -0.00086
       5 <- 46         0.00075
       5 <- 50         0.00036
       6 <- 12        -0.00034
       6 <- 16        -0.00033
       6 <- 18        -0.00014
       6 <- 22         0.00052
       6 <- 30         0.00030
       6 <- 34        -0.00027
       6 <- 35         0.00111
       6 <- 40        -0.00068
       6 <- 42         0.00013
       6 <- 48        -0.00071
       6 <- 51         0.00054
       7 <- 38        -0.00089
       7 <- 45        -0.00127
       8 <- 10        -0.00078
       8 <- 14        -0.00420
       8 <- 15         0.00058
       8 <- 19         0.00317
       8 <- 20        -0.00135
       8 <- 21        -0.00210
       8 <- 25         0.00014
       8 <- 26        -0.00162
       8 <- 28        -0.00027
       8 <- 32         0.00129
       8 <- 33         0.00054
       8 <- 37        -0.00013
       8 <- 39        -0.00032
       8 <- 41        -0.00117
       8 <- 46         0.00111
       8 <- 49        -0.00015
       8 <- 50         0.00059

 Excited State   4:      Singlet-A1     7.6116 eV  162.89 nm  f=0.0538  <S**2>=0.000
       3 -> 10         0.00170
       3 -> 11        -0.00100
       3 -> 14         0.00061
       3 -> 15        -0.00031
       3 -> 19         0.00071
       3 -> 20         0.00127
       3 -> 21         0.00045
       3 -> 25        -0.00035
       3 -> 26         0.00092
       3 -> 28         0.00115
       3 -> 32        -0.00025
       3 -> 33        -0.00043
       3 -> 37        -0.00028
       3 -> 39         0.00011
       3 -> 41        -0.00021
       3 -> 49         0.00014
       3 -> 50         0.00035
       3 -> 54        -0.00021
       4 -> 10         0.00522
       4 -> 11         0.00736
       4 -> 14         0.00552
       4 -> 19         0.00043
       4 -> 20         0.00511
       4 -> 21         0.00197
       4 -> 25         0.00719
       4 -> 26         0.00112
       4 -> 28        -0.00046
       4 -> 32         0.00042
       4 -> 33        -0.00060
       4 -> 39        -0.00023
       4 -> 41         0.00017
       4 -> 43         0.00015
       4 -> 46        -0.00023
       4 -> 49        -0.00015
       4 -> 50         0.00012
       5 -> 12         0.00729
       5 -> 16         0.00059
       5 -> 18         0.01147
       5 -> 22        -0.00146
       5 -> 24         0.00518
       5 -> 34        -0.00015
       5 -> 35         0.00081
       5 -> 51         0.00031
       5 -> 53        -0.00015
       6 -> 10         0.01311
       6 -> 11        -0.00365
       6 -> 14         0.00431
       6 -> 15         0.00145
       6 -> 19         0.00411
       6 -> 20         0.00449
       6 -> 21         0.00164
       6 -> 25         0.00275
       6 -> 26         0.00041
       6 -> 28        -0.00129
       6 -> 32         0.00062
       6 -> 33        -0.00030
       6 -> 43         0.00012
       6 -> 49        -0.00048
       6 -> 50        -0.00042
       7 ->  9         0.01334
       7 -> 13         0.00845
       7 -> 17         0.00400
       7 -> 23         0.00517
       7 -> 29        -0.00018
       7 -> 31         0.00085
       7 -> 36         0.00056
       7 -> 44         0.00065
       7 -> 47        -0.00035
       7 -> 52        -0.00011
       8 -> 12         0.70574
       8 -> 16        -0.01754
       8 -> 18         0.02901
       8 -> 22         0.00513
       8 -> 24         0.00262
       8 -> 30         0.00115
       8 -> 34         0.00152
       8 -> 35        -0.00209
       8 -> 40        -0.00073
       8 -> 42         0.00045
       8 -> 48        -0.00037
       8 -> 51         0.00030
       8 -> 53        -0.00021
       3 <- 10         0.00059
       3 <- 11        -0.00016
       3 <- 14         0.00036
       3 <- 19         0.00026
       3 <- 20         0.00058
       3 <- 21         0.00038
       3 <- 26         0.00054
       3 <- 28         0.00074
       3 <- 32        -0.00026
       3 <- 33        -0.00024
       3 <- 37        -0.00022
       3 <- 41        -0.00016
       3 <- 46         0.00019
       3 <- 49         0.00010
       3 <- 50         0.00031
       3 <- 54        -0.00019
       4 <- 10         0.00475
       4 <- 11         0.00196
       4 <- 14         0.00405
       4 <- 15        -0.00048
       4 <- 19         0.00029
       4 <- 20         0.00290
       4 <- 21         0.00079
       4 <- 25         0.00402
       4 <- 26         0.00070
       4 <- 32         0.00029
       4 <- 33        -0.00095
       4 <- 39        -0.00028
       4 <- 46        -0.00021
       4 <- 49        -0.00013
       4 <- 50         0.00012
       5 <- 12         0.00277
       5 <- 16         0.00187
       5 <- 18         0.00412
       5 <- 22        -0.00040
       5 <- 24         0.00280
       5 <- 34        -0.00034
       5 <- 35         0.00075
       5 <- 40         0.00011
       5 <- 51         0.00021
       5 <- 53        -0.00013
       6 <- 10         0.00355
       6 <- 11        -0.00039
       6 <- 14         0.00177
       6 <- 15         0.00046
       6 <- 19         0.00140
       6 <- 20         0.00222
       6 <- 21         0.00061
       6 <- 25         0.00143
       6 <- 26         0.00049
       6 <- 28        -0.00077
       6 <- 32         0.00044
       6 <- 33        -0.00034
       6 <- 39        -0.00010
       6 <- 41         0.00014
       6 <- 49        -0.00036
       6 <- 50        -0.00043
       7 <-  9         0.00163
       7 <- 13         0.00225
       7 <- 17         0.00126
       7 <- 23         0.00270
       7 <- 29        -0.00021
       7 <- 31         0.00060
       7 <- 36         0.00044
       7 <- 44         0.00054
       7 <- 47        -0.00030
       8 <- 12        -0.00154
       8 <- 16        -0.00736
       8 <- 18        -0.00273
       8 <- 22         0.00079
       8 <- 24        -0.00214
       8 <- 34         0.00079
       8 <- 35        -0.00111
       8 <- 40        -0.00067
       8 <- 42         0.00038
       8 <- 48        -0.00042
       8 <- 51         0.00024
       8 <- 53        -0.00022

 Excited State   5:      Singlet-A2     8.1145 eV  152.79 nm  f=0.0000  <S**2>=0.000
       3 -> 27        -0.00064
       3 -> 38        -0.00058
       3 -> 45        -0.00034
       4 -> 27         0.00016
       4 -> 38         0.00054
       5 ->  9        -0.00891
       5 -> 13        -0.00173
       5 -> 17         0.00602
       5 -> 23        -0.00144
       5 -> 31        -0.00173
       5 -> 36        -0.00121
       5 -> 44        -0.00023
       5 -> 52        -0.00012
       6 -> 27         0.00021
       6 -> 38         0.00029
       6 -> 45        -0.00035
       7 -> 12        -0.00051
       7 -> 16        -0.00180
       7 -> 18         0.00187
       7 -> 22        -0.00071
       7 -> 24        -0.00015
       7 -> 30         0.00011
       7 -> 35        -0.00017
       7 -> 40         0.00013
       7 -> 48        -0.00012
       8 ->  9         0.06664
       8 -> 13         0.70348
       8 -> 17         0.01475
       8 -> 23         0.01851
       8 -> 31        -0.00135
       8 -> 36        -0.00015
       8 -> 47         0.00018
       8 -> 52        -0.00018
       3 <- 27        -0.00025
       3 <- 38        -0.00041
       3 <- 45        -0.00043
       4 <- 27        -0.00023
       5 <-  9        -0.00026
       5 <- 13        -0.00029
       5 <- 17         0.00060
       5 <- 36        -0.00027
       6 <- 38         0.00021
       7 <- 12        -0.00066
       7 <- 16        -0.00082
       7 <- 18         0.00067
       7 <- 22        -0.00123
       7 <- 24        -0.00036
       7 <- 30         0.00019
       7 <- 34         0.00044
       7 <- 35        -0.00073
       7 <- 40         0.00040
       7 <- 42        -0.00018
       7 <- 53        -0.00014
       8 <-  9         0.00283
       8 <- 13         0.00142
       8 <- 17         0.00023
       8 <- 23        -0.00024
       8 <- 31        -0.00014
       8 <- 36         0.00023

 Excited State   6:      Singlet-B2    10.3017 eV  120.35 nm  f=0.1759  <S**2>=0.000
       3 -> 12        -0.00029
       3 -> 16        -0.00194
       3 -> 18         0.00083
       3 -> 22         0.00141
       3 -> 24         0.00103
       3 -> 30         0.00141
       3 -> 34        -0.00068
       3 -> 35        -0.00011
       3 -> 40        -0.00027
       3 -> 42         0.00044
       3 -> 48         0.00034

 The electronic state is 1-A1.
 Alpha  occ. eigenvalues --  -19.14458 -10.26188  -1.13613  -0.62929  -0.52733
 Alpha  occ. eigenvalues --   -0.48018  -0.45106  -0.27278
 Alpha virt. eigenvalues --   -0.03628   0.01071   0.04125   0.04325   0.06789
 Alpha virt. eigenvalues --    0.13397   0.18306   0.19007   0.22017   0.22816
 Alpha virt. eigenvalues --    0.27188   0.34741   0.47953   0.48623   0.51106

 Mulliken charges:
               1
     1  C    0.053596
     2  H    0.081476
     3  H    0.081476
     4  O   -0.216548
 Sum of Mulliken charges =  -0.00000

 Dipole moment (field-independent basis, Debye):
    X=             -0.0000    Y=              0.0000    Z=             -1.9478  Tot=              1.9478
 Quadrupole moment (field-independent basis, Debye-Ang):
   XX=            -11.4342   YY=            -11.8203   ZZ=            -12.7051
   XY=              0.0000   XZ=              0.0000   YZ=              0.0000

 Normal termination of Gaussian 16 at Fri Sep 17 10:52:39 2021.
