 Gaussian 16, Revision A.03,
 Gaussian 16:  ES64L-G16RevA.03 25-Dec-2016

 --------------------------------------------------------------------
 #p B3LYP/6-311+G** #p TD=(singlets,nstates=30)IOp(6/8=3) IOp(9/40=4)
 --------------------------------------------------------------------

 ---------------------------------------------
 Scan Step 115, Bond Length 1.0750000000000002
 ---------------------------------------------
 Symbolic Z-matrix:
 Charge =  0 Multiplicity = 1

                         Standard orientation:
 ---------------------------------------------------------------------
 Center     Atomic      Atomic             Coordinates (Angstroms)
 Number     Number       Type             X           Y           Z
 ---------------------------------------------------------------------
      1          6           0        0.000000   -0.000000   -0.463581
      2          1           0        0.000000    0.937260   -1.054931
      3          1           0       -0.000000   -0.937260   -1.054931
      4          8           0        0.000000    0.000000    0.611419
 ---------------------------------------------------------------------

 SCF Done:  E(RB3LYP) =  -114.508167659     A.U. after    9 cycles

 Excitation energies and oscillator strengths:

 Excited State   1:      Singlet-A2     4.7028 eV  263.64 nm  f=0.0000  <S**2>=0.000
       3 -> 27         0.00287
       3 -> 38         0.00242
       3 -> 45         0.00200
       4 -> 27         0.00260
       4 -> 38        -0.00071
       4 -> 45        -0.00108
       5 ->  9         0.01971
       5 -> 13        -0.00677
       5 -> 17         0.00614
       5 -> 23        -0.00191
       5 -> 28         0.00393
       5 -> 31         0.00291
       5 -> 36         0.00396
       5 -> 44         0.00068
       5 -> 47         0.00013
       5 -> 52         0.00085
       6 -> 27         0.00037
       6 -> 38        -0.00067
       6 -> 45         0.00167
       7 -> 12        -0.00062
       7 -> 16         0.00200
       7 -> 18        -0.00201
       7 -> 22         0.00138
       7 -> 24         0.00126
       7 -> 29        -0.00075
       7 -> 34         0.00037
       7 -> 35         0.00045
       7 -> 40        -0.00039
       7 -> 48         0.00057
       7 -> 51         0.00021
       7 -> 53         0.00041
       8 ->  9         0.70261
       8 -> 13        -0.07382
       8 -> 17         0.02491
       8 -> 23        -0.01182
       8 -> 28         0.00734
       8 -> 31         0.00341
       8 -> 36        -0.00111
       8 -> 44        -0.00023
       8 -> 47        -0.00019
       8 -> 52         0.00141
       3 <- 27         0.00198
       3 <- 38         0.00205
       3 <- 45         0.00208
       4 <- 27         0.00339
       4 <- 38        -0.00015
       4 <- 45        -0.00097
       5 <- 13        -0.00093
       5 <- 17        -0.00072
       5 <- 23         0.00052
       5 <- 28        -0.00047
       5 <- 31        -0.00108
       5 <- 36         0.00180
       5 <- 44         0.00036
       5 <- 47         0.00017
       5 <- 52         0.00022
       6 <- 27         0.00081
       6 <- 38        -0.00063
       6 <- 45         0.00130
       7 <- 12        -0.00095
       7 <- 16        -0.00555
       7 <- 18        -0.00116
       7 <- 22         0.00666
       7 <- 24        -0.00071
       7 <- 29         0.00251
       7 <- 34        -0.00130
       7 <- 35         0.00253
       7 <- 40        -0.00095
       7 <- 42         0.00047
       7 <- 48         0.00040
       7 <- 53         0.00111
       8 <-  9        -0.01793
       8 <- 13         0.00500
       8 <- 17        -0.00388
       8 <- 23         0.00074
       8 <- 28        -0.00057
       8 <- 31         0.00162
       8 <- 36        -0.00195
       8 <- 52         0.00042
 This state for optimization and/or second-order correction.
 Total Energy, E(TD-HF/TD-DFT) =  -114.335342859
 Copying the excited state density for this state as the 1-particle RhoCI density.

 Excited State   2:      Singlet-B2     6.5957 eV  187.98 nm  f=0.0523  <S**2>=0.000
       3 -> 12         0.00122
       3 -> 16         0.00060
       3 -> 18         0.00111
       3 -> 22        -0.00024
       3 -> 24         0.00130
       3 -> 29        -0.00012
       3 -> 35        -0.00026
       4 -> 12        -0.00438
       4 -> 16         0.00107
       4 -> 18         0.00235
       4 -> 22        -0.00331
       4 -> 24         0.00379
       4 -> 34        -0.00078
       4 -> 35         0.00081
       4 -> 40        -0.00049
       5 -> 10        -0.00299
       5 -> 11        -0.00922
       5 -> 14         0.00674
       5 -> 15        -0.00125
       5 -> 19         0.00278
       5 -> 20         0.00024
       5 -> 21         0.00467
       5 -> 25         0.00023
       5 -> 26         0.00239
       5 -> 30         0.00217
       5 -> 32        -0.00018
       5 -> 33        -0.00082
       5 -> 37        -0.00039
       5 -> 39        -0.00029
       5 -> 43        -0.00055
       5 -> 46        -0.00053
       5 -> 49         0.00018
       6 -> 12         0.00119
       6 -> 16         0.00101
       6 -> 18         0.00357
       6 -> 22        -0.00271
       6 -> 24         0.00167
       6 -> 29        -0.00032
       6 -> 34        -0.00014
       6 -> 40         0.00018
       6 -> 42        -0.00030
       6 -> 48         0.00038
       6 -> 51        -0.00049
       7 -> 27         0.00047
       7 -> 38        -0.00029
       7 -> 45         0.00069
       8 -> 10         0.70484
       8 -> 11        -0.05071
       8 -> 14         0.00180
       8 -> 15        -0.00934
       8 -> 19         0.01716
       8 -> 20         0.01075
       8 -> 21        -0.00491
       8 -> 25         0.00075
       8 -> 26         0.00140
       8 -> 30         0.00055
       8 -> 32         0.00081
       8 -> 33         0.00221
       8 -> 37         0.00053
       8 -> 39         0.00052
       8 -> 41        -0.00016
       8 -> 43         0.00069
       8 -> 46        -0.00086
       8 -> 54         0.00017
       3 <- 12         0.00034
       3 <- 16         0.00050
       3 <- 18         0.00048
       3 <- 22        -0.00033
       3 <- 24         0.00084
       3 <- 29        -0.00011
       3 <- 35        -0.00025
       4 <- 12         0.00055
       4 <- 16         0.00149
       4 <- 18         0.00246
       4 <- 22        -0.00201
       4 <- 24         0.00269
       4 <- 34        -0.00053
       4 <- 35         0.00054
       4 <- 40        -0.00024
       4 <- 42        -0.00014
       4 <- 48        -0.00010
       5 <- 10         0.00245
       5 <- 11        -0.00019
       5 <- 14         0.00492
       5 <- 15        -0.00116
       5 <- 19         0.00066
       5 <- 20         0.00035
       5 <- 21         0.00228
       5 <- 25         0.00168
       5 <- 26         0.00152
       5 <- 30         0.00062
       5 <- 32        -0.00040
       5 <- 33        -0.00079
       5 <- 37        -0.00038
       5 <- 39        -0.00017
       5 <- 43        -0.00039
       5 <- 46        -0.00045
       5 <- 49         0.00017
       6 <- 12         0.00035
       6 <- 16        -0.00023
       6 <- 18         0.00166
       6 <- 22        -0.00096
       6 <- 24         0.00064
       6 <- 29         0.00039
       6 <- 34        -0.00020
       6 <- 35         0.00027
       6 <- 40         0.00017
       6 <- 42        -0.00029
       6 <- 48         0.00032
       6 <- 51        -0.00050
       6 <- 53         0.00011
       7 <- 27         0.00036
       7 <- 38        -0.00021
       7 <- 45         0.00059
       8 <- 10        -0.00267
       8 <- 11        -0.00077
       8 <- 14        -0.00820
       8 <- 15         0.00016
       8 <- 19        -0.00048
       8 <- 20        -0.00039
       8 <- 21        -0.00300
       8 <- 25        -0.00281
       8 <- 30        -0.00070
       8 <- 32        -0.00017
       8 <- 33         0.00153
       8 <- 37         0.00053
       8 <- 39         0.00042
       8 <- 43         0.00052
       8 <- 46        -0.00058
       8 <- 50        -0.00014

 Excited State   3:      Singlet-B2     7.3900 eV  167.77 nm  f=0.0214  <S**2>=0.000
       3 -> 12        -0.00021
       3 -> 16        -0.00066
       3 -> 18         0.00056
       3 -> 22         0.00026
       3 -> 24         0.00030
       3 -> 29         0.00155
       3 -> 34         0.00014
       3 -> 35        -0.00035
       3 -> 40         0.00030
       3 -> 42        -0.00020
       3 -> 48         0.00027
       3 -> 51        -0.00027
       4 -> 12         0.00310
       4 -> 16        -0.00095
       4 -> 18         0.00324
       4 -> 22        -0.00155
       4 -> 24         0.00330
       4 -> 29        -0.00108
       4 -> 34         0.00053
       4 -> 35        -0.00041
       4 -> 42        -0.00019
       4 -> 48         0.00019
       4 -> 51        -0.00015
       5 -> 10        -0.00749
       5 -> 11         0.00030
       5 -> 14         0.00593
       5 -> 15        -0.00660
       5 -> 19        -0.00377
       5 -> 20        -0.00294
       5 -> 21         0.00100
       5 -> 25         0.00141
       5 -> 26        -0.00055
       5 -> 30         0.00141
       5 -> 32        -0.00106
       5 -> 33        -0.00132
       5 -> 39         0.00046
       5 -> 41        -0.00085
       5 -> 46         0.00078
       5 -> 49        -0.00026
       5 -> 50         0.00038
       6 -> 12        -0.00324
       6 -> 16        -0.00185
       6 -> 18        -0.00148
       6 -> 22         0.00146
       6 -> 29         0.00056
       6 -> 34        -0.00044
       6 -> 35         0.00145
       6 -> 40        -0.00087
       6 -> 42         0.00031
       6 -> 48        -0.00081
       6 -> 51         0.00067
       6 -> 53         0.00012
       7 -> 27        -0.00044
       7 -> 38        -0.00114
       7 -> 45        -0.00145
       8 -> 10         0.05133
       8 -> 11         0.70431
       8 -> 14        -0.01156
       8 -> 15         0.01649
       8 -> 19        -0.02438
       8 -> 20         0.01195
       8 -> 21        -0.00211
       8 -> 25         0.00050
       8 -> 26        -0.00149
       8 -> 30        -0.00072
       8 -> 32        -0.00033
       8 -> 33         0.00023
       8 -> 41        -0.00139
       8 -> 43         0.00012
       8 -> 46         0.00127
       8 -> 49        -0.00056
       8 -> 50         0.00065
       8 -> 54        -0.00017
       3 <- 12         0.00032
       3 <- 16        -0.00028
       3 <- 18         0.00076
       3 <- 24         0.00041
       3 <- 29         0.00095
       3 <- 34         0.00021
       3 <- 35        -0.00040
       3 <- 40         0.00027
       3 <- 42        -0.00017
       3 <- 48         0.00022
       3 <- 51        -0.00017
       3 <- 53        -0.00023
       4 <- 12         0.00036
       4 <- 16         0.00049
       4 <- 18         0.00093
       4 <- 22        -0.00119
       4 <- 24         0.00137
       4 <- 29        -0.00046
       4 <- 34         0.00050
       4 <- 42        -0.00021
       4 <- 48         0.00013
       4 <- 51        -0.00020
       5 <- 10         0.00131
       5 <- 11        -0.00082
       5 <- 14         0.00224
       5 <- 15        -0.00045
       5 <- 19         0.00077
       5 <- 20        -0.00016
       5 <- 21         0.00088
       5 <- 25         0.00113
       5 <- 26        -0.00056
       5 <- 30         0.00077
       5 <- 32         0.00041
       5 <- 33        -0.00117
       5 <- 37         0.00017
       5 <- 39         0.00021
       5 <- 41        -0.00087
       5 <- 46         0.00073
       5 <- 49        -0.00014
       5 <- 50         0.00035
       6 <- 12        -0.00035
       6 <- 16        -0.00025
       6 <- 18        -0.00020
       6 <- 22         0.00048
       6 <- 29         0.00021
       6 <- 34        -0.00024
       6 <- 35         0.00108
       6 <- 40        -0.00064
       6 <- 42         0.00021
       6 <- 48        -0.00068
       6 <- 51         0.00057
       7 <- 38        -0.00092
       7 <- 45        -0.00123
       8 <- 10        -0.00084
       8 <- 11         0.00028
       8 <- 14        -0.00437
       8 <- 15         0.00063
       8 <- 19         0.00298
       8 <- 20        -0.00140
       8 <- 21        -0.00214
       8 <- 26        -0.00155
       8 <- 30        -0.00043
       8 <- 32         0.00131
       8 <- 33         0.00024
       8 <- 37        -0.00015
       8 <- 39        -0.00025
       8 <- 41        -0.00118
       8 <- 46         0.00103
       8 <- 49        -0.00031
       8 <- 50         0.00051

 Excited State   4:      Singlet-A1     7.5402 eV  164.43 nm  f=0.0540  <S**2>=0.000
       3 -> 10         0.00165
       3 -> 11        -0.00101
       3 -> 14         0.00054
       3 -> 15        -0.00035
       3 -> 19         0.00085
       3 -> 20         0.00112
       3 -> 21         0.00035
       3 -> 25        -0.00025
       3 -> 26         0.00079
       3 -> 30         0.00119
       3 -> 32        -0.00031
       3 -> 33        -0.00035
       3 -> 37        -0.00030
       3 -> 39         0.00013
       3 -> 41        -0.00021
       3 -> 50         0.00038
       3 -> 54        -0.00021
       4 -> 10         0.00531
       4 -> 11         0.00778
       4 -> 14         0.00568
       4 -> 15        -0.00015
       4 -> 19         0.00048
       4 -> 20         0.00537
       4 -> 21         0.00221
       4 -> 25         0.00717
       4 -> 26         0.00101
       4 -> 30        -0.00048
       4 -> 32         0.00022
       4 -> 33        -0.00074
       4 -> 39        -0.00029
       4 -> 41         0.00019
       4 -> 43         0.00015
       4 -> 46        -0.00024
       4 -> 49        -0.00019
       5 -> 12         0.00748
       5 -> 18         0.01158
       5 -> 22        -0.00121
       5 -> 24         0.00510
       5 -> 29         0.00014
       5 -> 34        -0.00015
       5 -> 35         0.00083
       5 -> 51         0.00033
       5 -> 53        -0.00015
       6 -> 10         0.01324
       6 -> 11        -0.00393
       6 -> 14         0.00422
       6 -> 15         0.00150
       6 -> 19         0.00463
       6 -> 20         0.00446
       6 -> 21         0.00175
       6 -> 25         0.00258
       6 -> 26         0.00050
       6 -> 30        -0.00109
       6 -> 32         0.00060
       6 -> 33        -0.00046
       6 -> 43         0.00012
       6 -> 49        -0.00036
       6 -> 50        -0.00051
       7 ->  9         0.01233
       7 -> 13         0.00784
       7 -> 17         0.00430
       7 -> 23         0.00510
       7 -> 31         0.00085
       7 -> 36         0.00056
       7 -> 44         0.00065
       7 -> 47        -0.00036
       7 -> 52        -0.00011
       8 -> 12         0.70571
       8 -> 16        -0.02047
       8 -> 18         0.02806
       8 -> 22         0.00520
       8 -> 24         0.00235
       8 -> 29         0.00142
       8 -> 34         0.00152
       8 -> 35        -0.00214
       8 -> 40        -0.00071
       8 -> 42         0.00061
       8 -> 48        -0.00036
       8 -> 51         0.00029
       8 -> 53        -0.00020
       3 <- 10         0.00059
       3 <- 11        -0.00020
       3 <- 14         0.00033
       3 <- 19         0.00035
       3 <- 20         0.00052
       3 <- 21         0.00032
       3 <- 26         0.00045
       3 <- 30         0.00075
       3 <- 32        -0.00028
       3 <- 33        -0.00018
       3 <- 37        -0.00023
       3 <- 39         0.00011
       3 <- 41        -0.00017
       3 <- 46         0.00017
       3 <- 50         0.00033
       3 <- 54        -0.00019
       4 <- 10         0.00489
       4 <- 11         0.00215
       4 <- 14         0.00416
       4 <- 15        -0.00059
       4 <- 19         0.00034
       4 <- 20         0.00305
       4 <- 21         0.00090
       4 <- 25         0.00404
       4 <- 26         0.00061
       4 <- 33        -0.00102
       4 <- 39        -0.00032
       4 <- 46        -0.00022
       4 <- 49        -0.00016
       5 <- 12         0.00277
       5 <- 16         0.00158
       5 <- 18         0.00423
       5 <- 22        -0.00027
       5 <- 24         0.00276
       5 <- 34        -0.00034
       5 <- 35         0.00076
       5 <- 40         0.00011
       5 <- 51         0.00022
       5 <- 53        -0.00014
       6 <- 10         0.00370
       6 <- 11        -0.00049
       6 <- 14         0.00177
       6 <- 15         0.00049
       6 <- 19         0.00163
       6 <- 20         0.00225
       6 <- 21         0.00067
       6 <- 25         0.00136
       6 <- 26         0.00055
       6 <- 30        -0.00062
       6 <- 32         0.00038
       6 <- 33        -0.00044
       6 <- 39        -0.00013
       6 <- 41         0.00014
       6 <- 49        -0.00024
       6 <- 50        -0.00049
       7 <-  9         0.00187
       7 <- 13         0.00220
       7 <- 17         0.00144
       7 <- 23         0.00270
       7 <- 28        -0.00013
       7 <- 31         0.00061
       7 <- 36         0.00044
       7 <- 44         0.00054
       7 <- 47        -0.00031
       8 <- 12        -0.00174
       8 <- 16        -0.00775
       8 <- 18        -0.00316
       8 <- 22         0.00074
       8 <- 24        -0.00223
       8 <- 29         0.00017
       8 <- 34         0.00083
       8 <- 35        -0.00119
       8 <- 40        -0.00064
       8 <- 42         0.00051
       8 <- 48        -0.00042
       8 <- 51         0.00024
       8 <- 53        -0.00021

 Excited State   5:      Singlet-A2     8.0475 eV  154.07 nm  f=0.0000  <S**2>=0.000
       3 -> 27        -0.00071
       3 -> 38        -0.00064
       3 -> 45        -0.00037
       4 -> 27         0.00012
       4 -> 38         0.00056
       4 -> 45         0.00011
       5 ->  9        -0.00932
       5 -> 13        -0.00082
       5 -> 17         0.00575
       5 -> 23        -0.00123
       5 -> 31        -0.00180
       5 -> 36        -0.00130
       5 -> 44        -0.00024
       5 -> 52        -0.00015
       6 -> 27         0.00020
       6 -> 38         0.00028
       6 -> 45        -0.00039
       7 -> 12        -0.00052
       7 -> 16        -0.00181
       7 -> 18         0.00179
       7 -> 22        -0.00073
       7 -> 24        -0.00018
       7 -> 29         0.00014
       7 -> 35        -0.00018
       7 -> 40         0.00014
       7 -> 48        -0.00013
       8 ->  9         0.07384
       8 -> 13         0.70278
       8 -> 17         0.01320
       8 -> 23         0.01900
       8 -> 28        -0.00012
       8 -> 31        -0.00130
       8 -> 47         0.00018
       8 -> 52        -0.00021
       3 <- 27        -0.00029
       3 <- 38        -0.00047
       3 <- 45        -0.00046
       4 <- 27        -0.00029
       4 <- 45         0.00010
       5 <-  9        -0.00025
       5 <- 13        -0.00027
       5 <- 17         0.00062
       5 <- 36        -0.00031
       6 <- 38         0.00021
       6 <- 45        -0.00011
       7 <- 12        -0.00066
       7 <- 16        -0.00076
       7 <- 18         0.00065
       7 <- 22        -0.00134
       7 <- 24        -0.00033
       7 <- 29         0.00018
       7 <- 34         0.00047
       7 <- 35        -0.00078
       7 <- 40         0.00039
       7 <- 42        -0.00024
       7 <- 53        -0.00016
       8 <-  9         0.00320
       8 <- 13         0.00139
       8 <- 17         0.00024
       8 <- 23        -0.00027
       8 <- 31        -0.00018
       8 <- 36         0.00027

 Excited State   6:      Singlet-B2    10.2799 eV  120.61 nm  f=0.1919  <S**2>=0.000
       3 -> 12        -0.00033
       3 -> 16        -0.00196
       3 -> 18         0.00068
       3 -> 22         0.00143
       3 -> 24         0.00099
       3 -> 29         0.00140
       3 -> 34        -0.00073
       3 -> 40        -0.00022
       3 -> 42         0.00051
       3 -> 48         0.00033
       3 -> 51        -0.00020
       3 -> 53        -0.00011
       4 -> 12        -0.00747

 The electronic state is 1-A1.
 Alpha  occ. eigenvalues --  -19.14312 -10.25772  -1.15181  -0.62526  -0.53403
 Alpha  occ. eigenvalues --   -0.48428  -0.46153  -0.26990
 Alpha virt. eigenvalues --   -0.02923   0.01134   0.04164   0.04339   0.06908
 Alpha virt. eigenvalues --    0.13508   0.18234   0.19305   0.22016   0.22723
 Alpha virt. eigenvalues --    0.27144   0.35067   0.48373   0.49179   0.51189

 Mulliken charges:
               1
     1  C    0.065610
     2  H    0.073215
     3  H    0.073215
     4  O   -0.212039
 Sum of Mulliken charges =  -0.00000

 Dipole moment (field-independent basis, Debye):
    X=             -0.0000    Y=              0.0000    Z=             -1.8016  Tot=              1.8016
 Quadrupole moment (field-independent basis, Debye-Ang):
   XX=            -11.3558   YY=            -11.8539   ZZ=            -12.7681
   XY=              0.0000   XZ=              0.0000   YZ=              0.0000

 Normal termination of Gaussian 16 at Fri Sep 17 10:52:37 2021.
