 Gaussian 16, Revision C.01,
 Gaussian 16:  ES64L-G16RevC.01  3-Jul-2019

 ---------------------------------------
 #P wB97XD/6-311+G* NoSymm #P Field=Z-68
 ---------------------------------------

 -------
 TitleMe
 -------
 Symbolic Z-matrix:
 Charge =  1 Multiplicity = 1

                          Input orientation:
 ---------------------------------------------------------------------
 Center     Atomic      Atomic             Coordinates (Angstroms)
 Number     Number       Type             X           Y           Z
 ---------------------------------------------------------------------
      1          6           0        0.029500    1.339700    0.068200
      2          6           0        1.434800    1.286700    0.006400
      3          6           0        2.111800    0.051100   -0.005400
      4          6           0        1.445100   -1.137200    0.031200
      5          6           0       -0.687900    0.168200    0.110000
      6          1           0       -0.471300    2.298400    0.078100
      7          1           0        2.027300    2.196500   -0.032200
      8          1           0        1.989700   -2.076400    0.023200
      9          1           0       -1.771600    0.180400    0.158200
     10          7           0        3.586400    0.051000   -0.067500
     11          8           0        4.147100   -1.059700   -0.088100
     12          8           0        4.145000    1.163900   -0.090100
     13          6           0       -0.023600   -1.145800    0.083500
     14          1           0       -0.436700   -1.872500    0.788900
     15         35           0       -0.535900   -1.869700   -1.740800
 ---------------------------------------------------------------------

 SCF Done:  E(RwB97XD) =  -3010.53686304     A.U. after   18 cycles

 Alpha  occ. eigenvalues -- -483.32157 -62.87199 -56.66869 -56.66329 -56.66327
 Alpha  occ. eigenvalues --  -19.45949 -19.45870 -14.85450 -10.58649 -10.57688
 Alpha  occ. eigenvalues --  -10.57305 -10.57120 -10.56844 -10.53023  -9.03017
 Alpha  occ. eigenvalues --   -6.85633  -6.83858  -6.83844  -2.95553  -2.95080
 Alpha  occ. eigenvalues --   -2.95067  -2.93646  -2.93646  -1.49708  -1.32681
 Alpha  occ. eigenvalues --   -1.22810  -1.14374  -1.11896  -1.05078  -1.01126
 Alpha  occ. eigenvalues --   -0.95627  -0.91056  -0.85339  -0.80834  -0.80730
 Alpha  occ. eigenvalues --   -0.80062  -0.78360  -0.76170  -0.76008  -0.72639
 Alpha  occ. eigenvalues --   -0.69461  -0.67659  -0.64024  -0.60595  -0.57661
 Alpha  occ. eigenvalues --   -0.57058  -0.56268  -0.55921  -0.55657
 Alpha virt. eigenvalues --   -0.29898  -0.21378  -0.16175  -0.13592  -0.09479
 Alpha virt. eigenvalues --   -0.06697  -0.06404  -0.05865  -0.04493  -0.03362
 Alpha virt. eigenvalues --   -0.03233  -0.02749  -0.01984  -0.01762  -0.01461

 Mulliken charges:
               1
     1  C   -0.590711
     2  C    0.539379
     3  C   -0.723457
     4  C    0.295891
     5  C    0.025289
     6  H    0.336428
     7  H    0.367023
     8  H    0.375832
     9  H    0.353647
    10  N   -0.106412
    11  O    0.031579
    12  O    0.028090
    13  C   -0.472283
    14  H    0.427572
    15  Br   0.112133
 Sum of Mulliken charges =   1.00000

 Dipole moment (field-independent basis, Debye):
    X=             -0.6635    Y=             -0.3324    Z=              1.1560  Tot=              1.3738
 Quadrupole moment (field-independent basis, Debye-Ang):
   XX=            -71.0203   YY=            -52.3443   ZZ=            -63.9252
   XY=              1.1147   XZ=              1.6521   YZ=              0.6566

 Normal termination of Gaussian 16 at Wed May  1 15:22:47 2024.
