 Gaussian 16, Revision A.03,
 Gaussian 16:  ES64L-G16RevA.03 25-Dec-2016

 --------------------------------------------------------------------
 #p B3LYP/6-311+G** #p TD=(singlets,nstates=30)IOp(6/8=3) IOp(9/40=4)
 --------------------------------------------------------------------

 --------------------------------
 Scan Step 209, Bond Length 1.545
 --------------------------------
 Symbolic Z-matrix:
 Charge =  0 Multiplicity = 1

                         Standard orientation:
 ---------------------------------------------------------------------
 Center     Atomic      Atomic             Coordinates (Angstroms)
 Number     Number       Type             X           Y           Z
 ---------------------------------------------------------------------
      1          6           0        0.000000    0.000000   -0.698581
      2          1           0        0.000000    0.937260   -1.289931
      3          1           0       -0.000000   -0.937260   -1.289931
      4          8           0        0.000000   -0.000000    0.846419
 ---------------------------------------------------------------------

 SCF Done:  E(RB3LYP) =  -114.448491334     A.U. after   10 cycles

 Excitation energies and oscillator strengths:

 Excited State   1:      Singlet-A2     2.1981 eV  564.04 nm  f=0.0000  <S**2>=0.000
       3 -> 27         0.00133
       3 -> 38         0.00101
       3 -> 46         0.00324
       4 -> 27         0.00081
       4 -> 38        -0.00017
       4 -> 46        -0.00135
       5 ->  9         0.00931
       5 -> 13         0.00076
       5 -> 18         0.00324
       5 -> 23         0.00159
       5 -> 28         0.00286
       5 -> 31        -0.00027
       5 -> 37         0.00160
       5 -> 44         0.00037
       5 -> 52         0.00039
       6 -> 27        -0.00061
       6 -> 38        -0.00081
       6 -> 46         0.00143
       7 -> 12        -0.00084
       7 -> 16         0.00455
       7 -> 19        -0.00389
       7 -> 22        -0.00064
       7 -> 25         0.00104
       7 -> 30        -0.00145
       7 -> 33         0.00039
       7 -> 49         0.00013
       7 -> 50         0.00018
       7 -> 53         0.00046
       8 ->  9         0.70811
       8 -> 13        -0.01545
       8 -> 18         0.02179
       8 -> 23        -0.00424
       8 -> 28         0.01107
       8 -> 31         0.00077
       8 -> 37         0.00065
       8 -> 48        -0.00031
       8 -> 52         0.00193
       3 <- 27         0.00066
       3 <- 38         0.00073
       3 <- 46         0.00329
       4 <- 27         0.00138
       4 <- 38         0.00023
       4 <- 46        -0.00109
       5 <-  9        -0.00036
       5 <- 13        -0.00057
       5 <- 18        -0.00076
       5 <- 23         0.00031
       5 <- 28        -0.00053
       5 <- 31         0.00039
       5 <- 37         0.00088
       5 <- 44         0.00012
       5 <- 52         0.00010
       6 <- 38        -0.00067
       6 <- 46         0.00111
       7 <- 12         0.00039
       7 <- 16        -0.00981
       7 <- 19         0.00327
       7 <- 22         0.00710
       7 <- 25         0.00048
       7 <- 30         0.00512
       7 <- 33        -0.00061
       7 <- 36         0.00104
       7 <- 40         0.00058
       7 <- 42         0.00012
       7 <- 49        -0.00035
       7 <- 50         0.00012
       7 <- 53         0.00145
       8 <-  9        -0.04680
       8 <- 13         0.00073
       8 <- 18        -0.00629
       8 <- 23         0.00029
       8 <- 28        -0.00223
       8 <- 31        -0.00059
       8 <- 37        -0.00055
       8 <- 52         0.00052
 This state for optimization and/or second-order correction.
 Total Energy, E(TD-HF/TD-DFT) =  -114.367711385
 Copying the excited state density for this state as the 1-particle RhoCI density.

 Excited State   2:      Singlet-A1     5.5926 eV  221.69 nm  f=0.0905  <S**2>=0.000
       3 -> 10         0.01196
       3 -> 11        -0.01635
       3 -> 14        -0.01298
       3 -> 15         0.01193
       3 -> 17        -0.00366
       3 -> 20        -0.00356
       3 -> 21        -0.00195
       3 -> 24         0.00322
       3 -> 26         0.00490
       3 -> 29        -0.00088
       3 -> 32         0.00278
       3 -> 34         0.00308
       3 -> 35        -0.00048
       3 -> 39         0.00095
       3 -> 43         0.00043
       3 -> 45        -0.00044
       3 -> 47         0.00216
       3 -> 51         0.00085
       3 -> 54         0.00024
       4 -> 10         0.01621
       4 -> 11         0.01104
       4 -> 14        -0.00880
       4 -> 15        -0.00904
       4 -> 17         0.00325
       4 -> 20         0.00641
       4 -> 21         0.00039
       4 -> 24        -0.00559
       4 -> 26         0.00545
       4 -> 29         0.00115
       4 -> 32        -0.00127
       4 -> 34        -0.00213
       4 -> 35         0.00018
       4 -> 39        -0.00015
       4 -> 41         0.00014
       4 -> 43        -0.00037
       4 -> 45        -0.00060
       4 -> 47        -0.00146
       4 -> 51        -0.00029
       5 -> 12         0.02010
       5 -> 16         0.01479
       5 -> 19         0.00156
       5 -> 22         0.00686
       5 -> 25         0.00945
       5 -> 30        -0.00072
       5 -> 33        -0.00322
       5 -> 36         0.00265
       5 -> 40         0.00156
       5 -> 42         0.00062
       5 -> 49         0.00053
       5 -> 50        -0.00062
       5 -> 53        -0.00018
       6 -> 10        -0.09577
       6 -> 11         0.11047
       6 -> 14         0.08877
       6 -> 15        -0.09601
       6 -> 17        -0.02053
       6 -> 20        -0.01574
       6 -> 21         0.01704
       6 -> 24        -0.01644
       6 -> 26        -0.00819
       6 -> 29        -0.00880
       6 -> 32         0.00036
       6 -> 34         0.00168
       6 -> 35        -0.00112
       6 -> 39         0.00068
       6 -> 41        -0.00053
       6 -> 43         0.00074
       6 -> 45         0.00061
       6 -> 47         0.00149
       6 -> 51         0.00084
       6 -> 54        -0.00056
       7 ->  9         0.68551
       7 -> 13         0.00474
       7 -> 18        -0.02091
       7 -> 23         0.00138
       7 -> 28        -0.00234
       7 -> 31        -0.00281
       7 -> 37         0.00069
       7 -> 44        -0.00106
       7 -> 48         0.00049
       7 -> 52         0.00104
       8 -> 12        -0.00610
       8 -> 16         0.08279
       8 -> 19        -0.02555
       8 -> 22        -0.03160
       8 -> 25         0.00108
       8 -> 30        -0.01315
       8 -> 33         0.00292
       8 -> 36        -0.00364
       8 -> 40        -0.00169
       8 -> 42        -0.00034
       8 -> 49         0.00065
       8 -> 50         0.00027
       8 -> 53        -0.00078
       3 <- 10         0.00759
       3 <- 11        -0.01097
       3 <- 14        -0.00936
       3 <- 15         0.00806
       3 <- 17        -0.00184
       3 <- 20        -0.00242
       3 <- 21        -0.00209
       3 <- 24         0.00210
       3 <- 26         0.00303
       3 <- 29        -0.00050
       3 <- 32         0.00255
       3 <- 34         0.00204
       3 <- 35        -0.00046
       3 <- 39         0.00081
       3 <- 41         0.00011
       3 <- 43         0.00051
       3 <- 45        -0.00026
       3 <- 47         0.00232
       3 <- 51         0.00082
       3 <- 54         0.00033
       4 <- 10         0.00791
       4 <- 11         0.00664
       4 <- 14        -0.00428
       4 <- 15        -0.00530
       4 <- 17         0.00155
       4 <- 20         0.00493
       4 <- 21         0.00031
       4 <- 24        -0.00367
       4 <- 26         0.00416
       4 <- 29         0.00029
       4 <- 32        -0.00161
       4 <- 34        -0.00187
       4 <- 35         0.00039
       4 <- 39        -0.00021
       4 <- 43        -0.00036
       4 <- 45        -0.00080
       4 <- 47        -0.00107
       4 <- 51        -0.00012
       5 <- 12         0.00817
       5 <- 16         0.00702
       5 <- 19         0.00104
       5 <- 22         0.00405
       5 <- 25         0.00615
       5 <- 30        -0.00035
       5 <- 33        -0.00244
       5 <- 36         0.00213
       5 <- 40         0.00134
       5 <- 42         0.00050
       5 <- 49         0.00046
       5 <- 50        -0.00056
       5 <- 53        -0.00016
       6 <- 10        -0.02616
       6 <- 11         0.03228
       6 <- 14         0.03272
       6 <- 15        -0.03850
       6 <- 17        -0.00926
       6 <- 20        -0.00893
       6 <- 21         0.00941
       6 <- 24        -0.00969
       6 <- 26        -0.00482
       6 <- 29        -0.00588
       6 <- 32         0.00084
       6 <- 34         0.00199
       6 <- 35        -0.00102
       6 <- 39         0.00079
       6 <- 41        -0.00036
       6 <- 43         0.00064
       6 <- 45         0.00066
       6 <- 47         0.00100
       6 <- 51         0.00066
       6 <- 54        -0.00045
       7 <-  9        -0.11973
       7 <- 13         0.00869
       7 <- 18        -0.01433
       7 <- 23         0.00443
       7 <- 28        -0.00449
       7 <- 31        -0.00119
       7 <- 37         0.00018
       7 <- 44        -0.00058
       7 <- 52         0.00089
       8 <- 12        -0.00114
       8 <- 16         0.02587
       8 <- 19        -0.00987
       8 <- 22        -0.01604
       8 <- 25         0.00032
       8 <- 30        -0.00916
       8 <- 33         0.00212
       8 <- 36        -0.00272
       8 <- 40        -0.00135
       8 <- 42        -0.00027
       8 <- 49         0.00045
       8 <- 50         0.00021
       8 <- 53        -0.00071

 Excited State   3:      Singlet-B1     5.8223 eV  212.95 nm  f=0.0015  <S**2>=0.000
       3 ->  9        -0.03031
       3 -> 13         0.00209
       3 -> 18        -0.00507
       3 -> 23         0.00206
       3 -> 28        -0.00114
       3 -> 31        -0.00049
       3 -> 44         0.00028
       3 -> 48         0.00088
       3 -> 52         0.00101
       4 ->  9         0.01433
       4 -> 13        -0.00270
       4 -> 18         0.00037
       4 -> 23        -0.00246
       4 -> 28         0.00021
       4 -> 31        -0.00165
       4 -> 37        -0.00043
       4 -> 44         0.00012
       4 -> 48        -0.00122
       4 -> 52        -0.00066
       5 -> 27        -0.00039
       5 -> 38         0.00200
       5 -> 46         0.00115
       6 ->  9         0.70586
       6 -> 13        -0.02162
       6 -> 18         0.01772
       6 -> 23        -0.01125
       6 -> 28         0.00471
       6 -> 31         0.00352
       6 -> 37        -0.00231
       6 -> 44        -0.00306
       6 -> 48         0.00439
       6 -> 52         0.00155
       7 -> 10        -0.01856
       7 -> 11         0.01931
       7 -> 14         0.01254
       7 -> 15        -0.00817
       7 -> 17        -0.00954
       7 -> 20         0.00262
       7 -> 21        -0.00030
       7 -> 24        -0.00022
       7 -> 26        -0.00119
       7 -> 29        -0.00409
       7 -> 32        -0.00081
       7 -> 34         0.00037
       7 -> 35         0.00185
       7 -> 39         0.00012
       7 -> 41        -0.00075
       7 -> 43         0.00061
       7 -> 45        -0.00128
       7 -> 47         0.00433
       7 -> 51         0.00116
       7 -> 54         0.00048
       8 -> 27         0.00077
       8 -> 38         0.00020
       8 -> 46         0.00567
       3 <-  9        -0.01006
       3 <- 13        -0.00046
       3 <- 18        -0.00303
       3 <- 23        -0.00045
       3 <- 28        -0.00075
       3 <- 31        -0.00062
       3 <- 44        -0.00027
       3 <- 48         0.00107
       3 <- 52         0.00080
       4 <-  9         0.00666
       4 <- 13        -0.00016
       4 <- 18         0.00209
       4 <- 23        -0.00050
       4 <- 28         0.00179
       4 <- 31        -0.00115
       4 <- 37        -0.00018
       4 <- 44         0.00013
       4 <- 48        -0.00105
       4 <- 52        -0.00038
       5 <- 27        -0.00089
       5 <- 38         0.00160
       5 <- 46         0.00102
       6 <-  9        -0.02397
       6 <- 13         0.00175
       6 <- 18        -0.00313
       6 <- 23        -0.00026
       6 <- 28        -0.00322
       6 <- 31         0.00152
       6 <- 37        -0.00205
       6 <- 44        -0.00174
       6 <- 48         0.00392
       6 <- 52         0.00055
       7 <- 10         0.00928
       7 <- 11        -0.01126
       7 <- 14        -0.01170
       7 <- 15         0.01556
       7 <- 17         0.00100
       7 <- 20         0.00545
       7 <- 21        -0.00478
       7 <- 24         0.00467
       7 <- 26         0.00192
       7 <- 29         0.00089
       7 <- 32        -0.00045
       7 <- 35         0.00288
       7 <- 39         0.00041
       7 <- 41        -0.00038
       7 <- 43         0.00049
       7 <- 45        -0.00132
       7 <- 47         0.00390
       7 <- 51         0.00097
       7 <- 54         0.00109
       8 <- 27         0.00117
       8 <- 38         0.00037
       8 <- 46         0.00523

 Excited State   4:      Singlet-B2     6.5495 eV  189.30 nm  f=0.0184  <S**2>=0.000
       3 -> 12         0.00169
       3 -> 16        -0.00151
       3 -> 19         0.00392
       3 -> 22        -0.00032
       3 -> 30         0.00287
       3 -> 33         0.00037
       3 -> 36        -0.00195
       3 -> 40        -0.00151
       3 -> 42        -0.00015
       3 -> 49         0.00203
       3 -> 50        -0.00021
       3 -> 53        -0.00025
       4 -> 12        -0.00056
       4 -> 16         0.00290
       4 -> 19         0.00046
       4 -> 22        -0.00346
       4 -> 25         0.00260
       4 -> 30        -0.00121
       4 -> 33         0.00043
       4 -> 36        -0.00044
       4 -> 40         0.00050
       4 -> 49        -0.00028
       5 -> 10         0.00067
       5 -> 11        -0.00486
       5 -> 14        -0.01461
       5 -> 17        -0.00143
       5 -> 20        -0.00160
       5 -> 21        -0.00673
       5 -> 24        -0.00187
       5 -> 26         0.00212
       5 -> 29         0.00188
       5 -> 32         0.00078
       5 -> 34         0.00133
       5 -> 35         0.00064
       5 -> 39         0.00083
       5 -> 41        -0.00082
       5 -> 45        -0.00027
       5 -> 47         0.00076
       5 -> 51        -0.00046
       5 -> 54         0.00022
       6 -> 12        -0.00348
       6 -> 16         0.00124
       6 -> 19        -0.00221
       6 -> 22        -0.00033
       6 -> 25         0.00074
       6 -> 30         0.00049
       6 -> 33        -0.00047
       6 -> 36         0.00214
       6 -> 40         0.00159
       6 -> 42         0.00022
       6 -> 49        -0.00128
       6 -> 53         0.00027
       7 -> 27         0.00053
       7 -> 38        -0.00100
       7 -> 46        -0.00307
       8 -> 10         0.64013
       8 -> 11        -0.27130
       8 -> 14        -0.10348
       8 -> 15         0.07541
       8 -> 17         0.00879
       8 -> 20         0.00512
       8 -> 21        -0.00438
       8 -> 24         0.00506
       8 -> 26         0.00540
       8 -> 29         0.00794
       8 -> 32         0.00200
       8 -> 34         0.00131
       8 -> 35         0.00068
       8 -> 39         0.00045
       8 -> 41        -0.00045
       8 -> 43         0.00061
       8 -> 45        -0.00213
       8 -> 47         0.00323
       8 -> 51        -0.00191
       8 -> 54         0.00117
       3 <- 12         0.00056
       3 <- 16        -0.00030
       3 <- 19         0.00184
       3 <- 22        -0.00082
       3 <- 30         0.00114
       3 <- 33         0.00033
       3 <- 36        -0.00156
       3 <- 40        -0.00137
       3 <- 42        -0.00014
       3 <- 49         0.00209
       3 <- 50        -0.00017
       3 <- 53        -0.00070
       4 <- 12         0.00043
       4 <- 16         0.00246
       4 <- 19         0.00061
       4 <- 22        -0.00279
       4 <- 25         0.00160
       4 <- 30        -0.00099
       4 <- 33         0.00051
       4 <- 36        -0.00063
       4 <- 40         0.00015
       4 <- 42        -0.00016
       4 <- 49        -0.00022
       5 <- 10         0.00128
       5 <- 11         0.00139
       5 <- 14        -0.00317
       5 <- 15        -0.00341
       5 <- 17        -0.00026
       5 <- 20        -0.00030
       5 <- 21        -0.00200
       5 <- 24        -0.00280
       5 <- 26         0.00080
       5 <- 29         0.00048
       5 <- 32        -0.00040
       5 <- 34         0.00046
       5 <- 39         0.00025
       5 <- 41        -0.00078
       5 <- 43        -0.00014
       5 <- 45        -0.00054
       5 <- 47         0.00054
       5 <- 51        -0.00024
       6 <- 12        -0.00021
       6 <- 16        -0.00410
       6 <- 19         0.00188
       6 <- 22         0.00287
       6 <- 25         0.00032
       6 <- 30         0.00359
       6 <- 33        -0.00068
       6 <- 36         0.00212
       6 <- 40         0.00154
       6 <- 42         0.00027
       6 <- 49        -0.00132
       6 <- 53         0.00079
       7 <- 27         0.00054
       7 <- 38        -0.00077
       7 <- 46        -0.00251
       8 <- 10        -0.00745
       8 <- 11         0.00959
       8 <- 14         0.00972
       8 <- 15        -0.00605
       8 <- 17        -0.00021
       8 <- 20         0.00174
       8 <- 21         0.00231
       8 <- 24        -0.00075
       8 <- 26        -0.00197
       8 <- 29         0.00077
       8 <- 32        -0.00160
       8 <- 34        -0.00125
       8 <- 35        -0.00012
       8 <- 39        -0.00119
       8 <- 41        -0.00058
       8 <- 45        -0.00248
       8 <- 47         0.00218
       8 <- 51        -0.00110
       8 <- 54         0.00028

 Excited State   5:      Singlet-B2     7.1230 eV  174.06 nm  f=0.0051  <S**2>=0.000
       3 -> 12         0.00124
       3 -> 16         0.00179
       3 -> 19        -0.00141
       3 -> 22        -0.00040
       3 -> 25         0.00096
       3 -> 30        -0.00288
       3 -> 36         0.00079
       3 -> 40         0.00069
       3 -> 49        -0.00098
       4 -> 12        -0.00149
       4 -> 16         0.00018
       4 -> 19         0.00084
       4 -> 22        -0.00038
       4 -> 25         0.00022
       4 -> 30         0.00153
       4 -> 33        -0.00027
       4 -> 36         0.00048
       4 -> 50        -0.00013
       5 -> 10        -0.00816
       5 -> 11        -0.00024
       5 -> 14         0.00144
       5 -> 15         0.00602
       5 -> 17         0.00156
       5 -> 20         0.00237
       5 -> 21         0.00116
       5 -> 24        -0.00011
       5 -> 26        -0.00072
       5 -> 29        -0.00074
       5 -> 32        -0.00161
       5 -> 35        -0.00050
       5 -> 39        -0.00073
       5 -> 43        -0.00036
       5 -> 45         0.00043
       5 -> 47        -0.00051
       5 -> 51         0.00036
       6 -> 12        -0.00067
       6 -> 16        -0.00020
       6 -> 19         0.00078
       6 -> 22        -0.00109
       6 -> 30        -0.00100
       6 -> 36        -0.00051
       6 -> 40        -0.00091
       6 -> 42        -0.00023
       6 -> 49         0.00149
       6 -> 50        -0.00012
       6 -> 53        -0.00014
       7 -> 27        -0.00070
       7 -> 46         0.00228
       8 -> 10         0.28316
       8 -> 11         0.64520
       8 -> 14         0.02338
       8 -> 15        -0.05137
       8 -> 17        -0.00649
       8 -> 20         0.01538
       8 -> 21         0.00423
       8 -> 24        -0.00410
       8 -> 26         0.00072
       8 -> 29        -0.00399
       8 -> 32        -0.00060
       8 -> 34        -0.00089
       8 -> 35        -0.00085
       8 -> 39         0.00011
       8 -> 41         0.00011
       8 -> 43         0.00011
       8 -> 45         0.00194

 The electronic state is 1-A1.
 Alpha  occ. eigenvalues --  -19.16998 -10.32179  -0.94218  -0.69086  -0.48819
 Alpha  occ. eigenvalues --   -0.42260  -0.33850  -0.29000
 Alpha virt. eigenvalues --   -0.13672  -0.00654   0.01897   0.04106   0.06144
 Alpha virt. eigenvalues --    0.10122   0.13999   0.14812   0.18953   0.21505
 Alpha virt. eigenvalues --    0.23929   0.30098   0.39450   0.41665   0.50969

 Mulliken charges:
               1
     1  C   -0.050483
     2  H    0.173605
     3  H    0.173605
     4  O   -0.296727
 Sum of Mulliken charges =  -0.00000

 Dipole moment (field-independent basis, Debye):
    X=             -0.0000    Y=             -0.0000    Z=             -3.6307  Tot=              3.6307
 Quadrupole moment (field-independent basis, Debye-Ang):
   XX=            -12.6276   YY=            -11.8501   ZZ=            -11.4755
   XY=              0.0000   XZ=              0.0000   YZ=             -0.0000

 Normal termination of Gaussian 16 at Fri Sep 17 10:52:57 2021.
