 Gaussian 16, Revision C.01,
 Gaussian 16:  ES64L-G16RevC.01  3-Jul-2019

 ----------------------------------------
 #P wB97XD/6-311+G* NoSymm #P Field=Y-204
 ----------------------------------------

 -------
 TitleMe
 -------
 Symbolic Z-matrix:
 Charge =  1 Multiplicity = 1

                          Input orientation:
 ---------------------------------------------------------------------
 Center     Atomic      Atomic             Coordinates (Angstroms)
 Number     Number       Type             X           Y           Z
 ---------------------------------------------------------------------
      1          6           0        0.029500    1.339700    0.068200
      2          6           0        1.434800    1.286700    0.006400
      3          6           0        2.111800    0.051100   -0.005400
      4          6           0        1.445100   -1.137200    0.031200
      5          6           0       -0.687900    0.168200    0.110000
      6          1           0       -0.471300    2.298400    0.078100
      7          1           0        2.027300    2.196500   -0.032200
      8          1           0        1.989700   -2.076400    0.023200
      9          1           0       -1.771600    0.180400    0.158200
     10          7           0        3.586400    0.051000   -0.067500
     11          8           0        4.147100   -1.059700   -0.088100
     12          8           0        4.145000    1.163900   -0.090100
     13          6           0       -0.023600   -1.145800    0.083500
     14          1           0       -0.436700   -1.872500    0.788900
     15         35           0       -0.535900   -1.869700   -1.740800
 ---------------------------------------------------------------------

 SCF Done:  E(RwB97XD) =  -3010.55417630     A.U. after   21 cycles

 Alpha  occ. eigenvalues -- -483.34604 -62.89662 -56.69305 -56.68804 -56.68800
 Alpha  occ. eigenvalues --  -19.46669 -19.46202 -14.85830 -10.61079 -10.58264
 Alpha  occ. eigenvalues --  -10.58183 -10.57256 -10.56741 -10.52040  -9.05493
 Alpha  occ. eigenvalues --   -6.88030  -6.86376  -6.86364  -2.97968  -2.97524
 Alpha  occ. eigenvalues --   -2.97515  -2.96190  -2.96190  -1.50149  -1.33116
 Alpha  occ. eigenvalues --   -1.23704  -1.15680  -1.12018  -1.06921  -1.01526
 Alpha  occ. eigenvalues --   -0.96409  -0.91564  -0.85844  -0.81494  -0.81117
 Alpha  occ. eigenvalues --   -0.80570  -0.79530  -0.76538  -0.76084  -0.73807
 Alpha  occ. eigenvalues --   -0.69488  -0.67354  -0.64445  -0.62248  -0.60395
 Alpha  occ. eigenvalues --   -0.57730  -0.57280  -0.56598  -0.55921
 Alpha virt. eigenvalues --   -0.30803  -0.21908  -0.18433  -0.17689  -0.14044
 Alpha virt. eigenvalues --   -0.12987  -0.12658  -0.08999  -0.07740  -0.07488
 Alpha virt. eigenvalues --   -0.06030  -0.05024  -0.03662  -0.03058  -0.01748

 Mulliken charges:
               1
     1  C   -0.529933
     2  C    0.430399
     3  C   -0.625710
     4  C    0.271773
     5  C    0.053116
     6  H    0.412977
     7  H    0.435816
     8  H    0.301857
     9  H    0.357365
    10  N   -0.109817
    11  O   -0.070140
    12  O    0.146710
    13  C   -0.466639
    14  H    0.351153
    15  Br   0.041073
 Sum of Mulliken charges =   1.00000

 Dipole moment (field-independent basis, Debye):
    X=             -0.0860    Y=              5.2910    Z=              0.7250  Tot=              5.3412
 Quadrupole moment (field-independent basis, Debye-Ang):
   XX=            -70.0181   YY=            -55.2283   ZZ=            -64.4149
   XY=              7.8642   XZ=              0.4611   YZ=             -1.0418

 Normal termination of Gaussian 16 at Wed May  1 15:06:45 2024.
