 Gaussian 16, Revision C.01,
 Gaussian 16:  ES64L-G16RevC.01  3-Jul-2019

 ---------------------------------------
 #P wB97XD/6-311+G* NoSymm #P Field=X-48
 ---------------------------------------

 -------
 TitleMe
 -------
 Symbolic Z-matrix:
 Charge =  1 Multiplicity = 1

                          Input orientation:
 ---------------------------------------------------------------------
 Center     Atomic      Atomic             Coordinates (Angstroms)
 Number     Number       Type             X           Y           Z
 ---------------------------------------------------------------------
      1          6           0        0.519300    1.233000   -0.031900
      2          6           0        1.944500    1.269200   -0.036700
      3          6           0        2.620400    0.092800   -0.025000
      4          6           0       -0.196000    0.030100    0.001000
      5          1           0       -0.020700    2.174200   -0.043400
      6          1           0        2.482800    2.208900   -0.036100
      7          1           0       -1.277700    0.039900    0.011700
      8          7           0        4.092100    0.095900    0.036600
      9          8           0        4.639300   -1.021700    0.144600
     10          8           0        4.664900    1.198400   -0.023300
     11          6           0        0.494300   -1.167100    0.021000
     12          1           0       -0.032500   -2.114900    0.054500
     13          6           0        1.962900   -1.216500   -0.021100
     14          1           0        2.443600   -1.963100    0.615100
     15         35           0        2.173000   -1.949100   -1.906200
 ---------------------------------------------------------------------

 SCF Done:  E(RwB97XD) =  -3010.53844899     A.U. after   21 cycles

 Alpha  occ. eigenvalues -- -483.29392 -62.84407 -56.64106 -56.63531 -56.63518
 Alpha  occ. eigenvalues --  -19.43189 -19.43174 -14.82680 -10.57423 -10.56219
 Alpha  occ. eigenvalues --  -10.55876 -10.55580 -10.51601 -10.51460  -9.00208
 Alpha  occ. eigenvalues --   -6.82902  -6.81014  -6.80975  -2.92802  -2.92307
 Alpha  occ. eigenvalues --   -2.92276  -2.90766  -2.90765  -1.46893  -1.29819
 Alpha  occ. eigenvalues --   -1.20736  -1.11234  -1.10624  -1.02991  -0.98324
 Alpha  occ. eigenvalues --   -0.93755  -0.88847  -0.82846  -0.78723  -0.78120
 Alpha  occ. eigenvalues --   -0.77565  -0.76216  -0.73941  -0.73244  -0.70312
 Alpha  occ. eigenvalues --   -0.67168  -0.65973  -0.61814  -0.58050  -0.54534
 Alpha  occ. eigenvalues --   -0.54336  -0.53791  -0.52836  -0.52273
 Alpha virt. eigenvalues --   -0.28401  -0.18160  -0.13810  -0.11070  -0.08411
 Alpha virt. eigenvalues --   -0.05750  -0.04917  -0.03589  -0.03245  -0.02145
 Alpha virt. eigenvalues --   -0.01101  -0.00254   0.00259   0.01057   0.02244

 Mulliken charges:
               1
     1  C   -0.104853
     2  C    0.178373
     3  C   -0.047677
     4  C   -0.331360
     5  H    0.332933
     6  H    0.356273
     7  H    0.307166
     8  N   -0.241400
     9  O    0.106958
    10  O    0.092859
    11  C   -0.224612
    12  H    0.344668
    13  C   -0.380672
    14  H    0.417233
    15  Br   0.194111
 Sum of Mulliken charges =   1.00000

 Dipole moment (field-independent basis, Debye):
    X=              4.1498    Y=             -0.9770    Z=             -0.8204  Tot=              4.3414
 Quadrupole moment (field-independent basis, Debye-Ang):
   XX=            -62.5497   YY=            -51.0567   ZZ=            -62.0207
   XY=             -3.3029   XZ=             -2.9431   YZ=              2.6238

 Normal termination of Gaussian 16 at Thu May  2 14:20:25 2024.
