 Gaussian 16, Revision A.03,
 Gaussian 16:  ES64L-G16RevA.03 25-Dec-2016

 --------------------------------------------------------------------
 #p B3LYP/6-311+G** #p TD=(singlets,nstates=30)IOp(6/8=3) IOp(9/40=4)
 --------------------------------------------------------------------

 ------------------------------
 Scan Step 92, Bond Length 0.96
 ------------------------------
 Symbolic Z-matrix:
 Charge =  0 Multiplicity = 1

                         Standard orientation:
 ---------------------------------------------------------------------
 Center     Atomic      Atomic             Coordinates (Angstroms)
 Number     Number       Type             X           Y           Z
 ---------------------------------------------------------------------
      1          6           0        0.000000   -0.000000   -0.406081
      2          1           0        0.000000    0.937260   -0.997431
      3          1           0       -0.000000   -0.937260   -0.997431
      4          8           0        0.000000    0.000000    0.553919
 ---------------------------------------------------------------------

 SCF Done:  E(RB3LYP) =  -114.378462968     A.U. after    9 cycles

 Excitation energies and oscillator strengths:

 Excited State   1:      Singlet-A2     5.2891 eV  234.41 nm  f=0.0000  <S**2>=0.000
       3 -> 27         0.00299
       3 -> 36         0.00243
       3 -> 46         0.00153
       4 -> 27         0.00321
       4 -> 36        -0.00075
       4 -> 46        -0.00085
       5 ->  9         0.01342
       5 -> 13        -0.00935
       5 -> 17         0.00620
       5 -> 22        -0.00320
       5 -> 28         0.00337
       5 -> 31         0.00252
       5 -> 37         0.00392
       5 -> 43         0.00062
       5 -> 52         0.00081
       6 -> 12        -0.00061
       6 -> 16        -0.00151
       6 -> 18        -0.00096
       6 -> 23         0.00174
       6 -> 24         0.00085
       6 -> 29        -0.00056
       6 -> 33         0.00031
       6 -> 35         0.00054
       6 -> 40        -0.00019
       6 -> 42         0.00046
       6 -> 47         0.00066
       6 -> 50        -0.00017
       6 -> 53         0.00034
       7 -> 27         0.00082
       7 -> 36        -0.00044
       7 -> 46         0.00141
       8 ->  9         0.69722
       8 -> 13        -0.11349
       8 -> 17         0.02809
       8 -> 22        -0.01054
       8 -> 28         0.00603
       8 -> 31         0.00350
       8 -> 37        -0.00199
       8 -> 43        -0.00025
       8 -> 52         0.00113
       3 <- 27         0.00215
       3 <- 36         0.00208
       3 <- 46         0.00159
       4 <- 27         0.00385
       4 <- 36        -0.00035
       4 <- 46        -0.00080
       5 <-  9         0.00024
       5 <- 13        -0.00108
       5 <- 17        -0.00028
       5 <- 22         0.00037
       5 <- 28        -0.00023
       5 <- 31        -0.00112
       5 <- 37         0.00175
       5 <- 43         0.00043
       5 <- 49         0.00014
       5 <- 52         0.00021
       6 <- 12        -0.00096
       6 <- 16         0.00338
       6 <- 18        -0.00281
       6 <- 23         0.00556
       6 <- 24        -0.00132
       6 <- 29         0.00193
       6 <- 33        -0.00110
       6 <- 35         0.00228
       6 <- 40        -0.00028
       6 <- 42         0.00097
       6 <- 47         0.00049
       6 <- 53         0.00089
       7 <- 27         0.00107
       7 <- 36        -0.00046
       7 <- 46         0.00110
       8 <-  9        -0.01255
       8 <- 13         0.00742
       8 <- 17        -0.00395
       8 <- 22         0.00060
       8 <- 28        -0.00043
       8 <- 31         0.00241
       8 <- 37        -0.00225
       8 <- 52         0.00034
 This state for optimization and/or second-order correction.
 Total Energy, E(TD-HF/TD-DFT) =  -114.184092324
 Copying the excited state density for this state as the 1-particle RhoCI density.

 Excited State   2:      Singlet-B2     6.2064 eV  199.77 nm  f=0.0735  <S**2>=0.000
       3 -> 12         0.00101
       3 -> 16        -0.00013
       3 -> 18         0.00112
       3 -> 23        -0.00012
       3 -> 24         0.00122
       3 -> 29        -0.00016
       3 -> 35        -0.00016
       3 -> 42         0.00010
       3 -> 50        -0.00014
       4 -> 12        -0.00552
       4 -> 16         0.00037
       4 -> 18         0.00211
       4 -> 23        -0.00294
       4 -> 24         0.00401
       4 -> 29        -0.00033
       4 -> 33        -0.00094
       4 -> 35         0.00089
       4 -> 40        -0.00024
       4 -> 42         0.00043
       5 -> 11        -0.00798
       5 -> 14         0.00598
       5 -> 15         0.00150
       5 -> 19         0.00359
       5 -> 20        -0.00076
       5 -> 21         0.00352
       5 -> 25         0.00088
       5 -> 26        -0.00155
       5 -> 30         0.00249
       5 -> 32        -0.00017
       5 -> 38        -0.00067
       5 -> 39         0.00021
       5 -> 41         0.00022
       5 -> 44        -0.00047
       5 -> 45        -0.00058
       5 -> 48         0.00032
       6 -> 27         0.00078
       6 -> 46         0.00082
       7 -> 12         0.00192
       7 -> 16         0.00118
       7 -> 18         0.00430
       7 -> 23        -0.00252
       7 -> 24         0.00215
       7 -> 42        -0.00038
       7 -> 47         0.00036
       7 -> 50         0.00051
       8 -> 10         0.70601
       8 -> 11        -0.02818
       8 -> 14        -0.01055
       8 -> 15         0.01118
       8 -> 19         0.01932
       8 -> 20         0.00904
       8 -> 21        -0.00672
       8 -> 25         0.00082
       8 -> 26        -0.00081
       8 -> 30         0.00023
       8 -> 32         0.00232
       8 -> 34         0.00177
       8 -> 38         0.00070
       8 -> 39        -0.00058
       8 -> 41        -0.00023
       8 -> 44         0.00063
       8 -> 45        -0.00098
       8 -> 48         0.00024
       8 -> 54         0.00016
       3 <- 12         0.00031
       3 <- 16        -0.00027
       3 <- 18         0.00059
       3 <- 23        -0.00020
       3 <- 24         0.00085
       3 <- 29        -0.00014
       3 <- 35        -0.00016
       4 <- 12         0.00023
       4 <- 16        -0.00010
       4 <- 18         0.00277
       4 <- 23        -0.00178
       4 <- 24         0.00297
       4 <- 29        -0.00026
       4 <- 33        -0.00068
       4 <- 35         0.00064
       4 <- 40        -0.00025
       4 <- 42         0.00014
       5 <- 10         0.00228
       5 <- 14         0.00457
       5 <- 15         0.00152
       5 <- 19         0.00090
       5 <- 21         0.00201
       5 <- 25         0.00168
       5 <- 26        -0.00131
       5 <- 30         0.00088
       5 <- 32        -0.00048
       5 <- 34        -0.00014
       5 <- 38        -0.00048
       5 <- 39         0.00016
       5 <- 41         0.00030
       5 <- 44        -0.00031
       5 <- 45        -0.00050
       5 <- 48         0.00028
       6 <- 27         0.00060
       6 <- 46         0.00069
       7 <- 12         0.00055
       7 <- 16         0.00116
       7 <- 18         0.00176
       7 <- 23        -0.00098
       7 <- 24         0.00093
       7 <- 29         0.00056
       7 <- 33        -0.00014
       7 <- 35         0.00014
       7 <- 42        -0.00034
       7 <- 47         0.00032
       7 <- 50         0.00055
       8 <- 10        -0.00367
       8 <- 11        -0.00141
       8 <- 14        -0.01099
       8 <- 15        -0.00110
       8 <- 19        -0.00079
       8 <- 20        -0.00034
       8 <- 21        -0.00380
       8 <- 25        -0.00303
       8 <- 26        -0.00052
       8 <- 30        -0.00058
       8 <- 32         0.00102
       8 <- 34         0.00161
       8 <- 38         0.00072
       8 <- 39        -0.00047
       8 <- 44         0.00052
       8 <- 45        -0.00068
       8 <- 48         0.00024

 Excited State   3:      Singlet-B2     6.9935 eV  177.29 nm  f=0.0207  <S**2>=0.000
       3 -> 12        -0.00014
       3 -> 16         0.00070
       3 -> 18         0.00021
       3 -> 23         0.00019
       3 -> 24         0.00039
       3 -> 29         0.00117
       3 -> 33         0.00014
       3 -> 35        -0.00031
       3 -> 42        -0.00033
       3 -> 47         0.00021
       3 -> 50         0.00024
       4 -> 12         0.00304
       4 -> 16         0.00299
       4 -> 18         0.00293
       4 -> 23        -0.00154
       4 -> 24         0.00354
       4 -> 29        -0.00109
       4 -> 33         0.00055
       4 -> 35        -0.00026
       4 -> 40        -0.00021
       4 -> 47         0.00015
       4 -> 50         0.00015
       5 -> 10        -0.00621
       5 -> 11         0.00023
       5 -> 14         0.00395
       5 -> 15         0.00545
       5 -> 19        -0.00373
       5 -> 20        -0.00149
       5 -> 21         0.00122
       5 -> 25         0.00115
       5 -> 26         0.00123
       5 -> 30         0.00086
       5 -> 32        -0.00194
       5 -> 34        -0.00071
       5 -> 39        -0.00063
       5 -> 41        -0.00082
       5 -> 45         0.00064
       5 -> 48        -0.00045
       5 -> 51        -0.00025
       6 -> 27        -0.00073
       6 -> 36        -0.00129
       6 -> 46        -0.00121
       7 -> 12        -0.00308
       7 -> 16         0.00096
       7 -> 18        -0.00225
       7 -> 23         0.00141
       7 -> 24        -0.00014
       7 -> 29         0.00016
       7 -> 33        -0.00032
       7 -> 35         0.00132
       7 -> 40        -0.00037
       7 -> 42         0.00073
       7 -> 47        -0.00068
       7 -> 50        -0.00065
       7 -> 53         0.00015
       8 -> 10         0.02874
       8 -> 11         0.70553
       8 -> 14        -0.01507
       8 -> 15        -0.02118
       8 -> 19        -0.02025
       8 -> 20         0.01411
       8 -> 21        -0.00231
       8 -> 25         0.00032
       8 -> 26         0.00039
       8 -> 30        -0.00160
       8 -> 34         0.00042
       8 -> 38        -0.00011
       8 -> 39        -0.00038
       8 -> 41        -0.00141
       8 -> 45         0.00081
       8 -> 48        -0.00074
       8 -> 51        -0.00024
       8 -> 54        -0.00017
       3 <- 12         0.00027
       3 <- 16         0.00051
       3 <- 18         0.00050
       3 <- 24         0.00046
       3 <- 29         0.00075
       3 <- 33         0.00019
       3 <- 35        -0.00035
       3 <- 42        -0.00028
       3 <- 47         0.00017
       3 <- 50         0.00014
       3 <- 53        -0.00022
       4 <- 12         0.00032
       4 <- 16         0.00017
       4 <- 18         0.00121
       4 <- 23        -0.00127
       4 <- 24         0.00158
       4 <- 29        -0.00045
       4 <- 33         0.00054
       4 <- 40        -0.00021
       4 <- 42        -0.00013
       4 <- 50         0.00022
       5 <- 10         0.00135
       5 <- 11        -0.00048
       5 <- 14         0.00197
       5 <- 15         0.00050
       5 <- 19         0.00066
       5 <- 20         0.00014
       5 <- 21         0.00099
       5 <- 25         0.00097
       5 <- 26         0.00087
       5 <- 30         0.00079
       5 <- 32        -0.00050
       5 <- 34        -0.00118
       5 <- 38         0.00013
       5 <- 39        -0.00041
       5 <- 41        -0.00084
       5 <- 44        -0.00013
       5 <- 45         0.00063
       5 <- 48        -0.00031
       5 <- 51        -0.00025
       6 <- 27        -0.00029
       6 <- 36        -0.00105
       6 <- 46        -0.00104
       7 <- 12        -0.00036
       7 <- 16        -0.00015
       7 <- 18        -0.00030
       7 <- 23         0.00031
       7 <- 29        -0.00017
       7 <- 33        -0.00011
       7 <- 35         0.00094
       7 <- 40        -0.00029
       7 <- 42         0.00051
       7 <- 47        -0.00059
       7 <- 50        -0.00058
       8 <- 10        -0.00135
       8 <- 11         0.00100
       8 <- 14        -0.00554
       8 <- 15        -0.00104
       8 <- 19         0.00229
       8 <- 20        -0.00172
       8 <- 21        -0.00242
       8 <- 25        -0.00024
       8 <- 26         0.00112
       8 <- 30        -0.00097
       8 <- 32         0.00114
       8 <- 34        -0.00012
       8 <- 38        -0.00027
       8 <- 39        -0.00015
       8 <- 41        -0.00118
       8 <- 45         0.00069
       8 <- 48        -0.00048
       8 <- 51        -0.00023

 Excited State   4:      Singlet-A1     7.1321 eV  173.84 nm  f=0.0492  <S**2>=0.000
       3 -> 10         0.00142
       3 -> 11        -0.00093
       3 -> 14         0.00026
       3 -> 15         0.00052
       3 -> 19         0.00123
       3 -> 20         0.00059
       3 -> 25         0.00011
       3 -> 26        -0.00025
       3 -> 30         0.00114
       3 -> 32        -0.00029
       3 -> 34        -0.00021
       3 -> 38        -0.00035
       3 -> 39        -0.00020
       3 -> 41        -0.00017
       3 -> 48        -0.00015
       3 -> 51        -0.00032
       3 -> 54        -0.00021
       4 -> 10         0.00555
       4 -> 11         0.00960
       4 -> 14         0.00620
       4 -> 15         0.00111
       4 -> 19         0.00076
       4 -> 20         0.00632
       4 -> 21         0.00248
       4 -> 25         0.00699
       4 -> 26        -0.00080
       4 -> 30        -0.00065
       4 -> 32        -0.00043
       4 -> 34        -0.00093
       4 -> 38        -0.00015
       4 -> 39         0.00062
       4 -> 41         0.00020
       4 -> 45        -0.00031
       4 -> 48        -0.00025
       5 -> 12         0.00774
       5 -> 16         0.00523
       5 -> 18         0.01002
       5 -> 24         0.00456
       5 -> 29         0.00048
       5 -> 33        -0.00016
       5 -> 35         0.00090
       5 -> 42        -0.00020
       5 -> 50        -0.00036
       5 -> 53        -0.00015
       6 ->  9         0.00906
       6 -> 13         0.00491
       6 -> 17         0.00511
       6 -> 22         0.00455
       6 -> 28         0.00042
       6 -> 31         0.00086
       6 -> 37         0.00053
       6 -> 43         0.00057
       6 -> 49        -0.00037
       7 -> 10         0.01334
       7 -> 11        -0.00484
       7 -> 14         0.00351
       7 -> 15        -0.00134
       7 -> 19         0.00681
       7 -> 20         0.00379
       7 -> 21         0.00151
       7 -> 25         0.00215
       7 -> 26        -0.00043
       7 -> 30        -0.00017
       7 -> 32         0.00057
       7 -> 34        -0.00086
       7 -> 39         0.00018
       7 -> 44         0.00010
       7 -> 48        -0.00019
       7 -> 51         0.00051
       8 -> 12         0.70558
       8 -> 16         0.03641
       8 -> 18         0.01423
       8 -> 23         0.00460
       8 -> 24         0.00150
       8 -> 29         0.00262
       8 -> 33         0.00151
       8 -> 35        -0.00237
       8 -> 42         0.00124
       8 -> 47        -0.00039
       8 -> 50        -0.00019
       8 -> 53        -0.00015
       3 <- 10         0.00057
       3 <- 11        -0.00030
       3 <- 14         0.00018
       3 <- 15         0.00022
       3 <- 19         0.00063
       3 <- 20         0.00026
       3 <- 25         0.00025
       3 <- 30         0.00068
       3 <- 32        -0.00023
       3 <- 34        -0.00012
       3 <- 38        -0.00027
       3 <- 39        -0.00017
       3 <- 41        -0.00016
       3 <- 45         0.00010
       3 <- 48        -0.00017
       3 <- 51        -0.00028
       3 <- 54        -0.00019
       4 <- 10         0.00547
       4 <- 11         0.00311
       4 <- 14         0.00457
       4 <- 15         0.00131
       4 <- 19         0.00058
       4 <- 20         0.00357
       4 <- 21         0.00094
       4 <- 25         0.00412
       4 <- 26        -0.00037
       4 <- 32        -0.00071
       4 <- 34        -0.00092
       4 <- 38        -0.00023
       4 <- 39         0.00056
       4 <- 45        -0.00029
       4 <- 48        -0.00021
       5 <- 12         0.00271
       5 <- 16         0.00080
       5 <- 18         0.00428
       5 <- 23         0.00037
       5 <- 24         0.00247
       5 <- 29         0.00011
       5 <- 33        -0.00031
       5 <- 35         0.00080
       5 <- 42        -0.00017
       5 <- 50        -0.00028
       5 <- 53        -0.00013
       6 <-  9         0.00256
       6 <- 13         0.00174
       6 <- 17         0.00211
       6 <- 22         0.00259
       6 <- 28         0.00022
       6 <- 31         0.00064
       6 <- 37         0.00043
       6 <- 43         0.00048
       6 <- 49        -0.00032
       7 <- 10         0.00427
       7 <- 11        -0.00095
       7 <- 14         0.00163
       7 <- 15        -0.00045
       7 <- 19         0.00274
       7 <- 20         0.00208
       7 <- 21         0.00057
       7 <- 25         0.00124
       7 <- 26        -0.00045
       7 <- 32         0.00031
       7 <- 34        -0.00064
       7 <- 39         0.00025
       7 <- 41         0.00013
       7 <- 51         0.00047
       8 <- 12        -0.00285
       8 <- 16         0.00770
       8 <- 18        -0.00737
       8 <- 24        -0.00236
       8 <- 29         0.00107
       8 <- 33         0.00103
       8 <- 35        -0.00156
       8 <- 42         0.00102
       8 <- 47        -0.00046
       8 <- 50        -0.00016
       8 <- 53        -0.00017

 Excited State   5:      Singlet-A2     7.7295 eV  160.40 nm  f=0.0000  <S**2>=0.000
       3 -> 27        -0.00123
       3 -> 36        -0.00106
       3 -> 46        -0.00057
       4 -> 27        -0.00033
       4 -> 36         0.00066
       4 -> 46         0.00019
       5 ->  9        -0.00971
       5 -> 13         0.00444
       5 -> 17         0.00391
       5 -> 22         0.00012
       5 -> 31        -0.00211
       5 -> 37        -0.00194
       5 -> 43        -0.00029
       5 -> 52        -0.00029
       6 -> 12        -0.00037
       6 -> 16         0.00204
       6 -> 18         0.00102
       6 -> 23        -0.00101
       6 -> 24        -0.00026
       6 -> 29         0.00029
       6 -> 35        -0.00028
       6 -> 42        -0.00025
       6 -> 47        -0.00024
       6 -> 53        -0.00014
       7 -> 36         0.00026
       7 -> 46        -0.00060
       8 ->  9         0.11384
       8 -> 13         0.69746
       8 -> 17         0.00361
       8 -> 22         0.02158
       8 -> 28        -0.00105
       8 -> 31        -0.00132
       8 -> 37         0.00048
       8 -> 43         0.00011
       8 -> 49         0.00018
       8 -> 52        -0.00035
       3 <- 27        -0.00067
       3 <- 36        -0.00084
       3 <- 46        -0.00067
       4 <- 27        -0.00085
       4 <- 46         0.00021
       5 <-  9        -0.00027
       5 <- 17         0.00062
       5 <- 22        -0.00011
       5 <- 31         0.00012
       5 <- 37        -0.00056
       5 <- 43        -0.00015
       6 <- 12        -0.00057
       6 <- 16         0.00053
       6 <- 18         0.00061
       6 <- 23        -0.00203
       6 <- 33         0.00061
       6 <- 35        -0.00109
       6 <- 40         0.00013
       6 <- 42        -0.00059
       6 <- 53        -0.00029
       7 <- 27        -0.00026
       7 <- 36         0.00025
       7 <- 46        -0.00027
       8 <-  9         0.00541
       8 <- 13         0.00042
       8 <- 17         0.00047
       8 <- 22        -0.00044
       8 <- 28         0.00018
       8 <- 31        -0.00058
       8 <- 37         0.00062
       8 <- 52        -0.00014

 Excited State   6:      Singlet-B2    10.0998 eV  122.76 nm  f=0.2639  <S**2>=0.000
       3 -> 12        -0.00041
       3 -> 16         0.00185
       3 -> 18        -0.00031
       3 -> 23         0.00141
       3 -> 24         0.00075
       3 -> 29         0.00132
       3 -> 33        -0.00088
       3 -> 40         0.00030

 The electronic state is 1-A1.
 Alpha  occ. eigenvalues --  -19.13827 -10.24119  -1.22674  -0.60668  -0.57555
 Alpha  occ. eigenvalues --   -0.51869  -0.50561  -0.25357
 Alpha virt. eigenvalues --    0.00134   0.01354   0.04315   0.04398   0.07878
 Alpha virt. eigenvalues --    0.13977   0.17912   0.20381   0.21954   0.22634
 Alpha virt. eigenvalues --    0.26631   0.36055   0.49677   0.51898   0.51908

 Mulliken charges:
               1
     1  C    0.145993
     2  H    0.030636
     3  H    0.030636
     4  O   -0.207265
 Sum of Mulliken charges =  -0.00000

 Dipole moment (field-independent basis, Debye):
    X=              0.0000    Y=              0.0000    Z=             -1.0485  Tot=              1.0485
 Quadrupole moment (field-independent basis, Debye-Ang):
   XX=            -10.9974   YY=            -12.1045   ZZ=            -13.0498
   XY=             -0.0000   XZ=             -0.0000   YZ=             -0.0000

 Normal termination of Gaussian 16 at Fri Sep 17 10:52:33 2021.
