 Gaussian 16, Revision A.03,
 Gaussian 16:  ES64L-G16RevA.03 25-Dec-2016

 --------------------------------------------------------------------
 #p B3LYP/6-311+G** #p TD=(singlets,nstates=30)IOp(6/8=3) IOp(9/40=4)
 --------------------------------------------------------------------

 ---------------------------------------------
 Scan Step 103, Bond Length 1.0150000000000001
 ---------------------------------------------
 Symbolic Z-matrix:
 Charge =  0 Multiplicity = 1

                         Standard orientation:
 ---------------------------------------------------------------------
 Center     Atomic      Atomic             Coordinates (Angstroms)
 Number     Number       Type             X           Y           Z
 ---------------------------------------------------------------------
      1          6           0        0.000000    0.000000   -0.433581
      2          1           0        0.000000    0.937260   -1.024931
      3          1           0       -0.000000   -0.937260   -1.024931
      4          8           0        0.000000   -0.000000    0.581419
 ---------------------------------------------------------------------

 SCF Done:  E(RB3LYP) =  -114.457146211     A.U. after    9 cycles

 Excitation energies and oscillator strengths:

 Excited State   1:      Singlet-A2     5.0289 eV  246.55 nm  f=0.0000  <S**2>=0.000
       3 -> 27         0.00298
       3 -> 37         0.00247
       3 -> 46         0.00176
       4 -> 27         0.00292
       4 -> 37        -0.00074
       4 -> 46        -0.00097
       5 ->  9         0.01700
       5 -> 13        -0.00837
       5 -> 17         0.00621
       5 -> 23        -0.00265
       5 -> 28         0.00364
       5 -> 31         0.00282
       5 -> 36         0.00402
       5 -> 44         0.00067
       5 -> 47         0.00011
       5 -> 52         0.00085
       6 -> 27         0.00061
       6 -> 37        -0.00056
       6 -> 46         0.00156
       7 -> 12        -0.00062
       7 -> 16         0.00174
       7 -> 18         0.00151
       7 -> 22         0.00161
       7 -> 24         0.00108
       7 -> 29        -0.00066
       7 -> 34         0.00034
       7 -> 35         0.00051
       7 -> 40        -0.00029
       7 -> 42        -0.00035
       7 -> 48         0.00063
       7 -> 50        -0.00018
       7 -> 53         0.00038
       8 ->  9         0.70013
       8 -> 13        -0.09409
       8 -> 17         0.02638
       8 -> 23        -0.01160
       8 -> 28         0.00665
       8 -> 31         0.00350
       8 -> 36        -0.00159
       8 -> 44        -0.00025
       8 -> 47        -0.00014
       8 -> 52         0.00127
       3 <- 27         0.00210
       3 <- 37         0.00210
       3 <- 46         0.00184
       4 <- 27         0.00366
       4 <- 37        -0.00025
       4 <- 46        -0.00089
       5 <-  9         0.00014
       5 <- 13        -0.00100
       5 <- 17        -0.00052
       5 <- 23         0.00046
       5 <- 28        -0.00035
       5 <- 31        -0.00111
       5 <- 36         0.00180
       5 <- 44         0.00040
       5 <- 47         0.00016
       5 <- 52         0.00022
       6 <- 27         0.00096
       6 <- 37        -0.00055
       6 <- 46         0.00121
       7 <- 12        -0.00097
       7 <- 16        -0.00459
       7 <- 18         0.00198
       7 <- 22         0.00616
       7 <- 24        -0.00102
       7 <- 29         0.00218
       7 <- 34        -0.00122
       7 <- 35         0.00245
       7 <- 40        -0.00052
       7 <- 42        -0.00091
       7 <- 48         0.00046
       7 <- 53         0.00100
       8 <-  9        -0.01527
       8 <- 13         0.00620
       8 <- 17        -0.00385
       8 <- 23         0.00068
       8 <- 28        -0.00048
       8 <- 31         0.00204
       8 <- 36        -0.00213
       8 <- 52         0.00038
 This state for optimization and/or second-order correction.
 Total Energy, E(TD-HF/TD-DFT) =  -114.272339301
 Copying the excited state density for this state as the 1-particle RhoCI density.

 Excited State   2:      Singlet-B2     6.4110 eV  193.39 nm  f=0.0634  <S**2>=0.000
       3 -> 12         0.00111
       3 -> 16         0.00042
       3 -> 18        -0.00112
       3 -> 22        -0.00018
       3 -> 24         0.00127
       3 -> 29        -0.00014
       3 -> 35        -0.00021
       3 -> 50        -0.00012
       4 -> 12        -0.00496
       4 -> 16         0.00043
       4 -> 18        -0.00235
       4 -> 22        -0.00316
       4 -> 24         0.00392
       4 -> 29        -0.00016
       4 -> 34        -0.00087
       4 -> 35         0.00086
       4 -> 40        -0.00035
       4 -> 42        -0.00036
       5 -> 10        -0.00131
       5 -> 11        -0.00873
       5 -> 14         0.00640
       5 -> 15        -0.00140
       5 -> 19         0.00330
       5 -> 20        -0.00035
       5 -> 21         0.00406
       5 -> 25         0.00057
       5 -> 26        -0.00194
       5 -> 30         0.00248
       5 -> 32        -0.00032
       5 -> 33        -0.00038
       5 -> 38        -0.00053
       5 -> 39        -0.00026
       5 -> 43        -0.00052
       5 -> 45        -0.00057
       5 -> 49         0.00025
       6 -> 12         0.00160
       6 -> 16         0.00018
       6 -> 18        -0.00412
       6 -> 22        -0.00266
       6 -> 24         0.00191
       6 -> 29        -0.00020
       6 -> 34        -0.00010
       6 -> 42         0.00037
       6 -> 48         0.00036
       6 -> 50         0.00051
       7 -> 27         0.00062
       7 -> 37        -0.00014
       7 -> 46         0.00077
       8 -> 10         0.70555
       8 -> 11        -0.03917
       8 -> 14        -0.00435
       8 -> 15        -0.01044
       8 -> 19         0.01842
       8 -> 20         0.00981
       8 -> 21        -0.00585
       8 -> 25         0.00084
       8 -> 26        -0.00104
       8 -> 30         0.00041
       8 -> 32         0.00180
       8 -> 33         0.00196
       8 -> 38         0.00061
       8 -> 39         0.00056
       8 -> 41        -0.00018
       8 -> 43         0.00069
       8 -> 45        -0.00092
       8 -> 49         0.00013
       8 -> 54         0.00016
       3 <- 12         0.00032
       3 <- 16         0.00042
       3 <- 18        -0.00053
       3 <- 22        -0.00027
       3 <- 24         0.00086
       3 <- 29        -0.00013
       3 <- 35        -0.00020
       4 <- 12         0.00041
       4 <- 16         0.00095
       4 <- 18        -0.00268
       4 <- 22        -0.00193
       4 <- 24         0.00285
       4 <- 29        -0.00012
       4 <- 34        -0.00061
       4 <- 35         0.00060
       4 <- 40        -0.00028
       5 <- 10         0.00239
       5 <- 11        -0.00012
       5 <- 14         0.00478
       5 <- 15        -0.00135
       5 <- 19         0.00081
       5 <- 20         0.00012
       5 <- 21         0.00216
       5 <- 25         0.00167
       5 <- 26        -0.00140
       5 <- 30         0.00082
       5 <- 32        -0.00056
       5 <- 33        -0.00041
       5 <- 38        -0.00043
       5 <- 39        -0.00017
       5 <- 41         0.00020
       5 <- 43        -0.00035
       5 <- 45        -0.00048
       5 <- 49         0.00023
       6 <- 12         0.00046
       6 <- 16        -0.00058
       6 <- 18        -0.00181
       6 <- 22        -0.00099
       6 <- 24         0.00078
       6 <- 29         0.00047
       6 <- 34        -0.00017
       6 <- 35         0.00020
       6 <- 42         0.00035
       6 <- 48         0.00031
       6 <- 50         0.00053
       7 <- 27         0.00048
       7 <- 37        -0.00010
       7 <- 46         0.00065
       8 <- 10        -0.00316
       8 <- 11        -0.00104
       8 <- 14        -0.00961
       8 <- 15         0.00058
       8 <- 19        -0.00063
       8 <- 20        -0.00036
       8 <- 21        -0.00345
       8 <- 25        -0.00294
       8 <- 26        -0.00032
       8 <- 30        -0.00065
       8 <- 32         0.00058
       8 <- 33         0.00163
       8 <- 38         0.00062
       8 <- 39         0.00046
       8 <- 43         0.00054
       8 <- 45        -0.00063
       8 <- 49         0.00017
       8 <- 51         0.00012

 Excited State   3:      Singlet-B2     7.2011 eV  172.17 nm  f=0.0206  <S**2>=0.000
       3 -> 12        -0.00017
       3 -> 16        -0.00067
       3 -> 18        -0.00041
       3 -> 22         0.00021
       3 -> 24         0.00035
       3 -> 29         0.00134
       3 -> 34         0.00014
       3 -> 35        -0.00033
       3 -> 40         0.00011
       3 -> 42         0.00032
       3 -> 48         0.00023
       3 -> 50         0.00026
       4 -> 12         0.00313
       4 -> 16        -0.00182
       4 -> 18        -0.00335
       4 -> 22        -0.00156
       4 -> 24         0.00342
       4 -> 29        -0.00106
       4 -> 34         0.00055
       4 -> 35        -0.00034
       4 -> 40        -0.00016
       4 -> 42         0.00013
       4 -> 48         0.00017
       4 -> 50         0.00016
       5 -> 10        -0.00695
       5 -> 11         0.00033
       5 -> 14         0.00483
       5 -> 15        -0.00604
       5 -> 19        -0.00387
       5 -> 20        -0.00216
       5 -> 21         0.00109
       5 -> 25         0.00130
       5 -> 26         0.00104
       5 -> 30         0.00110
       5 -> 32        -0.00166
       5 -> 33        -0.00095
       5 -> 39         0.00054
       5 -> 41        -0.00086
       5 -> 45         0.00071
       5 -> 49        -0.00040
       5 -> 51        -0.00029
       6 -> 12        -0.00319
       6 -> 16        -0.00156
       6 -> 18         0.00187
       6 -> 22         0.00146
       6 -> 29         0.00035
       6 -> 34        -0.00037
       6 -> 35         0.00139
       6 -> 40        -0.00054
       6 -> 42        -0.00068
       6 -> 48        -0.00072
       6 -> 50        -0.00068
       6 -> 53         0.00013
       7 -> 27        -0.00060
       7 -> 37        -0.00123
       7 -> 46        -0.00132
       8 -> 10         0.03979
       8 -> 11         0.70502
       8 -> 14        -0.01342
       8 -> 15         0.01907
       8 -> 19        -0.02226
       8 -> 20         0.01321
       8 -> 21        -0.00208
       8 -> 25         0.00037
       8 -> 26         0.00097
       8 -> 30        -0.00132
       8 -> 32        -0.00013
       8 -> 33         0.00040
       8 -> 39         0.00017
       8 -> 41        -0.00143
       8 -> 45         0.00101
       8 -> 49        -0.00074
       8 -> 51        -0.00037
       8 -> 54        -0.00017
       3 <- 12         0.00030
       3 <- 16        -0.00038
       3 <- 18        -0.00066
       3 <- 24         0.00044
       3 <- 29         0.00084
       3 <- 34         0.00020
       3 <- 35        -0.00037
       3 <- 40         0.00011
       3 <- 42         0.00027
       3 <- 48         0.00019
       3 <- 50         0.00016
       3 <- 53        -0.00022
       4 <- 12         0.00035
       4 <- 16         0.00024
       4 <- 18        -0.00111
       4 <- 22        -0.00124
       4 <- 24         0.00146
       4 <- 29        -0.00044
       4 <- 34         0.00052
       4 <- 40        -0.00014
       4 <- 42         0.00018
       4 <- 48         0.00011
       4 <- 50         0.00022
       5 <- 10         0.00133
       5 <- 11        -0.00064
       5 <- 14         0.00209
       5 <- 15        -0.00047
       5 <- 19         0.00070
       5 <- 21         0.00095
       5 <- 25         0.00104
       5 <- 26         0.00076
       5 <- 30         0.00076
       5 <- 32        -0.00017
       5 <- 33        -0.00126
       5 <- 38         0.00016
       5 <- 39         0.00030
       5 <- 41        -0.00088
       5 <- 45         0.00067
       5 <- 49        -0.00027
       5 <- 51        -0.00028
       6 <- 12        -0.00036
       6 <- 18         0.00028
       6 <- 22         0.00039
       6 <- 34        -0.00017
       6 <- 35         0.00101
       6 <- 40        -0.00040
       6 <- 42        -0.00048
       6 <- 48        -0.00062
       6 <- 50        -0.00059
       7 <- 27        -0.00019
       7 <- 37        -0.00099
       7 <- 46        -0.00113
       8 <- 10        -0.00105
       8 <- 11         0.00069
       8 <- 14        -0.00490
       8 <- 15         0.00080
       8 <- 19         0.00260
       8 <- 20        -0.00155
       8 <- 21        -0.00226
       8 <- 25        -0.00010
       8 <- 26         0.00134
       8 <- 30        -0.00076
       8 <- 32         0.00120
       8 <- 38        -0.00022
       8 <- 41        -0.00120
       8 <- 45         0.00083
       8 <- 49        -0.00047
       8 <- 51        -0.00033

 Excited State   4:      Singlet-A1     7.3427 eV  168.85 nm  f=0.0526  <S**2>=0.000
       3 -> 10         0.00152
       3 -> 11        -0.00099
       3 -> 14         0.00039
       3 -> 15        -0.00045
       3 -> 19         0.00109
       3 -> 20         0.00082
       3 -> 21         0.00011
       3 -> 26        -0.00048
       3 -> 30         0.00121
       3 -> 32        -0.00032
       3 -> 33        -0.00024
       3 -> 38        -0.00034
       3 -> 39         0.00016
       3 -> 41        -0.00019
       3 -> 49        -0.00011
       3 -> 51        -0.00035
       3 -> 54        -0.00021
       4 -> 10         0.00548
       4 -> 11         0.00876
       4 -> 14         0.00601
       4 -> 15        -0.00059
       4 -> 19         0.00061
       4 -> 20         0.00592
       4 -> 21         0.00251
       4 -> 25         0.00708
       4 -> 26        -0.00085
       4 -> 30        -0.00056
       4 -> 32        -0.00018
       4 -> 33        -0.00086
       4 -> 39        -0.00045
       4 -> 41         0.00021
       4 -> 43         0.00012
       4 -> 45        -0.00027
       4 -> 49        -0.00023
       5 -> 12         0.00774
       5 -> 16        -0.00233
       5 -> 18        -0.01134
       5 -> 22        -0.00059
       5 -> 24         0.00485
       5 -> 29         0.00032
       5 -> 34        -0.00016
       5 -> 35         0.00086
       5 -> 42         0.00016
       5 -> 50        -0.00035
       5 -> 53        -0.00015
       6 -> 10         0.01339
       6 -> 11        -0.00448
       6 -> 14         0.00391
       6 -> 15         0.00148
       6 -> 19         0.00581
       6 -> 20         0.00422
       6 -> 21         0.00175
       6 -> 25         0.00230
       6 -> 26        -0.00057
       6 -> 30        -0.00059
       6 -> 32         0.00055
       6 -> 33        -0.00073
       6 -> 39        -0.00012
       6 -> 43         0.00011
       6 -> 49        -0.00021
       6 -> 51         0.00055
       7 ->  9         0.01042
       7 -> 13         0.00631
       7 -> 17         0.00485
       7 -> 23         0.00486
       7 -> 28         0.00018
       7 -> 31         0.00085
       7 -> 36         0.00054
       7 -> 44         0.00062
       7 -> 47        -0.00036
       8 -> 12         0.70565
       8 -> 16        -0.02846
       8 -> 18        -0.02346
       8 -> 22         0.00507
       8 -> 24         0.00181
       8 -> 29         0.00206
       8 -> 34         0.00151
       8 -> 35        -0.00225
       8 -> 40        -0.00028
       8 -> 42        -0.00106
       8 -> 48        -0.00036
       8 -> 50        -0.00025
       8 -> 53        -0.00018
       3 <- 10         0.00058
       3 <- 11        -0.00027
       3 <- 14         0.00025
       3 <- 15        -0.00015
       3 <- 19         0.00052
       3 <- 20         0.00037
       3 <- 21         0.00018
       3 <- 25         0.00018
       3 <- 26        -0.00024
       3 <- 30         0.00074
       3 <- 32        -0.00026
       3 <- 33        -0.00011
       3 <- 38        -0.00026
       3 <- 39         0.00014
       3 <- 41        -0.00017
       3 <- 45         0.00014
       3 <- 49        -0.00013
       3 <- 51        -0.00030
       3 <- 54        -0.00019
       4 <- 10         0.00521
       4 <- 11         0.00263
       4 <- 14         0.00441
       4 <- 15        -0.00092
       4 <- 19         0.00046
       4 <- 20         0.00335
       4 <- 21         0.00101
       4 <- 25         0.00408
       4 <- 26        -0.00045
       4 <- 32        -0.00047
       4 <- 33        -0.00099
       4 <- 38        -0.00016
       4 <- 39        -0.00044
       4 <- 45        -0.00026
       4 <- 49        -0.00019
       5 <- 12         0.00276
       5 <- 16         0.00057
       5 <- 18        -0.00441
       5 <- 24         0.00263
       5 <- 34        -0.00032
       5 <- 35         0.00078
       5 <- 42         0.00014
       5 <- 50        -0.00025
       5 <- 53        -0.00014
       6 <- 10         0.00402
       6 <- 11        -0.00073
       6 <- 14         0.00173
       6 <- 15         0.00049
       6 <- 19         0.00221
       6 <- 20         0.00222
       6 <- 21         0.00068
       6 <- 25         0.00127
       6 <- 26        -0.00057
       6 <- 30        -0.00025
       6 <- 32         0.00030
       6 <- 33        -0.00058
       6 <- 39        -0.00020
       6 <- 41         0.00014
       6 <- 51         0.00050
       7 <-  9         0.00230
       7 <- 13         0.00200
       7 <- 17         0.00182
       7 <- 23         0.00266
       7 <- 31         0.00062
       7 <- 36         0.00044
       7 <- 44         0.00052
       7 <- 47        -0.00031
       8 <- 12        -0.00227
       8 <- 16        -0.00828
       8 <- 18         0.00483
       8 <- 22         0.00047
       8 <- 24        -0.00237
       8 <- 29         0.00063
       8 <- 34         0.00093
       8 <- 35        -0.00138
       8 <- 40        -0.00028
       8 <- 42        -0.00088
       8 <- 48        -0.00043
       8 <- 50        -0.00021
       8 <- 53        -0.00019

 Excited State   5:      Singlet-A2     7.8778 eV  157.38 nm  f=0.0000  <S**2>=0.000
       3 -> 27        -0.00093
       3 -> 37        -0.00082
       3 -> 46        -0.00047
       4 -> 37         0.00061
       4 -> 46         0.00015
       5 ->  9        -0.00985
       5 -> 13         0.00172
       5 -> 17         0.00492
       5 -> 23        -0.00062
       5 -> 31        -0.00196
       5 -> 36        -0.00158
       5 -> 44        -0.00027
       5 -> 52        -0.00022
       6 -> 27         0.00013
       6 -> 37         0.00028
       6 -> 46        -0.00049
       7 -> 12        -0.00047
       7 -> 16        -0.00190
       7 -> 18        -0.00150
       7 -> 22        -0.00084
       7 -> 24        -0.00024
       7 -> 29         0.00022
       7 -> 35        -0.00022
       7 -> 40         0.00011
       7 -> 42         0.00017
       7 -> 48        -0.00018
       7 -> 53        -0.00011
       8 ->  9         0.09428
       8 -> 13         0.70036
       8 -> 17         0.00885
       8 -> 23         0.02027
       8 -> 28        -0.00052
       8 -> 31        -0.00125
       8 -> 36         0.00015
       8 -> 47         0.00018
       8 -> 52        -0.00027
       3 <- 27        -0.00045
       3 <- 37        -0.00063
       3 <- 46        -0.00056
       4 <- 27        -0.00051
       4 <- 46         0.00015
       5 <-  9        -0.00025
       5 <- 13        -0.00017
       5 <- 17         0.00063
       5 <- 36        -0.00042
       6 <- 27        -0.00015
       6 <- 37         0.00023
       6 <- 46        -0.00019
       7 <- 12        -0.00063
       7 <- 16        -0.00062
       7 <- 18        -0.00061
       7 <- 22        -0.00165
       7 <- 24        -0.00019
       7 <- 29         0.00013
       7 <- 34         0.00054
       7 <- 35        -0.00092
       7 <- 40         0.00022
       7 <- 42         0.00048
       7 <- 53        -0.00022
       8 <-  9         0.00425
       8 <- 13         0.00111
       8 <- 17         0.00030
       8 <- 23        -0.00035
       8 <- 28         0.00013
       8 <- 31        -0.00033
       8 <- 36         0.00042
       8 <- 52        -0.00012

 The electronic state is 1-A1.
 Alpha  occ. eigenvalues --  -19.14009 -10.24830  -1.19063  -0.61555  -0.55334
 Alpha  occ. eigenvalues --   -0.49489  -0.48937  -0.26198
 Alpha virt. eigenvalues --   -0.01260   0.01267   0.04247   0.04372   0.07304
 Alpha virt. eigenvalues --    0.13763   0.18062   0.19972   0.21995   0.22563
 Alpha virt. eigenvalues --    0.26934   0.35674   0.49163   0.50575   0.51480

 Mulliken charges:
               1
     1  C    0.102123
     2  H    0.051934
     3  H    0.051934
     4  O   -0.205991
 Sum of Mulliken charges =  -0.00000

 Dipole moment (field-independent basis, Debye):
    X=              0.0000    Y=              0.0000    Z=             -1.4247  Tot=              1.4247
 Quadrupole moment (field-independent basis, Debye-Ang):
   XX=            -11.1677   YY=            -11.9632   ZZ=            -12.9166
   XY=             -0.0000   XZ=              0.0000   YZ=              0.0000

 Normal termination of Gaussian 16 at Fri Sep 17 10:52:36 2021.
