 Q-Chem 6.0, Q-Chem, Inc., Pleasanton, CA (2022)
 Q-Chem 6.0.2 for Intel X86 EM64T Linux

User input:
--------------------------------------------------------------
$molecule
1 1
C                 -0.80658313    1.22973465    0.03041801
C                  0.56153576    1.23725234    0.01622618
C                  1.22915389    0.01001055    0.01220575
H                 -1.36676923    2.15803094    0.04420367
H                  1.14116413    2.14927050    0.01037697
N                  2.71357475    0.03144573   -0.00289824
O                  3.28013247   -1.09741954   -0.00254733
O                  3.24714953    1.17621948   -0.01252002
C                 -0.77042978   -1.26805414    0.04039660
H                 -1.30353926   -2.21202933    0.06122375
C                  0.59726287   -1.23605918    0.02634378
H                  1.20308359   -2.13089607    0.02793117
C                 -1.56287141   -0.03049318    0.01040538
H                 -2.41148563   -0.03994459    0.70143946
Br                -2.40993182   -0.04931830   -1.82359612
$end

$rem
!SCF_GUESS         read
!SKIP_CIS_RPA      TRUE
METHOD             wB97XD
RPA                TRUE
BASIS              6-311+G*
CIS_N_ROOTS        100
CIS_SINGLETS       TRUE
CIS_TRIPLETS       FALSE
MAKE_CUBE_FILES    TRUE
PLOTS              TRUE
STS_MOM            TRUE
SYM_IGNORE         TRUE
SYMMETRY           FALSE
NTO_PAIRS          1
! NBO                2
$end

$plots
grid_points                    75 75 75
total_density                  0-100
transition_density             1-100
natural_transition_orbital     1-100
$end

! natural_bond_orbital           1-5 ! How many here ? Is it physical to mix these ?
! nbo_state                      0-10

--------------------------------------------------------------

             Standard Nuclear Orientation (Angstroms)
    I     Atom           X                Y                Z
 ----------------------------------------------------------------
    1      C      -0.8065831300     1.2297346500     0.0304180100
    2      C       0.5615357600     1.2372523400     0.0162261800
    3      C       1.2291538900     0.0100105500     0.0122057500
    4      H      -1.3667692300     2.1580309400     0.0442036700
    5      H       1.1411641300     2.1492705000     0.0103769700
    6      N       2.7135747500     0.0314457300    -0.0028982400
    7      O       3.2801324700    -1.0974195400    -0.0025473300
    8      O       3.2471495300     1.1762194800    -0.0125200200
    9      C      -0.7704297800    -1.2680541400     0.0403966000
   10      H      -1.3035392600    -2.2120293300     0.0612237500
   11      C       0.5972628700    -1.2360591800     0.0263437800
   12      H       1.2030835900    -2.1308960700     0.0279311700
   13      C      -1.5628714100    -0.0304931800     0.0104053800
   14      H      -2.4114856300    -0.0399445900     0.7014394600
   15      Br     -2.4099318200    -0.0493183000    -1.8235961200
 ----------------------------------------------------------------

   16   -3010.5189053152      4.04e-09  Convergence criterion met
 Total energy in the final basis set =    -3010.5189053152
 Excited state 100: excitation energy (eV) =   11.5991

             TDDFT Excitation Energies
 ---------------------------------------------------

 Excited state   1: excitation energy (eV) =    2.3535
 Total energy for state  1:                 -3010.43241655 au
    Multiplicity: Singlet
    Trans. Mom.: -0.0046 X   0.2580 Y  -0.0015 Z
    Strength   :     0.0038392850
    X: D(   49) --> V(    1) amplitude =  0.9711

 Excited state   2: excitation energy (eV) =    2.6707
 Total energy for state  2:                 -3010.42075753 au
    Multiplicity: Singlet
    Trans. Mom.:  0.0006 X  -0.0524 Y   0.0002 Z
    Strength   :     0.0001793758
    X: D(   47) --> V(    1) amplitude =  0.8767
    X: D(   47) --> V(    2) amplitude = -0.4471

 Excited state   3: excitation energy (eV) =    2.6799
 Total energy for state  3:                 -3010.42042177 au
    Multiplicity: Singlet
    Trans. Mom.:  0.2926 X   0.0048 Y   0.1563 Z
    Strength   :     0.0072263921
    X: D(   48) --> V(    1) amplitude =  0.9719

 Excited state   4: excitation energy (eV) =    2.9663
 Total energy for state  4:                 -3010.40989740 au
    Multiplicity: Singlet
    Trans. Mom.: -0.0211 X  -0.0002 Y   0.0161 Z
    Strength   :     0.0000512316
    X: D(   45) --> V(    1) amplitude =  0.9083
    X: D(   45) --> V(    2) amplitude = -0.4077

 Excited state   5: excitation energy (eV) =    3.6635
 Total energy for state  5:                 -3010.38427590 au
    Multiplicity: Singlet
    Trans. Mom.:  0.0018 X  -0.1307 Y   0.0002 Z
    Strength   :     0.0015335359
    X: D(   44) --> V(    1) amplitude = -0.4033
    X: D(   46) --> V(    1) amplitude =  0.8796

 Excited state   6: excitation energy (eV) =    3.8785
 Total energy for state  6:                 -3010.37637292 au
    Multiplicity: Singlet
    Trans. Mom.: -0.0124 X   0.8796 Y  -0.0033 Z
    Strength   :     0.0735359645
    X: D(   44) --> V(    1) amplitude =  0.8841
    X: D(   46) --> V(    1) amplitude =  0.4280

 Excited state   7: excitation energy (eV) =    4.8124
 Total energy for state  7:                 -3010.34205404 au
    Multiplicity: Singlet
    Trans. Mom.: -0.0015 X   0.0703 Y  -0.0005 Z
    Strength   :     0.0005834013
    X: D(   42) --> V(    1) amplitude =  0.2757
    X: D(   47) --> V(    1) amplitude =  0.4277
    X: D(   47) --> V(    2) amplitude =  0.7801
    X: D(   47) --> V(    4) amplitude = -0.2906

 Excited state   8: excitation energy (eV) =    4.9625
 Total energy for state  8:                 -3010.33653673 au
    Multiplicity: Singlet
    Trans. Mom.: -0.0024 X   0.1572 Y  -0.0010 Z
    Strength   :     0.0030066469
    X: D(   42) --> V(    1) amplitude =  0.9417
    X: D(   47) --> V(    2) amplitude = -0.2236

 Excited state   9: excitation energy (eV) =    5.0583
 Total energy for state  9:                 -3010.33301557 au
    Multiplicity: Singlet
    Trans. Mom.: -0.1986 X  -0.0036 Y  -0.1438 Z
    Strength   :     0.0074490216
    X: D(   45) --> V(    1) amplitude =  0.3913
    X: D(   45) --> V(    2) amplitude =  0.8294
    X: D(   45) --> V(    4) amplitude = -0.3061

 Excited state  10: excitation energy (eV) =    5.1130
 Total energy for state 10:                 -3010.33100425 au
    Multiplicity: Singlet
    Trans. Mom.:  1.4403 X   0.0225 Y   0.4962 Z
    Strength   :     0.2907569399
    X: D(   43) --> V(    1) amplitude =  0.9397
    X: D(   49) --> V(    3) amplitude =  0.2582

 Excited state  11: excitation energy (eV) =    5.7375
 Total energy for state 11:                 -3010.30805471 au
    Multiplicity: Singlet
    Trans. Mom.:  0.2374 X   0.0023 Y  -0.2719 Z
    Strength   :     0.0183136261
    X: D(   41) --> V(    1) amplitude =  0.9488

 Excited state  12: excitation energy (eV) =    5.7745
 Total energy for state 12:                 -3010.30669623 au
    Multiplicity: Singlet
    Trans. Mom.:  0.0013 X   0.0083 Y   0.0002 Z
    Strength   :     0.0000099395
    X: D(   49) --> V(    2) amplitude =  0.8236
    X: D(   49) --> V(    4) amplitude =  0.4731

 Excited state  13: excitation energy (eV) =    6.0397
 Total energy for state 13:                 -3010.29695009 au
    Multiplicity: Singlet
    Trans. Mom.: -0.1330 X  -0.0018 Y   0.0124 Z
    Strength   :     0.0026398475
    X: D(   48) --> V(    2) amplitude =  0.6779
    X: D(   48) --> V(    4) amplitude =  0.6751

 Excited state  14: excitation energy (eV) =    6.4443
 Total energy for state 14:                 -3010.28208218 au
    Multiplicity: Singlet
    Trans. Mom.:  0.0105 X  -0.5640 Y   0.0031 Z
    Strength   :     0.0502327283
    X: D(   44) --> V(    2) amplitude = -0.3231
    X: D(   46) --> V(    2) amplitude =  0.7320
    X: D(   49) --> V(    2) amplitude = -0.2567
    X: D(   49) --> V(    4) amplitude =  0.4626

 Excited state  15: excitation energy (eV) =    6.5850
 Total energy for state 15:                 -3010.27691089 au
    Multiplicity: Singlet
    Trans. Mom.: -1.4932 X  -0.0221 Y  -0.3021 Z
    Strength   :     0.3745283713
    X: D(   43) --> V(    1) amplitude = -0.2306
    X: D(   49) --> V(    3) amplitude =  0.9168

 Excited state  16: excitation energy (eV) =    6.5919
 Total energy for state 16:                 -3010.27665724 au
    Multiplicity: Singlet
    Trans. Mom.: -0.0209 X  -0.1969 Y  -0.0038 Z
    Strength   :     0.0063325677
    X: D(   44) --> V(    2) amplitude =  0.2908
    X: D(   46) --> V(    2) amplitude =  0.2824
    X: D(   48) --> V(    3) amplitude =  0.8727

 Excited state  17: excitation energy (eV) =    6.6679
 Total energy for state 17:                 -3010.27386618 au
    Multiplicity: Singlet
    Trans. Mom.: -0.0118 X   0.6290 Y  -0.0031 Z
    Strength   :     0.0646650660
    X: D(   44) --> V(    2) amplitude = -0.4756
    X: D(   46) --> V(    2) amplitude = -0.5233
    X: D(   48) --> V(    3) amplitude =  0.4727
    X: D(   49) --> V(    4) amplitude =  0.4037

 Excited state  18: excitation energy (eV) =    7.0735
 Total energy for state 18:                 -3010.25895992 au
    Multiplicity: Singlet
    Trans. Mom.:  0.4184 X   0.0063 Y   0.1286 Z
    Strength   :     0.0332129095
    X: D(   47) --> V(    3) amplitude =  0.9763

 Excited state  19: excitation energy (eV) =    7.2024
 Total energy for state 19:                 -3010.25422261 au
    Multiplicity: Singlet
    Trans. Mom.:  0.0026 X  -0.0524 Y   0.0010 Z
    Strength   :     0.0004866481
    X: D(   39) --> V(    1) amplitude = -0.6004
    X: D(   45) --> V(    3) amplitude =  0.7603

 Excited state  20: excitation energy (eV) =    7.2484
 Total energy for state 20:                 -3010.25253100 au
    Multiplicity: Singlet
    Trans. Mom.:  0.6881 X   0.0108 Y   0.2665 Z
    Strength   :     0.0967238643
    X: D(   40) --> V(    1) amplitude =  0.3788
    X: D(   44) --> V(    3) amplitude = -0.2234
    X: D(   46) --> V(    3) amplitude =  0.8606

 Excited state  21: excitation energy (eV) =    7.2931
 Total energy for state 21:                 -3010.25088762 au
    Multiplicity: Singlet
    Trans. Mom.:  0.0000 X   0.0675 Y  -0.0004 Z
    Strength   :     0.0008131929
    X: D(   39) --> V(    1) amplitude =  0.7236
    X: D(   45) --> V(    3) amplitude =  0.6289

 Excited state  22: excitation energy (eV) =    7.3706
 Total energy for state 22:                 -3010.24803975 au
    Multiplicity: Singlet
    Trans. Mom.:  0.4979 X   0.0090 Y   0.3544 Z
    Strength   :     0.0674594772
    X: D(   40) --> V(    1) amplitude =  0.6775
    X: D(   44) --> V(    3) amplitude = -0.4107
    X: D(   46) --> V(    3) amplitude = -0.4521

 Excited state  23: excitation energy (eV) =    7.4156
 Total energy for state 23:                 -3010.24638683 au
    Multiplicity: Singlet
    Trans. Mom.:  0.0049 X  -0.2784 Y   0.0018 Z
    Strength   :     0.0140854020
    X: D(   44) --> V(    2) amplitude =  0.5604
    X: D(   44) --> V(    4) amplitude =  0.4354
    X: D(   49) --> V(    2) amplitude = -0.3006
    X: D(   49) --> V(    4) amplitude =  0.5340

 Excited state  24: excitation energy (eV) =    7.5635
 Total energy for state 24:                 -3010.24095143 au
    Multiplicity: Singlet
    Trans. Mom.: -0.0699 X  -0.0021 Y  -0.2279 Z
    Strength   :     0.0105302711
    X: D(   37) --> V(    1) amplitude = -0.3266
    X: D(   43) --> V(    2) amplitude = -0.2934
    X: D(   48) --> V(    2) amplitude = -0.5376
    X: D(   48) --> V(    4) amplitude =  0.5829

 Excited state  25: excitation energy (eV) =    7.6343
 Total energy for state 25:                 -3010.23835071 au
    Multiplicity: Singlet
    Trans. Mom.: -0.8608 X  -0.0127 Y  -0.1197 Z
    Strength   :     0.1412847758
    X: D(   37) --> V(    1) amplitude =  0.5076
    X: D(   42) --> V(    3) amplitude = -0.2522
    X: D(   44) --> V(    3) amplitude =  0.6458
    X: D(   48) --> V(    2) amplitude = -0.3072
    X: D(   48) --> V(    4) amplitude =  0.2991

 Excited state  26: excitation energy (eV) =    7.8334
 Total energy for state 26:                 -3010.23103380 au
    Multiplicity: Singlet
    Trans. Mom.:  0.0006 X  -0.0448 Y   0.0002 Z
    Strength   :     0.0003846222
    X: D(   35) --> V(    1) amplitude = -0.4089
    X: D(   38) --> V(    1) amplitude =  0.8046
    X: D(   42) --> V(    2) amplitude =  0.2753

 Excited state  27: excitation energy (eV) =    7.9079
 Total energy for state 27:                 -3010.22829559 au
    Multiplicity: Singlet
    Trans. Mom.: -0.0400 X   0.0019 Y   0.5237 Z
    Strength   :     0.0534523702
    X: D(   37) --> V(    1) amplitude = -0.5822
    X: D(   40) --> V(    1) amplitude =  0.3378
    X: D(   43) --> V(    2) amplitude =  0.5243
    X: D(   44) --> V(    3) amplitude =  0.3593

 Excited state  28: excitation energy (eV) =    7.9963
 Total energy for state 28:                 -3010.22504675 au
    Multiplicity: Singlet
    Trans. Mom.: -0.4068 X  -0.0058 Y  -0.0025 Z
    Strength   :     0.0324225566
    X: D(   37) --> V(    1) amplitude = -0.3190
    X: D(   40) --> V(    1) amplitude =  0.3255
    X: D(   43) --> V(    2) amplitude = -0.7190
    X: D(   44) --> V(    3) amplitude =  0.3519

 Excited state  29: excitation energy (eV) =    8.2029
 Total energy for state 29:                 -3010.21745317 au
    Multiplicity: Singlet
    Trans. Mom.:  0.0011 X  -0.0838 Y   0.0001 Z
    Strength   :     0.0014123802
    X: D(   43) --> V(    3) amplitude =  0.5687
    X: D(   44) --> V(    2) amplitude = -0.4163
    X: D(   44) --> V(    4) amplitude =  0.5823

 Excited state  30: excitation energy (eV) =    8.4023
 Total energy for state 30:                 -3010.21012794 au
    Multiplicity: Singlet
    Trans. Mom.:  0.0003 X  -0.0203 Y  -0.0001 Z
    Strength   :     0.0000844756
    X: D(   47) --> V(    2) amplitude =  0.3240
    X: D(   47) --> V(    4) amplitude =  0.8625

 Excited state  31: excitation energy (eV) =    8.4510
 Total energy for state 31:                 -3010.20833806 au
    Multiplicity: Singlet
    Trans. Mom.: -0.0104 X   0.7073 Y  -0.0031 Z
    Strength   :     0.1036110052
    X: D(   43) --> V(    3) amplitude =  0.7066
    X: D(   44) --> V(    4) amplitude = -0.4747
    X: D(   46) --> V(    4) amplitude =  0.2405
    X: D(   49) --> V(    5) amplitude =  0.2167

 Excited state  32: excitation energy (eV) =    8.5440
 Total energy for state 32:                 -3010.20492036 au
    Multiplicity: Singlet
    Trans. Mom.: -0.1613 X  -0.0025 Y   0.1172 Z
    Strength   :     0.0083219965
    X: D(   37) --> V(    1) amplitude =  0.2959
    X: D(   42) --> V(    3) amplitude =  0.8179
    X: D(   45) --> V(    4) amplitude = -0.3521

 Excited state  33: excitation energy (eV) =    8.5920
 Total energy for state 33:                 -3010.20315374 au
    Multiplicity: Singlet
    Trans. Mom.:  0.0044 X   0.0000 Y   0.0339 Z
    Strength   :     0.0002461471
    X: D(   42) --> V(    3) amplitude =  0.3970
    X: D(   45) --> V(    2) amplitude =  0.2905
    X: D(   45) --> V(    4) amplitude =  0.7946

 Excited state  34: excitation energy (eV) =    8.6455
 Total energy for state 34:                 -3010.20118962 au
    Multiplicity: Singlet
    Trans. Mom.: -0.0029 X   0.1625 Y  -0.0008 Z
    Strength   :     0.0055925449
    X: D(   35) --> V(    1) amplitude =  0.3987
    X: D(   42) --> V(    2) amplitude =  0.7355
    X: D(   46) --> V(    4) amplitude =  0.3673

 Excited state  35: excitation energy (eV) =    8.6558
 Total energy for state 35:                 -3010.20080984 au
    Multiplicity: Singlet
    Trans. Mom.: -0.0005 X   0.0451 Y  -0.0002 Z
    Strength   :     0.0004309575
    X: D(   35) --> V(    1) amplitude = -0.2435
    X: D(   42) --> V(    2) amplitude = -0.2710
    X: D(   44) --> V(    4) amplitude =  0.3082
    X: D(   46) --> V(    4) amplitude =  0.7695

 Excited state  36: excitation energy (eV) =    8.7431
 Total energy for state 36:                 -3010.19760370 au
    Multiplicity: Singlet
    Trans. Mom.:  0.0093 X  -0.6702 Y   0.0026 Z
    Strength   :     0.0962279655
    X: D(   42) --> V(    2) amplitude =  0.2292
    X: D(   43) --> V(    3) amplitude = -0.2156
    X: D(   49) --> V(    5) amplitude =  0.8490

 Excited state  37: excitation energy (eV) =    8.7794
 Total energy for state 37:                 -3010.19626885 au
    Multiplicity: Singlet
    Trans. Mom.:  0.0063 X  -0.4280 Y   0.0021 Z
    Strength   :     0.0394051901
    X: D(   35) --> V(    1) amplitude =  0.6102
    X: D(   38) --> V(    1) amplitude =  0.3869
    X: D(   38) --> V(    2) amplitude = -0.3150
    X: D(   41) --> V(    3) amplitude = -0.2186
    X: D(   42) --> V(    2) amplitude = -0.3348
    X: D(   49) --> V(    5) amplitude =  0.2517

 Excited state  38: excitation energy (eV) =    8.8612
 Total energy for state 38:                 -3010.19326223 au
    Multiplicity: Singlet
    Trans. Mom.:  0.1257 X   0.0027 Y   0.2155 Z
    Strength   :     0.0135126061
    X: D(   34) --> V(    1) amplitude =  0.6681
    X: D(   36) --> V(    1) amplitude = -0.3040
    X: D(   40) --> V(    2) amplitude = -0.2278
    X: D(   41) --> V(    2) amplitude = -0.5414

 Excited state  39: excitation energy (eV) =    8.9948
 Total energy for state 39:                 -3010.18835198 au
    Multiplicity: Singlet
    Trans. Mom.:  0.4401 X   0.0060 Y  -0.0236 Z
    Strength   :     0.0428059405
    X: D(   48) --> V(    5) amplitude =  0.8846
    X: D(   48) --> V(    7) amplitude =  0.2226
    X: D(   48) --> V(    9) amplitude =  0.3159

 Excited state  40: excitation energy (eV) =    9.1700
 Total energy for state 40:                 -3010.18191253 au
    Multiplicity: Singlet
    Trans. Mom.: -0.0012 X   0.1058 Y  -0.0002 Z
    Strength   :     0.0025160427
    X: D(   35) --> V(    1) amplitude =  0.2900
    X: D(   41) --> V(    3) amplitude =  0.8512

 Excited state  41: excitation energy (eV) =    9.2840
 Total energy for state 41:                 -3010.17772449 au
    Multiplicity: Singlet
    Trans. Mom.:  0.0863 X  -0.0036 Y   0.2051 Z
    Strength   :     0.0112694800
    X: D(   34) --> V(    1) amplitude =  0.2246
    X: D(   36) --> V(    1) amplitude =  0.7919
    X: D(   43) --> V(    4) amplitude =  0.3390

 Excited state  42: excitation energy (eV) =    9.2871
 Total energy for state 42:                 -3010.17761249 au
    Multiplicity: Singlet
    Trans. Mom.:  0.0019 X  -0.2463 Y  -0.0038 Z
    Strength   :     0.0138106337
    X: D(   41) --> V(    3) amplitude = -0.2582
    X: D(   47) --> V(    5) amplitude =  0.6057
    X: D(   47) --> V(    7) amplitude = -0.3623
    X: D(   47) --> V(    8) amplitude =  0.2778
    X: D(   47) --> V(   11) amplitude = -0.2863
    X: D(   47) --> V(   12) amplitude =  0.3280

 Excited state  43: excitation energy (eV) =    9.3546
 Total energy for state 43:                 -3010.17512850 au
    Multiplicity: Singlet
    Trans. Mom.:  0.0013 X  -0.0962 Y   0.0003 Z
    Strength   :     0.0021200171
    X: D(   46) --> V(    5) amplitude =  0.6006
    X: D(   46) --> V(    7) amplitude = -0.3498
    X: D(   46) --> V(   11) amplitude = -0.2837
    X: D(   46) --> V(   12) amplitude =  0.3215
    X: D(   49) --> V(    7) amplitude =  0.2378

 Excited state  44: excitation energy (eV) =    9.4611
 Total energy for state 44:                 -3010.17121579 au
    Multiplicity: Singlet
    Trans. Mom.: -0.0328 X  -0.0024 Y  -0.4455 Z
    Strength   :     0.0462458718
    X: D(   34) --> V(    1) amplitude =  0.4958
    X: D(   41) --> V(    2) amplitude =  0.5109
    X: D(   43) --> V(    4) amplitude = -0.4409

 Excited state  45: excitation energy (eV) =    9.5135
 Total energy for state 45:                 -3010.16928921 au
    Multiplicity: Singlet

 Excited state 100: excitation energy (eV) =   11.5921
  Excited state 1:   2.4560 eV (singlet)
  Excited state 2:   2.6961 eV (singlet)
  Excited state 3:   2.7230 eV (singlet)
  Excited state 4:   2.9935 eV (singlet)
  Excited state 5:   3.8391 eV (singlet)
  Excited state 6:   4.1210 eV (singlet)
  Excited state 7:   4.8264 eV (singlet)
  Excited state 8:   4.9860 eV (singlet)
  Excited state 9:   5.0726 eV (singlet)
  Excited state 10:   5.3007 eV (singlet)
  Excited state 11:   5.7943 eV (singlet)
  Excited state 12:   5.8205 eV (singlet)
  Excited state 13:   6.0769 eV (singlet)
  Excited state 14:   6.5712 eV (singlet)
  Excited state 15:   6.6303 eV (singlet)
  Excited state 16:   6.7477 eV (singlet)
  Excited state 17:   7.0903 eV (singlet)
  Excited state 18:   7.1751 eV (singlet)
  Excited state 19:   7.2088 eV (singlet)
  Excited state 20:   7.2781 eV (singlet)
  Excited state 21:   7.2998 eV (singlet)
  Excited state 22:   7.4234 eV (singlet)
  Excited state 23:   7.4387 eV (singlet)
  Excited state 24:   7.5997 eV (singlet)
  Excited state 25:   7.7617 eV (singlet)
  Excited state 26:   7.8588 eV (singlet)
  Excited state 27:   8.0104 eV (singlet)
  Excited state 28:   8.2326 eV (singlet)
  Excited state 29:   8.2372 eV (singlet)
  Excited state 30:   8.4044 eV (singlet)
  Excited state 31:   8.5564 eV (singlet)
  Excited state 32:   8.5603 eV (singlet)
  Excited state 33:   8.5978 eV (singlet)
  Excited state 34:   8.6608 eV (singlet)
  Excited state 35:   8.6983 eV (singlet)
  Excited state 36:   8.7775 eV (singlet)
  Excited state 37:   8.8526 eV (singlet)
  Excited state 38:   8.8989 eV (singlet)
  Excited state 61:  10.4201 eV (singlet)
  Excited state 62:  10.4614 eV (singlet)
  Excited state 63:  10.5227 eV (singlet)
  Excited state 64:  10.5541 eV (singlet)
  Excited state 65:  10.5549 eV (singlet)
  Excited state 66:  10.5929 eV (singlet)
  Excited state 67:  10.6769 eV (singlet)
  Excited state 68:  10.6952 eV (singlet)
  Excited state 69:  10.7135 eV (singlet)
  Excited state 70:  10.7206 eV (singlet)
  Excited state 71:  10.7562 eV (singlet)
  Excited state 72:  10.7801 eV (singlet)
  Excited state 73:  10.7963 eV (singlet)
  Excited state 74:  10.8021 eV (singlet)
  Excited state 75:  10.8530 eV (singlet)
  Excited state 76:  10.8618 eV (singlet)
  Excited state 77:  10.9237 eV (singlet)
  Excited state 78:  10.9400 eV (singlet)
  Excited state 79:  10.9798 eV (singlet)
  Excited state 80:  10.9870 eV (singlet)
  Excited state 81:  11.0256 eV (singlet)
  Excited state 82:  11.1338 eV (singlet)
  Excited state 83:  11.1486 eV (singlet)
  Excited state 84:  11.1557 eV (singlet)
  Excited state 85:  11.1683 eV (singlet)
  Excited state 86:  11.1831 eV (singlet)
  Excited state 87:  11.2149 eV (singlet)
  Excited state 88:  11.2295 eV (singlet)
  Excited state 89:  11.2657 eV (singlet)
  Excited state 90:  11.3246 eV (singlet)
  Excited state 91:  11.3336 eV (singlet)
  Excited state 92:  11.3477 eV (singlet)
  Excited state 93:  11.4244 eV (singlet)
  Excited state 94:  11.4453 eV (singlet)
  Excited state 95:  11.4855 eV (singlet)
  Excited state 96:  11.5111 eV (singlet)
  Excited state 97:  11.5176 eV (singlet)
  Excited state 98:  11.5427 eV (singlet)
  Excited state 99:  11.5866 eV (singlet)
  Excited state 100:  11.5921 eV (singlet)

                    Orbital Energies (a.u.)
 --------------------------------------------------------------

 Alpha MOs
 -- Occupied --
******** -62.8594 -56.6565 -56.6507 -56.6507 -19.4719 -19.4719 -14.8610
-10.6073 -10.5750 -10.5617 -10.5617 -10.5258 -10.5258  -9.0167  -6.8435
 -6.8248  -6.8246  -2.9425  -2.9377  -2.9374  -2.9224  -2.9224  -1.4916
 -1.3281  -1.2234  -1.1437  -1.1026  -1.0618  -0.9957  -0.9476  -0.9105
 -0.8526  -0.8059  -0.8049  -0.7989  -0.7658  -0.7655  -0.7537  -0.7352
 -0.6848  -0.6658  -0.6342  -0.5960  -0.5773  -0.5694  -0.5657  -0.5607
 -0.5478

          Ground-State Mulliken Net Atomic Charges

     Atom                 Charge (a.u.)
  ----------------------------------------
      1 C                    -0.258972
      2 C                     0.053455
      3 C                    -0.339036
      4 H                     0.348982
      5 H                     0.351197
      6 N                    -0.114705
      7 O                     0.057521
      8 O                     0.057522
      9 C                    -0.258767
     10 H                     0.348926
     11 C                     0.053045
     12 H                     0.351195
     13 C                    -0.179880
     14 H                     0.394867
     15 Br                    0.134649
  ----------------------------------------
  Sum of atomic charges =     1.000000

                    Cartesian Multipole Moments
 -----------------------------------------------------------------
    Charge (ESU x 10^10)
                 4.8032
    Dipole Moment (Debye)
         X      -4.9614      Y      -0.1099      Z      -0.2653
       Tot       4.9697
    Quadrupole Moments (Debye-Ang)
        XX     -61.3862     XY      -0.0479     YY     -54.9518
        XZ       2.2361     YZ       0.0043     ZZ     -62.6164

 Total job time:  1437.77s(wall), 14042.30s(cpu)
        *  Thank you very much for using Q-Chem.  Have a nice day.  *
