 Gaussian 16, Revision A.03,
 Gaussian 16:  ES64L-G16RevA.03 25-Dec-2016

 --------------------------------------------------------------------
 #p B3LYP/6-311+G** #p TD=(singlets,nstates=30)IOp(6/8=3) IOp(9/40=4)
 --------------------------------------------------------------------

 -------------------------------
 Scan Step 258, Bond Length 1.79
 -------------------------------
 Symbolic Z-matrix:
 Charge =  0 Multiplicity = 1

                         Standard orientation:
 ---------------------------------------------------------------------
 Center     Atomic      Atomic             Coordinates (Angstroms)
 Number     Number       Type             X           Y           Z
 ---------------------------------------------------------------------
      1          6           0        0.000000   -0.000000   -0.821081
      2          1           0        0.000000    0.937260   -1.412431
      3          1           0       -0.000000   -0.937260   -1.412431
      4          8           0        0.000000    0.000000    0.968919
 ---------------------------------------------------------------------

 SCF Done:  E(RB3LYP) =  -114.359917737     A.U. after   13 cycles

 Excitation energies and oscillator strengths:

 Excited State   1:      Singlet-A2     1.3923 eV  890.49 nm  f=0.0000  <S**2>=0.000
       3 -> 27         0.00078
       3 -> 38         0.00051
       3 -> 46         0.00335
       4 -> 27         0.00043
       4 -> 46        -0.00103
       5 ->  9         0.00251
       5 -> 13         0.00111
       5 -> 18         0.00188
       5 -> 23         0.00144
       5 -> 28         0.00149
       5 -> 37         0.00083
       5 -> 44         0.00023
       5 -> 52         0.00020
       6 -> 27        -0.00059
       6 -> 38        -0.00060
       6 -> 46         0.00101
       7 -> 12        -0.00121
       7 -> 16         0.00523
       7 -> 19        -0.00457
       7 -> 22        -0.00109
       7 -> 25        -0.00063
       7 -> 29        -0.00185
       7 -> 33         0.00029
       7 -> 49         0.00013
       7 -> 53         0.00039
       8 ->  9         0.71035
       8 -> 13        -0.00773
       8 -> 18         0.02099
       8 -> 23        -0.00131
       8 -> 28         0.01048
       8 -> 31         0.00157
       8 -> 37         0.00051
       8 -> 48        -0.00030
       8 -> 52         0.00188
       3 <- 27         0.00025
       3 <- 38         0.00028
       3 <- 46         0.00338
       4 <- 27         0.00079
       4 <- 38         0.00020
       4 <- 46        -0.00081
       5 <-  9         0.00025
       5 <- 13        -0.00037
       5 <- 18        -0.00043
       5 <- 23         0.00018
       5 <- 28        -0.00031
       5 <- 31         0.00024
       5 <- 37         0.00048
       6 <- 38        -0.00047
       6 <- 46         0.00075
       7 <- 12         0.00160
       7 <- 16        -0.01052
       7 <- 19         0.00526
       7 <- 22         0.00598
       7 <- 25        -0.00063
       7 <- 29         0.00558
       7 <- 33        -0.00036
       7 <- 35         0.00025
       7 <- 40        -0.00017
       7 <- 42         0.00014
       7 <- 49        -0.00048
       7 <- 53         0.00146
       8 <-  9        -0.07077
       8 <- 13        -0.00029
       8 <- 18        -0.00755
       8 <- 23        -0.00025
       8 <- 28        -0.00271
       8 <- 31        -0.00078
       8 <- 37        -0.00024
       8 <- 48         0.00013
       8 <- 52         0.00046
 This state for optimization and/or second-order correction.
 Total Energy, E(TD-HF/TD-DFT) =  -114.308751087
 Copying the excited state density for this state as the 1-particle RhoCI density.

 Excited State   2:      Singlet-A1     3.6591 eV  338.84 nm  f=0.0371  <S**2>=0.000
       3 -> 10        -0.01600
       3 -> 11        -0.00403
       3 -> 14         0.00249
       3 -> 15         0.00081
       3 -> 17        -0.00317
       3 -> 20        -0.00371
       3 -> 21         0.00026
       3 -> 24         0.00081
       3 -> 26         0.00173
       3 -> 30        -0.00092
       3 -> 32         0.00277
       3 -> 34        -0.00121
       3 -> 36        -0.00106
       3 -> 39         0.00049
       3 -> 43         0.00053
       3 -> 45        -0.00083
       3 -> 47         0.00231
       3 -> 50         0.00148
       4 -> 10        -0.00267
       4 -> 11         0.01126
       4 -> 14         0.00230
       4 -> 15        -0.00823
       4 -> 17         0.00241
       4 -> 20         0.00261
       4 -> 21         0.00031
       4 -> 24        -0.00398
       4 -> 26         0.00365
       4 -> 30         0.00053
       4 -> 32        -0.00130
       4 -> 34         0.00090
       4 -> 36         0.00021
       4 -> 39         0.00015
       4 -> 43        -0.00049
       4 -> 45         0.00079
       4 -> 47        -0.00084
       4 -> 50        -0.00029
       4 -> 54         0.00015
       5 -> 12         0.01086
       5 -> 16         0.00382
       5 -> 19         0.00124
       5 -> 22         0.00711
       5 -> 25        -0.00523
       5 -> 29         0.00031
       5 -> 33        -0.00253
       5 -> 35         0.00276
       5 -> 40        -0.00109
       5 -> 42         0.00093
       5 -> 49         0.00020
       5 -> 51        -0.00082
       6 -> 10         0.24002
       6 -> 11         0.04535
       6 -> 14        -0.05134
       6 -> 15        -0.02719
       6 -> 17        -0.01663
       6 -> 20        -0.00279
       6 -> 21         0.00671
       6 -> 24        -0.00892
       6 -> 26        -0.00377
       6 -> 30        -0.00514
       6 -> 32         0.00331
       6 -> 34        -0.00139
       6 -> 36         0.00032
       6 -> 39         0.00125
       6 -> 41        -0.00016
       6 -> 43         0.00084
       6 -> 45        -0.00085
       6 -> 47         0.00086
       6 -> 50         0.00062
       6 -> 54        -0.00093
       7 ->  9         0.67761
       7 -> 13        -0.00597
       7 -> 18        -0.01174
       7 -> 23        -0.00228
       7 -> 28         0.00086
       7 -> 31        -0.00326
       7 -> 37         0.00128
       7 -> 44        -0.00098
       7 -> 48         0.00013
       7 -> 52         0.00106
       8 -> 12        -0.00774
       8 -> 16         0.04161
       8 -> 19        -0.01963
       8 -> 22        -0.01478
       8 -> 29        -0.00871
       8 -> 33         0.00113
       8 -> 35        -0.00096
       8 -> 40         0.00041
       8 -> 42        -0.00030
       8 -> 49         0.00021
       8 -> 51         0.00016
       8 -> 53        -0.00054
       3 <- 10        -0.01225
       3 <- 11        -0.00345
       3 <- 14         0.00206
       3 <- 15         0.00024
       3 <- 17        -0.00178
       3 <- 20        -0.00310
       3 <- 21        -0.00020
       3 <- 24         0.00025
       3 <- 26         0.00072
       3 <- 30        -0.00044
       3 <- 32         0.00245
       3 <- 34        -0.00065
       3 <- 36        -0.00102
       3 <- 39         0.00045
       3 <- 43         0.00060
       3 <- 45        -0.00098
       3 <- 47         0.00233
       3 <- 50         0.00147
       4 <- 10        -0.00058
       4 <- 11         0.00800
       4 <- 14         0.00163
       4 <- 15        -0.00550
       4 <- 17         0.00142
       4 <- 20         0.00292
       4 <- 21         0.00015
       4 <- 24        -0.00298
       4 <- 26         0.00316
       4 <- 32        -0.00143
       4 <- 34         0.00076
       4 <- 36         0.00050
       4 <- 39         0.00016
       4 <- 43        -0.00045
       4 <- 45         0.00075
       4 <- 47        -0.00052
       4 <- 50        -0.00016
       4 <- 54         0.00012
       5 <- 12         0.00622
       5 <- 16         0.00241
       5 <- 19         0.00097
       5 <- 22         0.00499
       5 <- 25        -0.00399
       5 <- 29         0.00034
       5 <- 33        -0.00209
       5 <- 35         0.00236
       5 <- 40        -0.00099
       5 <- 42         0.00082
       5 <- 49         0.00019
       5 <- 51        -0.00077
       6 <- 10         0.08065
       6 <- 11         0.01800
       6 <- 14        -0.02396
       6 <- 15        -0.01398
       6 <- 17        -0.00969
       6 <- 20        -0.00298
       6 <- 21         0.00452
       6 <- 24        -0.00584
       6 <- 26        -0.00202
       6 <- 30        -0.00354
       6 <- 32         0.00336
       6 <- 34        -0.00158
       6 <- 36        -0.00018
       6 <- 39         0.00116
       6 <- 41        -0.00014
       6 <- 43         0.00070
       6 <- 45        -0.00064
       6 <- 47         0.00050
       6 <- 50         0.00048
       6 <- 54        -0.00084
       7 <-  9        -0.13077
       7 <- 13         0.00409
       7 <- 18        -0.01186
       7 <- 23         0.00124
       7 <- 28        -0.00207
       7 <- 31        -0.00159
       7 <- 37         0.00059
       7 <- 44        -0.00075
       7 <- 48        -0.00039
       7 <- 52         0.00096
       8 <- 12        -0.00292
       8 <- 16         0.01974
       8 <- 19        -0.01082
       8 <- 22        -0.00947
       8 <- 25         0.00011
       8 <- 29        -0.00687
       8 <- 33         0.00089
       8 <- 35        -0.00076
       8 <- 40         0.00032
       8 <- 42        -0.00024
       8 <- 51         0.00013
       8 <- 53        -0.00050

 Excited State   3:      Singlet-B2     4.1239 eV  300.65 nm  f=0.0035  <S**2>=0.000
       3 -> 12        -0.00130
       3 -> 16         0.00151
       3 -> 19        -0.00419
       3 -> 22         0.00099
       3 -> 25        -0.00084
       3 -> 29        -0.00282
       3 -> 33         0.00014
       3 -> 35         0.00163
       3 -> 40        -0.00146
       3 -> 42         0.00052
       3 -> 49        -0.00370
       3 -> 51         0.00018
       3 -> 53         0.00029
       4 -> 12         0.00043
       4 -> 16        -0.00172
       4 -> 19         0.00041
       4 -> 22         0.00202
       4 -> 25         0.00082
       4 -> 29         0.00106
       4 -> 33        -0.00037
       4 -> 35         0.00046
       4 -> 40         0.00034
       4 -> 42        -0.00012
       4 -> 49         0.00070
       4 -> 51        -0.00011
       5 -> 10         0.01069
       5 -> 11         0.00180
       5 -> 14        -0.00460
       5 -> 15         0.00363
       5 -> 17        -0.00045
       5 -> 20         0.00206
       5 -> 21         0.00367
       5 -> 24         0.00155
       5 -> 26        -0.00076
       5 -> 30        -0.00204
       5 -> 32        -0.00166
       5 -> 34         0.00042
       5 -> 39        -0.00077
       5 -> 41         0.00048
       5 -> 47        -0.00050
       5 -> 50         0.00031
       5 -> 54        -0.00021
       6 -> 12         0.00258
       6 -> 16        -0.00261
       6 -> 19         0.00400
       6 -> 22        -0.00057
       6 -> 25         0.00109
       6 -> 35        -0.00144
       6 -> 40         0.00104
       6 -> 42        -0.00068
       6 -> 49         0.00138
       6 -> 53        -0.00045
       7 -> 27        -0.00059
       7 -> 38         0.00043
       7 -> 46         0.00331
       8 -> 10         0.69947
       8 -> 11         0.07836
       8 -> 14        -0.06885
       8 -> 15        -0.02707
       8 -> 17        -0.01645
       8 -> 20         0.00359
       8 -> 21         0.00671
       8 -> 24        -0.00629
       8 -> 26        -0.00486
       8 -> 30        -0.01243
       8 -> 32        -0.00284
       8 -> 34         0.00142
       8 -> 36         0.00111
       8 -> 39        -0.00065
       8 -> 41        -0.00013
       8 -> 45        -0.00093
       8 -> 47        -0.00409
       8 -> 50         0.00169
       8 -> 54        -0.00235
       3 <- 12        -0.00046
       3 <- 16         0.00050
       3 <- 19        -0.00204
       3 <- 22         0.00095
       3 <- 25        -0.00075
       3 <- 29        -0.00113
       3 <- 33         0.00015
       3 <- 35         0.00114
       3 <- 40        -0.00127
       3 <- 42         0.00039
       3 <- 49        -0.00377
       3 <- 51         0.00017
       3 <- 53         0.00079
       4 <- 16        -0.00184
       4 <- 19         0.00016
       4 <- 22         0.00226
       4 <- 25         0.00049
       4 <- 29         0.00121
       4 <- 33        -0.00040
       4 <- 35         0.00067
       4 <- 40         0.00014
       4 <- 49         0.00050
       5 <- 10        -0.00087
       5 <- 11        -0.00083
       5 <- 14        -0.00056
       5 <- 15         0.00281
       5 <- 17         0.00020
       5 <- 20         0.00077
       5 <- 21         0.00179
       5 <- 24         0.00181
       5 <- 26        -0.00019
       5 <- 30        -0.00043
       5 <- 32        -0.00032
       5 <- 39        -0.00032
       5 <- 41         0.00051
       5 <- 45        -0.00026
       5 <- 47        -0.00048
       5 <- 50         0.00017
       6 <- 12        -0.00057
       6 <- 16         0.00735
       6 <- 19        -0.00376
       6 <- 22        -0.00506
       6 <- 25         0.00109
       6 <- 29        -0.00590
       6 <- 33         0.00028
       6 <- 35        -0.00132
       6 <- 40         0.00106
       6 <- 42        -0.00072
       6 <- 49         0.00181
       6 <- 53        -0.00137
       7 <- 27        -0.00058
       7 <- 38         0.00034
       7 <- 46         0.00283
       8 <- 10        -0.03670
       8 <- 11        -0.00809
       8 <- 14         0.00857
       8 <- 15         0.00239
       8 <- 17         0.00153
       8 <- 20        -0.00306
       8 <- 21        -0.00158
       8 <- 24         0.00159
       8 <- 26         0.00141
       8 <- 30         0.00081
       8 <- 32         0.00305
       8 <- 34        -0.00094
       8 <- 36        -0.00069
       8 <- 39         0.00126
       8 <- 41         0.00028
       8 <- 43         0.00047
       8 <- 45        -0.00170
       8 <- 47        -0.00333
       8 <- 50         0.00126
       8 <- 54        -0.00063

 Excited State   4:      Singlet-B1     4.1311 eV  300.12 nm  f=0.0006  <S**2>=0.000
       3 ->  9        -0.02421
       3 -> 13         0.00099
       3 -> 18        -0.00382
       3 -> 23         0.00129
       3 -> 28        -0.00085
       3 -> 31        -0.00066
       3 -> 37         0.00013
       3 -> 44         0.00032
       3 -> 48         0.00062
       3 -> 52         0.00077
       4 ->  9         0.00878
       4 -> 13        -0.00198
       4 -> 18         0.00013
       4 -> 23        -0.00178
       4 -> 28         0.00047
       4 -> 31        -0.00126
       4 -> 37        -0.00029
       4 -> 48        -0.00062
       4 -> 52        -0.00035
       5 -> 38         0.00169
       5 -> 46         0.00051
       6 ->  9         0.67932
       6 -> 13        -0.01722
       6 -> 18         0.01444
       6 -> 23        -0.01022
       6 -> 28         0.00359
       6 -> 31         0.00236
       6 -> 37        -0.00160
       6 -> 44        -0.00196
       6 -> 48         0.00349
       6 -> 52         0.00105
       7 -> 10         0.19863
       7 -> 11         0.02639
       7 -> 14        -0.02469
       7 -> 15        -0.00789
       7 -> 17        -0.00963
       7 -> 20         0.00367
       7 -> 21         0.00153
       7 -> 24        -0.00247
       7 -> 26        -0.00273
       7 -> 30        -0.00457
       7 -> 34        -0.00066
       7 -> 36         0.00147
       7 -> 39         0.00018
       7 -> 41        -0.00022
       7 -> 43         0.00048
       7 -> 45        -0.00051
       7 -> 47         0.00366
       7 -> 50         0.00122
       8 -> 27         0.00013
       8 -> 46         0.00450
       3 <-  9        -0.00815
       3 <- 13        -0.00083
       3 <- 18        -0.00256
       3 <- 23        -0.00056
       3 <- 28        -0.00047
       3 <- 31        -0.00076
       3 <- 37         0.00016
       3 <- 48         0.00073
       3 <- 52         0.00070
       4 <-  9         0.00544
       4 <- 13        -0.00036
       4 <- 18         0.00149
       4 <- 23        -0.00068
       4 <- 28         0.00143
       4 <- 31        -0.00088
       4 <- 37        -0.00018
       4 <- 44        -0.00011
       4 <- 48        -0.00056
       4 <- 52        -0.00019
       5 <- 27        -0.00051
       5 <- 38         0.00146
       5 <- 46         0.00045
       6 <-  9        -0.03728
       6 <- 13         0.00205
       6 <- 18        -0.00453
       6 <- 28        -0.00392
       6 <- 31         0.00022
       6 <- 37        -0.00130
       6 <- 44        -0.00066
       6 <- 48         0.00314
       7 <- 10        -0.04278
       7 <- 11        -0.00942
       7 <- 14         0.01361
       7 <- 15         0.00870
       7 <- 17         0.00282
       7 <- 20         0.00318
       7 <- 21        -0.00345
       7 <- 24         0.00416
       7 <- 26         0.00176
       7 <- 30         0.00193
       7 <- 32         0.00035
       7 <- 34        -0.00100
       7 <- 36         0.00154
       7 <- 39         0.00058
       7 <- 41         0.00013
       7 <- 43         0.00027
       7 <- 45        -0.00027
       7 <- 47         0.00340
       7 <- 50         0.00131
       7 <- 54         0.00086
       8 <- 27         0.00060
       8 <- 38         0.00012
       8 <- 46         0.00421

 Excited State   5:      Singlet-B1     4.9482 eV  250.56 nm  f=0.0072  <S**2>=0.000
       3 ->  9        -0.00712
       3 -> 13         0.00031
       3 -> 18        -0.00233
       3 -> 23         0.00054
       3 -> 28        -0.00275
       3 -> 31        -0.00150
       3 -> 37         0.00011
       3 -> 44         0.00025
       3 -> 48        -0.00294
       3 -> 52        -0.00015
       4 ->  9        -0.03096
       4 -> 13         0.00605
       4 -> 18         0.00101
       4 -> 23         0.00462
       4 -> 28         0.00127
       4 -> 31         0.00021
       4 -> 37         0.00033
       4 -> 44        -0.00044
       4 -> 48         0.00080
       4 -> 52         0.00015
       5 -> 27        -0.00659
       5 -> 38        -0.00335
       5 -> 46         0.00026
       6 ->  9        -0.19887
       6 -> 13         0.00088
       6 -> 18         0.00083
       6 -> 23         0.00108
       6 -> 28         0.00300
       6 -> 31        -0.00381
       6 -> 37         0.00227
       6 -> 44         0.00062
       6 -> 52        -0.00074
       7 -> 10         0.67191
       7 -> 11         0.06528
       7 -> 14        -0.06051
       7 -> 15        -0.03293
       7 -> 17        -0.00933
       7 -> 20        -0.00280
       7 -> 21         0.00351
       7 -> 24        -0.00955
       7 -> 26        -0.00617
       7 -> 30        -0.00726
       7 -> 32        -0.00178
       7 -> 34         0.00376
       7 -> 36        -0.00143
       7 -> 39        -0.00063
       7 -> 43         0.00057
       7 -> 45        -0.00096
       7 -> 47         0.00111
       7 -> 50         0.00052
       7 -> 54        -0.00164
       8 -> 27         0.00071
       8 -> 38         0.00022
       8 -> 46         0.00135
       3 <-  9        -0.00148
       3 <- 13         0.00069
       3 <- 18        -0.00088
       3 <- 23         0.00060
       3 <- 28        -0.00184
       3 <- 31        -0.00021
       3 <- 37        -0.00022
       3 <- 48        -0.00307
       3 <- 52         0.00029
       4 <-  9        -0.01301
       4 <- 13         0.00274
       4 <- 18         0.00029
       4 <- 23         0.00268
       4 <- 28         0.00122
       4 <- 37         0.00037
       4 <- 44        -0.00065
       4 <- 48         0.00039
       4 <- 52         0.00013
       5 <- 27        -0.00468
       5 <- 38        -0.00270
       5 <- 46         0.00027
       6 <-  9        -0.02814
       6 <- 13        -0.00010
       6 <- 18        -0.00360
       6 <- 23         0.00058
       6 <- 28        -0.00033
       6 <- 31        -0.00459
       6 <- 37         0.00211
       6 <- 44         0.00073
       6 <- 48         0.00052

 The electronic state is 1-A1.
 Alpha  occ. eigenvalues --  -19.17679 -10.33768  -0.89701  -0.71175  -0.49158
 Alpha  occ. eigenvalues --   -0.39357  -0.31057  -0.28757
 Alpha virt. eigenvalues --   -0.16787  -0.06148   0.00063   0.04052   0.06096
 Alpha virt. eigenvalues --    0.06632   0.11891   0.13490   0.18776   0.21076
 Alpha virt. eigenvalues --    0.23967   0.30381   0.38571   0.39797   0.50694

 Mulliken charges:
               1
     1  C   -0.092212
     2  H    0.190826
     3  H    0.190826
     4  O   -0.289440
 Sum of Mulliken charges =   0.00000

 Dipole moment (field-independent basis, Debye):
    X=             -0.0000    Y=              0.0000    Z=             -4.1133  Tot=              4.1133
 Quadrupole moment (field-independent basis, Debye-Ang):
   XX=            -12.9999   YY=            -12.0152   ZZ=            -10.7525
   XY=              0.0000   XZ=              0.0000   YZ=             -0.0000

 Normal termination of Gaussian 16 at Fri Sep 17 10:53:08 2021.
