 Gaussian 16, Revision A.03,
 Gaussian 16:  ES64L-G16RevA.03 25-Dec-2016

 --------------------------------------------------------------------
 #p B3LYP/6-311+G** #p TD=(singlets,nstates=30)IOp(6/8=3) IOp(9/40=4)
 --------------------------------------------------------------------

 -------------------------------
 Scan Step 43, Bond Length 0.715
 -------------------------------
 Symbolic Z-matrix:
 Charge =  0 Multiplicity = 1

                         Standard orientation:
 ---------------------------------------------------------------------
 Center     Atomic      Atomic             Coordinates (Angstroms)
 Number     Number       Type             X           Y           Z
 ---------------------------------------------------------------------
      1          6           0        0.000000   -0.000000   -0.283581
      2          1           0        0.000000    0.937260   -0.874931
      3          1           0       -0.000000   -0.937260   -0.874931
      4          8           0        0.000000    0.000000    0.431419
 ---------------------------------------------------------------------

 SCF Done:  E(RB3LYP) =  -113.206242362     A.U. after   10 cycles

 Excitation energies and oscillator strengths:

 Excited State   1:      Singlet-B2     5.0301 eV  246.48 nm  f=0.1164  <S**2>=0.000
       3 -> 11         0.00075
       3 -> 16         0.00053
       3 -> 19         0.00078
       3 -> 23         0.00034
       3 -> 24        -0.00099
       3 -> 29        -0.00021
       3 -> 32        -0.00015
       3 -> 40         0.00017
       3 -> 43         0.00020
       3 -> 50        -0.00012
       3 -> 53         0.00014
       4 ->  9        -0.00290
       4 -> 12         0.00359
       4 -> 14         0.00380
       4 -> 15         0.00157
       4 -> 18         0.00309
       4 -> 20         0.00194
       4 -> 21         0.00184
       4 -> 25         0.00151
       4 -> 26        -0.00079
       4 -> 31         0.00169
       4 -> 33         0.00037
       4 -> 38        -0.00072
       4 -> 42        -0.00051
       4 -> 44        -0.00033
       4 -> 46        -0.00076
       4 -> 49         0.00021
       5 -> 28         0.00166
       5 -> 35         0.00072
       5 -> 45         0.00083
       6 -> 11        -0.00609
       6 -> 16         0.00295
       6 -> 19         0.00061
       6 -> 23        -0.00128
       6 -> 24        -0.00467
       6 -> 29        -0.00081
       6 -> 32        -0.00090
       6 -> 36         0.00042
       6 -> 43         0.00023
       6 -> 47         0.00025
       7 -> 11         0.00669
       7 -> 16         0.00375
       7 -> 19         0.00282
       7 -> 23        -0.00031
       7 -> 24        -0.00112
       7 -> 29         0.00086
       7 -> 32         0.00066
       7 -> 36        -0.00067
       7 -> 43        -0.00043
       7 -> 47         0.00044
       7 -> 50         0.00045
       7 -> 53        -0.00011
       8 ->  9         0.70558
       8 -> 12        -0.00015
       8 -> 14         0.04267
       8 -> 15        -0.00782
       8 -> 18        -0.02176
       8 -> 20         0.00571
       8 -> 21         0.00983
       8 -> 25        -0.00025
       8 -> 26        -0.00015
       8 -> 30         0.00249
       8 -> 31        -0.00256
       8 -> 33        -0.00114
       8 -> 38        -0.00111
       8 -> 39         0.00021
       8 -> 42        -0.00072
       8 -> 44         0.00026
       8 -> 46         0.00084
       8 -> 49        -0.00030
       8 -> 51         0.00012
       3 <- 11         0.00030
       3 <- 16         0.00020
       3 <- 19         0.00051
       3 <- 23         0.00025
       3 <- 24        -0.00075
       3 <- 29        -0.00018
       3 <- 32        -0.00016
       3 <- 40         0.00018
       3 <- 43         0.00019
       3 <- 53         0.00015
       4 <-  9        -0.00143
       4 <- 12        -0.00023
       4 <- 14         0.00311
       4 <- 15         0.00186
       4 <- 18         0.00069
       4 <- 20         0.00105
       4 <- 21         0.00137
       4 <- 25         0.00134
       4 <- 26        -0.00130
       4 <- 30        -0.00015
       4 <- 31         0.00069
       4 <- 33         0.00026
       4 <- 38        -0.00045
       4 <- 39         0.00016
       4 <- 42        -0.00042
       4 <- 44        -0.00026
       4 <- 46        -0.00068
       4 <- 49         0.00015
       5 <- 28         0.00137
       5 <- 35         0.00058
       5 <- 45         0.00070
       6 <- 11        -0.00082
       6 <- 16         0.00274
       6 <- 19         0.00118
       6 <- 23        -0.00044
       6 <- 24        -0.00347
       6 <- 29        -0.00042
       6 <- 32        -0.00076
       6 <- 36         0.00041
       6 <- 43         0.00013
       6 <- 47         0.00022
       6 <- 50         0.00012
       7 <- 11         0.00134
       7 <- 16         0.00182
       7 <- 19         0.00025
       7 <- 23        -0.00012
       7 <- 24        -0.00022
       7 <- 29         0.00140
       7 <- 32         0.00050
       7 <- 36        -0.00037
       7 <- 43        -0.00030
       7 <- 47         0.00046
       7 <- 50         0.00051
       8 <-  9        -0.00734
       8 <- 12        -0.00468
       8 <- 14         0.01855
       8 <- 15         0.00538
       8 <- 18         0.00147
       8 <- 20         0.00031
       8 <- 21         0.00499
       8 <- 25         0.00314
       8 <- 26         0.00026
       8 <- 30         0.00164
       8 <- 31        -0.00159
       8 <- 33        -0.00144
       8 <- 38        -0.00106
       8 <- 39         0.00017
       8 <- 42        -0.00058
       8 <- 46         0.00070
       8 <- 49        -0.00023
 This state for optimization and/or second-order correction.
 Total Energy, E(TD-HF/TD-DFT) =  -113.021388774
 Copying the excited state density for this state as the 1-particle RhoCI density.

 Excited State   2:      Singlet-A2     5.3066 eV  233.64 nm  f=0.0000  <S**2>=0.000
       3 -> 28        -0.00195
       3 -> 35        -0.00128
       3 -> 45        -0.00050
       4 -> 10        -0.00118
       4 -> 13        -0.00203
       4 -> 17        -0.00421
       4 -> 22         0.00209
       4 -> 27        -0.00233
       4 -> 34        -0.00017
       4 -> 37        -0.00177
       4 -> 41        -0.00021
       4 -> 48        -0.00013
       4 -> 52        -0.00033
       5 -> 11         0.00033
       5 -> 19         0.00037
       5 -> 23        -0.00105
       5 -> 24        -0.00018
       5 -> 29        -0.00014
       5 -> 32        -0.00013
       5 -> 36        -0.00035
       5 -> 43        -0.00040
       5 -> 47        -0.00041
       5 -> 50         0.00019
       5 -> 53        -0.00012
       6 -> 28        -0.00354
       6 -> 35         0.00051
       6 -> 45         0.00012
       7 -> 28         0.00080
       7 -> 35        -0.00022
       7 -> 45        -0.00055
       8 -> 10         0.70535
       8 -> 13         0.04100
       8 -> 17         0.02885
       8 -> 22         0.00203
       8 -> 27         0.00219
       8 -> 34         0.00317
       8 -> 37        -0.00207
       8 -> 41         0.00015
       8 -> 48         0.00013
       8 -> 52         0.00043
       3 <- 28        -0.00158
       3 <- 35        -0.00111
       3 <- 45        -0.00049
       4 <- 10        -0.00017
       4 <- 13        -0.00084
       4 <- 17        -0.00068
       4 <- 27        -0.00031
       4 <- 34         0.00081
       4 <- 37        -0.00094
       4 <- 41        -0.00028
       5 <- 11         0.00068
       5 <- 16        -0.00065
       5 <- 19         0.00177
       5 <- 23        -0.00172
       5 <- 24        -0.00136
       5 <- 29        -0.00136
       5 <- 32         0.00030
       5 <- 36        -0.00089
       5 <- 43        -0.00048
       5 <- 47        -0.00039
       5 <- 53        -0.00031
       6 <- 28        -0.00350
       6 <- 35         0.00064
       6 <- 45         0.00013
       7 <- 28         0.00090
       7 <- 35        -0.00026
       7 <- 45        -0.00053
       8 <- 10         0.00033
       8 <- 13        -0.00626
       8 <- 17        -0.00563
       8 <- 22         0.00020
       8 <- 27        -0.00045
       8 <- 34         0.00304
       8 <- 37        -0.00168
       8 <- 41         0.00014
       8 <- 52         0.00015

 Excited State   3:      Singlet-B2     5.9214 eV  209.38 nm  f=0.0315  <S**2>=0.000
       3 -> 11        -0.00012
       3 -> 16         0.00049
       3 -> 19        -0.00025
       3 -> 23         0.00028
       3 -> 24        -0.00039
       3 -> 29         0.00050
       3 -> 32         0.00013
       3 -> 36        -0.00023
       3 -> 43        -0.00023
       3 -> 47         0.00016
       3 -> 50         0.00013
       3 -> 53        -0.00016
       4 ->  9         0.00232
       4 -> 12         0.00035
       4 -> 14         0.00149
       4 -> 15         0.00286
       4 -> 18        -0.00169
       4 -> 20        -0.00038
       4 -> 21         0.00132
       4 -> 25         0.00083
       4 -> 26         0.00074
       4 -> 30         0.00203
       4 -> 31        -0.00109
       4 -> 33        -0.00012
       4 -> 38         0.00018
       4 -> 39        -0.00096
       4 -> 42         0.00035
       4 -> 46         0.00057
       4 -> 49        -0.00015
       5 -> 28        -0.00098
       5 -> 35        -0.00127
       5 -> 45        -0.00075
       6 -> 11         0.00017
       6 -> 16         0.00442
       6 -> 19        -0.00117
       6 -> 23        -0.00024
       6 -> 24        -0.00277
       6 -> 29        -0.00179
       6 -> 32         0.00045
       6 -> 36         0.00050
       6 -> 40        -0.00040
       6 -> 43         0.00027
       6 -> 47        -0.00019
       6 -> 50        -0.00018
       7 -> 11        -0.00260
       7 -> 16        -0.00332
       7 -> 19        -0.00173
       7 -> 23         0.00097
       7 -> 24         0.00264
       7 -> 29         0.00055
       7 -> 32        -0.00038
       7 -> 36         0.00074
       7 -> 40        -0.00015
       7 -> 43         0.00029
       7 -> 47        -0.00062
       7 -> 50        -0.00038
       7 -> 53         0.00016
       8 ->  9        -0.00074
       8 -> 12         0.70583
       8 -> 14         0.02800
       8 -> 15         0.02686
       8 -> 18         0.01015
       8 -> 20         0.01581
       8 -> 21         0.00502
       8 -> 25        -0.00081
       8 -> 26         0.00154
       8 -> 30         0.00239
       8 -> 33        -0.00029
       8 -> 38        -0.00020
       8 -> 39         0.00136
       8 -> 42        -0.00088
       8 -> 46        -0.00054
       8 -> 49         0.00017
       8 -> 54        -0.00015
       3 <- 16         0.00050
       3 <- 23         0.00012
       3 <- 24        -0.00044
       3 <- 29         0.00032
       3 <- 32         0.00013
       3 <- 36        -0.00024
       3 <- 43        -0.00021
       3 <- 47         0.00012
       3 <- 53        -0.00022
       4 <-  9        -0.00126
       4 <- 12        -0.00010
       4 <- 14         0.00141
       4 <- 15         0.00070
       4 <- 18         0.00063
       4 <- 20        -0.00043
       4 <- 21         0.00090
       4 <- 25         0.00096
       4 <- 26         0.00075
       4 <- 30         0.00140
       4 <- 31        -0.00032
       4 <- 33        -0.00064
       4 <- 38         0.00012
       4 <- 39        -0.00072
       4 <- 42         0.00036
       4 <- 46         0.00054
       5 <- 28        -0.00057
       5 <- 35        -0.00108
       5 <- 45        -0.00066
       6 <- 11        -0.00028
       6 <- 16         0.00099
       6 <- 19         0.00057
       6 <- 23        -0.00076
       6 <- 24        -0.00193
       6 <- 29        -0.00120
       6 <- 32         0.00060
       6 <- 36         0.00055
       6 <- 40        -0.00036
       6 <- 43         0.00017
       6 <- 47        -0.00017
       7 <- 11        -0.00022
       7 <- 16        -0.00117
       7 <- 19        -0.00051
       7 <- 23         0.00048
       7 <- 24         0.00133
       7 <- 29        -0.00011
       7 <- 32        -0.00025
       7 <- 36         0.00036
       7 <- 43         0.00020
       7 <- 47        -0.00055
       7 <- 50        -0.00044
       8 <-  9        -0.00431
       8 <- 12         0.00126
       8 <- 14         0.01014
       8 <- 15         0.00370
       8 <- 18        -0.00122
       8 <- 20        -0.00285
       8 <- 21         0.00328
       8 <- 25         0.00064
       8 <- 26        -0.00020
       8 <- 30         0.00212
       8 <- 39         0.00114
       8 <- 42        -0.00077
       8 <- 46        -0.00044

 Excited State   4:      Singlet-A1     6.0765 eV  204.04 nm  f=0.0152  <S**2>=0.000
       3 ->  9         0.00122
       3 -> 12        -0.00055
       3 -> 14         0.00017
       3 -> 15        -0.00066
       3 -> 18        -0.00142
       3 -> 21         0.00068
       3 -> 25        -0.00051
       3 -> 26        -0.00025
       3 -> 30        -0.00084
       3 -> 31        -0.00055
       3 -> 33         0.00034
       3 -> 38         0.00032
       3 -> 39         0.00032
       3 -> 46        -0.00012
       3 -> 51         0.00020
       3 -> 54        -0.00015
       4 -> 11        -0.00641
       4 -> 16        -0.00701
       4 -> 19        -0.00467
       4 -> 23        -0.00214
       4 -> 24         0.00335
       4 -> 29        -0.00052
       4 -> 36        -0.00104
       4 -> 43         0.00027
       4 -> 50         0.00024
       5 -> 10        -0.00420
       5 -> 13         0.00306
       5 -> 17        -0.00371
       5 -> 22        -0.00338
       5 -> 27        -0.00101
       5 -> 34        -0.00092
       5 -> 37        -0.00058
       5 -> 41        -0.00019
       5 -> 48         0.00027
       6 ->  9         0.01018
       6 -> 12         0.00819
       6 -> 14        -0.00500
       6 -> 15        -0.00420
       6 -> 18        -0.00574
       6 -> 20         0.00588
       6 -> 21         0.00044
       6 -> 25        -0.00629
       6 -> 26         0.00107
       6 -> 30         0.00042
       6 -> 31         0.00137
       6 -> 33         0.00180
       6 -> 38         0.00104
       6 -> 39        -0.00122
       6 -> 44         0.00053
       6 -> 49         0.00046
       7 ->  9         0.00881
       7 -> 12        -0.01058
       7 -> 14         0.00088
       7 -> 15         0.00347
       7 -> 18        -0.00779
       7 -> 20        -0.00250
       7 -> 25         0.00103
       7 -> 26        -0.00209
       7 -> 30         0.00022
       7 -> 31        -0.00160
       7 -> 33         0.00042
       7 -> 38        -0.00028
       7 -> 39         0.00033
       7 -> 44        -0.00023
       7 -> 51        -0.00020
       8 -> 11         0.70492
       8 -> 16         0.05010
       8 -> 19        -0.01691
       8 -> 24        -0.00490
       8 -> 29         0.00412
       8 -> 32         0.00182
       8 -> 36        -0.00308
       8 -> 40         0.00030
       8 -> 43         0.00178
       8 -> 47        -0.00077
       8 -> 50         0.00014
       3 <-  9         0.00062
       3 <- 12        -0.00026
       3 <- 14         0.00012
       3 <- 15        -0.00040
       3 <- 18        -0.00089
       3 <- 21         0.00041
       3 <- 25        -0.00042
       3 <- 26        -0.00020
       3 <- 30        -0.00060
       3 <- 31        -0.00034
       3 <- 33         0.00031
       3 <- 38         0.00023
       3 <- 39         0.00027
       3 <- 46        -0.00016
       3 <- 51         0.00017
       3 <- 54        -0.00014
       4 <- 11        -0.00249
       4 <- 16        -0.00274
       4 <- 19        -0.00260
       4 <- 23        -0.00158
       4 <- 24         0.00179
       4 <- 29        -0.00025
       4 <- 32         0.00019
       4 <- 36        -0.00087
       4 <- 43         0.00025
       4 <- 50         0.00021
       5 <- 10        -0.00215
       5 <- 13         0.00164
       5 <- 17        -0.00214
       5 <- 22        -0.00227
       5 <- 27        -0.00072
       5 <- 34        -0.00075
       5 <- 37        -0.00049
       5 <- 41        -0.00016
       5 <- 48         0.00025
       6 <-  9         0.00787
       6 <- 12         0.00382
       6 <- 14        -0.00390
       6 <- 15        -0.00348
       6 <- 18        -0.00317
       6 <- 20         0.00333
       6 <- 21         0.00114
       6 <- 25        -0.00414
       6 <- 26         0.00062
       6 <- 30        -0.00012
       6 <- 31         0.00109
       6 <- 33         0.00129
       6 <- 38         0.00108
       6 <- 39        -0.00097
       6 <- 44         0.00053
       6 <- 49         0.00038
       7 <-  9         0.00150
       7 <- 12        -0.00406
       7 <- 14         0.00123
       7 <- 15         0.00239
       7 <- 18        -0.00364
       7 <- 20        -0.00116
       7 <- 21        -0.00021
       7 <- 25         0.00071
       7 <- 26        -0.00129
       7 <- 30         0.00030
       7 <- 31        -0.00125
       7 <- 33         0.00028
       7 <- 38        -0.00026
       7 <- 39         0.00015
       7 <- 44        -0.00024
       7 <- 46         0.00010
       7 <- 51        -0.00019
       8 <- 11        -0.00775
       8 <- 16         0.00490
       8 <- 19        -0.01459
       8 <- 23        -0.00350
       8 <- 24        -0.00114
       8 <- 29         0.00275
       8 <- 32         0.00161
       8 <- 36        -0.00240
       8 <- 43         0.00142
       8 <- 47        -0.00077
       8 <- 50         0.00014

 Excited State   5:      Singlet-A2     7.9554 eV  155.85 nm  f=0.0000  <S**2>=0.000
       3 -> 28        -0.00267
       3 -> 35        -0.00186
       3 -> 45        -0.00069
       4 -> 10        -0.00173
       4 -> 13        -0.00883
       4 -> 17        -0.00117
       4 -> 22         0.00349
       4 -> 27        -0.00077
       4 -> 34        -0.00139
       4 -> 37        -0.00295
       4 -> 41        -0.00012
       4 -> 52        -0.00043
       5 -> 16         0.00089
       5 -> 19         0.00043
       5 -> 23        -0.00162
       5 -> 24        -0.00054
       5 -> 29         0.00015
       5 -> 32        -0.00012
       5 -> 36        -0.00050
       5 -> 43        -0.00063
       5 -> 47        -0.00052
       5 -> 50         0.00012
       5 -> 53        -0.00017
       6 -> 28        -0.00292
       6 -> 35         0.00077
       7 -> 28         0.00064
       7 -> 35        -0.00034
       7 -> 45        -0.00071
       8 -> 10        -0.04274
       8 -> 13         0.70394
       8 -> 17         0.04608
       8 -> 22        -0.02194
       8 -> 27         0.00299
       8 -> 34         0.00273
       8 -> 37        -0.00275
       8 -> 52         0.00048
       3 <- 28        -0.00181
       3 <- 35        -0.00153
       3 <- 45        -0.00076
       4 <- 10        -0.00033
       4 <- 13        -0.00082
       4 <- 17        -0.00027
       4 <- 22         0.00013
       4 <- 27        -0.00017
       4 <- 34         0.00065
       4 <- 37        -0.00111
       4 <- 41        -0.00034
       4 <- 52        -0.00014
       5 <- 11        -0.00030
       5 <- 16         0.00030
       5 <- 19         0.00079
       5 <- 23        -0.00229
       5 <- 24        -0.00164
       5 <- 29        -0.00043
       5 <- 32         0.00068
       5 <- 36        -0.00138
       5 <- 43        -0.00081
       5 <- 47        -0.00024
       5 <- 53        -0.00038
       6 <- 28        -0.00322
       6 <- 35         0.00049
       6 <- 45         0.00014
       7 <- 28         0.00071
       7 <- 45        -0.00045
       8 <- 10        -0.00626
       8 <- 13        -0.00411
       8 <- 17        -0.00348
       8 <- 22         0.00075
       8 <- 27        -0.00047
       8 <- 34         0.00292
       8 <- 37        -0.00173
       8 <- 41         0.00017
       8 <- 52         0.00019

 Excited State   6:      Singlet-B2     9.1651 eV  135.28 nm  f=0.0906  <S**2>=0.000
       3 -> 11         0.00038
       3 -> 16        -0.00072

 The electronic state is 1-A1.
 Alpha  occ. eigenvalues --  -19.17166 -10.28229  -1.32816  -0.74469  -0.71115
 Alpha  occ. eigenvalues --   -0.57781  -0.54914  -0.21097
 Alpha virt. eigenvalues --    0.01011   0.02810   0.04436   0.04619   0.13637
 Alpha virt. eigenvalues --    0.14427   0.17695   0.18965   0.21677   0.24021
 Alpha virt. eigenvalues --    0.26258   0.36558   0.50668   0.56756   0.56957

 Mulliken charges:
               1
     1  C    0.336579
     2  H   -0.079670
     3  H   -0.079670
     4  O   -0.177239
 Sum of Mulliken charges =  -0.00000

 Dipole moment (field-independent basis, Debye):
    X=              0.0000    Y=             -0.0000    Z=              0.8332  Tot=              0.8332
 Quadrupole moment (field-independent basis, Debye-Ang):
   XX=            -10.3201   YY=            -13.3358   ZZ=            -13.5739
   XY=             -0.0000   XZ=             -0.0000   YZ=             -0.0000

 Normal termination of Gaussian 16 at Fri Sep 17 10:52:24 2021.
