 Gaussian 16, Revision A.03,
 Gaussian 16:  ES64L-G16RevA.03 25-Dec-2016

 --------------------------------------------------------------------
 #p B3LYP/6-311+G** #p TD=(singlets,nstates=30)IOp(6/8=3) IOp(9/40=4)
 --------------------------------------------------------------------

 ------------------------------
 Scan Step 62, Bond Length 0.81
 ------------------------------
 Symbolic Z-matrix:
 Charge =  0 Multiplicity = 1

                         Standard orientation:
 ---------------------------------------------------------------------
 Center     Atomic      Atomic             Coordinates (Angstroms)
 Number     Number       Type             X           Y           Z
 ---------------------------------------------------------------------
      1          6           0        0.000000    0.000000   -0.331081
      2          1           0        0.000000    0.937260   -0.922431
      3          1           0       -0.000000   -0.937260   -0.922431
      4          8           0        0.000000   -0.000000    0.478919
 ---------------------------------------------------------------------

 SCF Done:  E(RB3LYP) =  -113.892904911     A.U. after    9 cycles

 Excitation energies and oscillator strengths:

 Excited State   1:      Singlet-B2     5.5127 eV  224.90 nm  f=0.0999  <S**2>=0.000
       3 -> 11         0.00081
       3 -> 16         0.00039
       3 -> 18         0.00089
       3 -> 23         0.00013
       3 -> 24         0.00106
       3 -> 29        -0.00021
       3 -> 42         0.00017
       3 -> 50        -0.00014
       3 -> 53         0.00011
       4 ->  9         0.00250
       4 -> 12         0.00525
       4 -> 14         0.00459
       4 -> 15         0.00164
       4 -> 19         0.00359
       4 -> 20         0.00158
       4 -> 21         0.00232
       4 -> 25         0.00143
       4 -> 26        -0.00093
       4 -> 30        -0.00170
       4 -> 31         0.00084
       4 -> 34         0.00046
       4 -> 38        -0.00081
       4 -> 41         0.00051
       4 -> 44         0.00040
       4 -> 46        -0.00064
       4 -> 48         0.00035
       5 -> 27         0.00131
       5 -> 35         0.00046
       5 -> 45         0.00087
       6 -> 11        -0.00697
       6 -> 16         0.00154
       6 -> 18         0.00065
       6 -> 23        -0.00197
       6 -> 24         0.00419
       6 -> 29        -0.00081
       6 -> 32        -0.00106
       6 -> 36         0.00080
       6 -> 40        -0.00010
       6 -> 42         0.00041
       7 -> 11         0.00325
       7 -> 16         0.00391
       7 -> 18         0.00315
       7 -> 23        -0.00155
       7 -> 24         0.00249
       7 -> 29         0.00029
       7 -> 32         0.00014
       7 -> 36        -0.00035
       7 -> 42        -0.00038
       7 -> 47         0.00044
       7 -> 50         0.00047
       7 -> 53        -0.00011
       8 ->  9         0.70610
       8 -> 12         0.00415
       8 -> 14        -0.02977
       8 -> 15         0.01056
       8 -> 19         0.02106
       8 -> 20        -0.00683
       8 -> 21        -0.00881
       8 -> 25         0.00050
       8 -> 26        -0.00028
       8 -> 30         0.00039
       8 -> 31         0.00319
       8 -> 34         0.00135
       8 -> 38         0.00100
       8 -> 39        -0.00043
       8 -> 41        -0.00058
       8 -> 46        -0.00101
       8 -> 48         0.00036
       8 -> 54        -0.00012
       3 <- 11         0.00029
       3 <- 18         0.00057
       3 <- 24         0.00079
       3 <- 29        -0.00019
       3 <- 40         0.00010
       3 <- 42         0.00015
       3 <- 53         0.00012
       4 <-  9         0.00180
       4 <- 12        -0.00019
       4 <- 14         0.00370
       4 <- 15         0.00186
       4 <- 19         0.00088
       4 <- 20         0.00070
       4 <- 21         0.00156
       4 <- 25         0.00157
       4 <- 26        -0.00125
       4 <- 30        -0.00062
       4 <- 31         0.00019
       4 <- 34         0.00025
       4 <- 38        -0.00051
       4 <- 39         0.00017
       4 <- 41         0.00046
       4 <- 44         0.00029
       4 <- 46        -0.00058
       4 <- 48         0.00030
       5 <- 27         0.00104
       5 <- 35         0.00037
       5 <- 45         0.00074
       6 <- 11        -0.00048
       6 <- 16         0.00165
       6 <- 18         0.00187
       6 <- 23        -0.00106
       6 <- 24         0.00326
       6 <- 29        -0.00064
       6 <- 32        -0.00083
       6 <- 36         0.00064
       6 <- 40        -0.00014
       6 <- 42         0.00021
       7 <- 11         0.00079
       7 <- 16         0.00233
       7 <- 18         0.00087
       7 <- 23        -0.00062
       7 <- 24         0.00118
       7 <- 29         0.00091
       7 <- 42        -0.00030
       7 <- 47         0.00043
       7 <- 50         0.00054
       8 <-  9        -0.00549
       8 <- 12         0.00307
       8 <- 14        -0.01526
       8 <- 15        -0.00342
       8 <- 19        -0.00131
       8 <- 20         0.00010
       8 <- 21        -0.00456
       8 <- 25        -0.00315
       8 <- 26        -0.00060
       8 <- 30         0.00053
       8 <- 31         0.00182
       8 <- 34         0.00151
       8 <- 38         0.00097
       8 <- 39        -0.00036
       8 <- 41        -0.00042
       8 <- 44        -0.00010
       8 <- 46        -0.00078
       8 <- 48         0.00031
 This state for optimization and/or second-order correction.
 Total Energy, E(TD-HF/TD-DFT) =  -113.690315200
 Copying the excited state density for this state as the 1-particle RhoCI density.

 Excited State   2:      Singlet-A2     5.5529 eV  223.28 nm  f=0.0000  <S**2>=0.000
       3 -> 27         0.00242
       3 -> 35         0.00177
       3 -> 45         0.00082
       4 -> 10         0.00336
       4 -> 13         0.00587
       4 -> 17         0.00544
       4 -> 22        -0.00313
       4 -> 28         0.00268
       4 -> 33         0.00094
       4 -> 37         0.00267
       4 -> 43         0.00036
       4 -> 49         0.00010
       4 -> 52         0.00052
       5 -> 11        -0.00047
       5 -> 16        -0.00034
       5 -> 18        -0.00039
       5 -> 23         0.00146
       5 -> 29        -0.00012
       5 -> 32         0.00019
       5 -> 36         0.00045
       5 -> 42         0.00047
       5 -> 47         0.00055
       5 -> 50        -0.00019
       5 -> 53         0.00019
       6 -> 27         0.00366
       6 -> 35        -0.00061
       6 -> 45        -0.00044
       7 -> 27         0.00081
       7 -> 45         0.00082
       8 -> 10         0.70074
       8 -> 13         0.08961
       8 -> 17         0.03065
       8 -> 22        -0.00241
       8 -> 28         0.00380
       8 -> 33         0.00325
       8 -> 37        -0.00237
       8 -> 52         0.00066
       3 <- 27         0.00187
       3 <- 35         0.00153
       3 <- 45         0.00083
       4 <- 10         0.00020
       4 <- 13         0.00109
       4 <- 17         0.00042
       4 <- 28         0.00012
       4 <- 33        -0.00097
       4 <- 37         0.00129
       4 <- 43         0.00038
       4 <- 52         0.00013
       5 <- 11        -0.00084
       5 <- 16         0.00100
       5 <- 18        -0.00254
       5 <- 23         0.00307
       5 <- 24        -0.00169
       5 <- 29         0.00150
       5 <- 32        -0.00058
       5 <- 36         0.00140
       5 <- 42         0.00066
       5 <- 47         0.00046
       5 <- 53         0.00051
       6 <- 27         0.00387
       6 <- 35        -0.00059
       6 <- 45        -0.00045
       7 <- 27         0.00077
       7 <- 35        -0.00014
       7 <- 45         0.00070
       8 <- 10        -0.00363
       8 <- 13        -0.00819
       8 <- 17        -0.00472
       8 <- 22         0.00031
       8 <- 28        -0.00038
       8 <- 33         0.00299
       8 <- 37        -0.00205
       8 <- 52         0.00021

 Excited State   3:      Singlet-B2     6.3303 eV  195.86 nm  f=0.0257  <S**2>=0.000
       3 -> 11         0.00010
       3 -> 16        -0.00058
       3 -> 18         0.00016
       3 -> 23        -0.00022
       3 -> 24        -0.00044
       3 -> 29        -0.00075
       3 -> 32        -0.00014
       3 -> 36         0.00027
       3 -> 42         0.00028
       3 -> 47        -0.00018
       3 -> 50        -0.00018
       3 -> 53         0.00013
       4 ->  9         0.00376
       4 -> 12        -0.00024
       4 -> 14        -0.00218
       4 -> 15        -0.00380
       4 -> 19         0.00258
       4 -> 21        -0.00143
       4 -> 25        -0.00084
       4 -> 26        -0.00105
       4 -> 30         0.00090
       4 -> 31         0.00217
       4 -> 34         0.00027
       4 -> 39         0.00089
       4 -> 41         0.00051
       4 -> 46        -0.00062
       4 -> 48         0.00033
       4 -> 51         0.00017
       5 -> 27         0.00094
       5 -> 35         0.00133
       5 -> 45         0.00092
       6 -> 11        -0.00202
       6 -> 16        -0.00497
       6 -> 18        -0.00050
       6 -> 23         0.00105
       6 -> 24        -0.00374
       6 -> 29         0.00145
       6 -> 32        -0.00055
       6 -> 40         0.00030
       7 -> 11         0.00281
       7 -> 16         0.00088
       7 -> 18         0.00231
       7 -> 23        -0.00119
       7 -> 24         0.00092
       7 -> 29         0.00013
       7 -> 32         0.00022
       7 -> 36        -0.00106
       7 -> 40         0.00028
       7 -> 42        -0.00054
       7 -> 47         0.00066
       7 -> 50         0.00052
       7 -> 53        -0.00018
       8 ->  9        -0.00412
       8 -> 12         0.70599
       8 -> 14         0.02134
       8 -> 15         0.02536
       8 -> 19         0.01422
       8 -> 20         0.01561
       8 -> 21         0.00390
       8 -> 25        -0.00054
       8 -> 26         0.00096
       8 -> 30        -0.00188
       8 -> 31        -0.00074
       8 -> 34        -0.00034
       8 -> 39         0.00108
       8 -> 41         0.00105
       8 -> 46        -0.00067
       8 -> 48         0.00042
       8 -> 54        -0.00015
       3 <- 11        -0.00017
       3 <- 16        -0.00058
       3 <- 24        -0.00049
       3 <- 29        -0.00050
       3 <- 32        -0.00015
       3 <- 36         0.00029
       3 <- 42         0.00024
       3 <- 47        -0.00014
       3 <- 53         0.00021
       4 <-  9        -0.00135
       4 <- 14        -0.00165
       4 <- 15        -0.00065
       4 <- 19        -0.00064
       4 <- 20         0.00038
       4 <- 21        -0.00100
       4 <- 25        -0.00093
       4 <- 26        -0.00092
       4 <- 30         0.00095
       4 <- 31         0.00095
       4 <- 34         0.00080
       4 <- 39         0.00067
       4 <- 41         0.00051
       4 <- 46        -0.00063
       4 <- 48         0.00021
       4 <- 51         0.00016
       5 <- 27         0.00049
       5 <- 35         0.00112
       5 <- 45         0.00080
       6 <- 11        -0.00010
       6 <- 16        -0.00110
       6 <- 18        -0.00096
       6 <- 23         0.00115
       6 <- 24        -0.00206
       6 <- 29         0.00072
       6 <- 32        -0.00060
       6 <- 36        -0.00031
       6 <- 40         0.00029
       6 <- 50        -0.00013
       7 <- 11         0.00037
       7 <- 16         0.00055
       7 <- 18         0.00022
       7 <- 23        -0.00026
       7 <- 24         0.00024
       7 <- 29         0.00047
       7 <- 36        -0.00070
       7 <- 40         0.00022
       7 <- 42        -0.00038
       7 <- 47         0.00058
       7 <- 50         0.00051
       8 <-  9         0.00283
       8 <- 12         0.00139
       8 <- 14         0.00811
       8 <- 15         0.00238
       8 <- 19        -0.00157
       8 <- 20        -0.00237
       8 <- 21         0.00300
       8 <- 25         0.00056
       8 <- 26        -0.00053
       8 <- 30        -0.00147
       8 <- 31        -0.00109
       8 <- 38         0.00024
       8 <- 39         0.00083
       8 <- 41         0.00090
       8 <- 46        -0.00056
       8 <- 48         0.00025

 Excited State   4:      Singlet-A1     6.4725 eV  191.56 nm  f=0.0306  <S**2>=0.000
       3 ->  9         0.00124
       3 -> 12         0.00069
       3 -> 15         0.00062
       3 -> 19         0.00136
       3 -> 20        -0.00014
       3 -> 21        -0.00047
       3 -> 25         0.00036
       3 -> 26         0.00011
       3 -> 30        -0.00100
       3 -> 31        -0.00011
       3 -> 34        -0.00026
       3 -> 38        -0.00032
       3 -> 39        -0.00029
       3 -> 48        -0.00011
       3 -> 51        -0.00025
       3 -> 54         0.00019
       4 -> 11         0.00706
       4 -> 16         0.00805
       4 -> 18         0.00536
       4 -> 23         0.00145
       4 -> 24         0.00372
       4 -> 29         0.00072
       4 -> 32        -0.00014
       4 -> 36         0.00100
       4 -> 42        -0.00027
       4 -> 50        -0.00033
       4 -> 53        -0.00010
       5 -> 10         0.00592
       5 -> 13        -0.00266
       5 -> 17         0.00480
       5 -> 22         0.00365
       5 -> 28         0.00093
       5 -> 33         0.00093
       5 -> 37         0.00055
       5 -> 43         0.00036
       5 -> 49        -0.00035
       6 ->  9         0.00629
       6 -> 12        -0.01096
       6 -> 14         0.00604
       6 -> 15         0.00326
       6 -> 19         0.00197
       6 -> 20        -0.00689
       6 -> 21         0.00121
       6 -> 25         0.00672
       6 -> 26        -0.00111
       6 -> 30         0.00094
       6 -> 31        -0.00101
       6 -> 34        -0.00126
       6 -> 38        -0.00056
       6 -> 39         0.00111
       6 -> 44         0.00033
       6 -> 46        -0.00023
       6 -> 48        -0.00035
       7 ->  9         0.01240
       7 -> 12         0.00620
       7 -> 14         0.00170
       7 -> 15        -0.00116
       7 -> 19         0.00867
       7 -> 20        -0.00138
       7 -> 21         0.00026
       7 -> 25         0.00145
       7 -> 26         0.00065
       7 -> 30        -0.00039
       7 -> 31         0.00085
       7 -> 34        -0.00095
       7 -> 38        -0.00013
       7 -> 39         0.00019
       7 -> 48        -0.00022
       7 -> 51         0.00034
       8 -> 11         0.70528
       8 -> 16         0.04522
       8 -> 18        -0.01046
       8 -> 23         0.00197
       8 -> 24         0.00243
       8 -> 29         0.00393
       8 -> 32         0.00164
       8 -> 36        -0.00277
       8 -> 40         0.00020
       8 -> 42         0.00160
       8 -> 47        -0.00057
       3 <-  9         0.00057
       3 <- 12         0.00030
       3 <- 15         0.00034
       3 <- 19         0.00080
       3 <- 21        -0.00023
       3 <- 25         0.00034
       3 <- 26         0.00012
       3 <- 30        -0.00062
       3 <- 31        -0.00012
       3 <- 34        -0.00023
       3 <- 38        -0.00023
       3 <- 39        -0.00025
       3 <- 41        -0.00010
       3 <- 46         0.00012
       3 <- 48        -0.00013
       3 <- 51        -0.00021
       3 <- 54         0.00017
       4 <- 11         0.00256
       4 <- 16         0.00281
       4 <- 18         0.00284
       4 <- 23         0.00119
       4 <- 24         0.00199
       4 <- 29         0.00031
       4 <- 32        -0.00025
       4 <- 36         0.00085
       4 <- 42        -0.00023
       4 <- 50        -0.00027
       5 <- 10         0.00256
       5 <- 13        -0.00122
       5 <- 17         0.00246
       5 <- 22         0.00230
       5 <- 28         0.00062
       5 <- 33         0.00073
       5 <- 37         0.00046
       5 <- 43         0.00031
       5 <- 49        -0.00031
       6 <-  9         0.00639
       6 <- 12        -0.00437
       6 <- 14         0.00463
       6 <- 15         0.00284
       6 <- 19         0.00129
       6 <- 20        -0.00387
       6 <- 25         0.00424
       6 <- 26        -0.00055
       6 <- 30         0.00027
       6 <- 31        -0.00113
       6 <- 34        -0.00095
       6 <- 38        -0.00065
       6 <- 39         0.00088
       6 <- 44         0.00037
       6 <- 46        -0.00020
       6 <- 48        -0.00028
       7 <-  9         0.00434
       7 <- 12         0.00184
       7 <- 14         0.00073
       7 <- 15        -0.00055
       7 <- 19         0.00396
       7 <- 20        -0.00095
       7 <- 25         0.00090
       7 <- 26         0.00032
       7 <- 30        -0.00037
       7 <- 31         0.00059
       7 <- 34        -0.00065
       7 <- 38        -0.00017
       7 <- 39         0.00026
       7 <- 46        -0.00014
       7 <- 48        -0.00013
       7 <- 51         0.00032
       8 <- 11        -0.00520
       8 <- 16         0.00474
       8 <- 18        -0.01267
       8 <- 23        -0.00202
       8 <- 24        -0.00107
       8 <- 29         0.00230
       8 <- 32         0.00135
       8 <- 36        -0.00207
       8 <- 42         0.00128
       8 <- 47        -0.00062
       8 <- 53        -0.00010

 Excited State   5:      Singlet-A2     7.6499 eV  162.07 nm  f=0.0000  <S**2>=0.000
       3 -> 27         0.00236
       3 -> 35         0.00182
       3 -> 45         0.00079
       4 -> 10         0.00529
       4 -> 13         0.01005
       4 -> 17        -0.00036
       4 -> 22        -0.00274
       4 -> 28         0.00064
       4 -> 33         0.00206
       4 -> 37         0.00302
       4 -> 43         0.00029
       4 -> 52         0.00049
       5 -> 16        -0.00161
       5 -> 18        -0.00032
       5 -> 23         0.00165
       5 -> 29        -0.00036
       5 -> 32         0.00012
       5 -> 36         0.00048
       5 -> 42         0.00053
       5 -> 47         0.00050
       5 -> 53         0.00020
       6 -> 27         0.00200
       6 -> 35        -0.00084
       6 -> 45        -0.00023
       7 -> 27         0.00045
       7 -> 45         0.00085
       8 -> 10        -0.09065
       8 -> 13         0.70047
       8 -> 17         0.02163
       8 -> 22        -0.02387
       8 -> 28         0.00284
       8 -> 33         0.00219
       8 -> 37        -0.00201
       8 -> 43        -0.00015
       8 -> 49        -0.00010
       8 -> 52         0.00053
       3 <- 27         0.00153
       3 <- 35         0.00150
       3 <- 45         0.00089
       4 <- 10         0.00034
       4 <- 13         0.00066
       4 <- 17        -0.00022
       4 <- 33        -0.00051
       4 <- 37         0.00107
       4 <- 43         0.00033
       4 <- 52         0.00015
       5 <- 11         0.00031
       5 <- 16        -0.00041
       5 <- 18        -0.00098
       5 <- 23         0.00285
       5 <- 24        -0.00119
       5 <- 29         0.00029
       5 <- 32        -0.00079
       5 <- 36         0.00152
       5 <- 42         0.00084
       5 <- 47         0.00024
       5 <- 53         0.00044
       6 <- 27         0.00253
       6 <- 35        -0.00026
       6 <- 45        -0.00032
       7 <- 27         0.00057
       7 <- 35        -0.00025
       7 <- 45         0.00048
       8 <- 10        -0.00733
       8 <- 13        -0.00351
       8 <- 17        -0.00199
       8 <- 22         0.00067
       8 <- 28        -0.00036
       8 <- 33         0.00205
       8 <- 37        -0.00151
       8 <- 43         0.00010
       8 <- 52         0.00021

 Excited State   6:      Singlet-B2     9.6000 eV  129.15 nm  f=0.1526  <S**2>=0.000
       3 -> 11        -0.00037
       3 -> 16         0.00093
       3 -> 18        -0.00079
       3 -> 23         0.00057
       3 -> 24         0.00034
       3 -> 29         0.00081
       3 -> 32        -0.00066
       3 -> 40         0.00041
       3 -> 42         0.00040
       3 -> 47         0.00026
       4 ->  9         0.00578
       4 -> 12         0.00614

 The electronic state is 1-A1.
 Alpha  occ. eigenvalues --  -19.14485 -10.24242  -1.31128  -0.66313  -0.62212
 Alpha  occ. eigenvalues --   -0.58406  -0.53798  -0.22721
 Alpha virt. eigenvalues --    0.01320   0.02465   0.04436   0.04498   0.10982
 Alpha virt. eigenvalues --    0.14378   0.17652   0.19863   0.21765   0.24513
 Alpha virt. eigenvalues --    0.25287   0.36512   0.50459   0.54144   0.55401

 Mulliken charges:
               1
     1  C    0.295833
     2  H   -0.035216
     3  H   -0.035216
     4  O   -0.225401
 Sum of Mulliken charges =  -0.00000

 Dipole moment (field-independent basis, Debye):
    X=              0.0000    Y=             -0.0000    Z=              0.0928  Tot=              0.0928
 Quadrupole moment (field-independent basis, Debye-Ang):
   XX=            -10.5618   YY=            -12.7359   ZZ=            -13.3924
   XY=             -0.0000   XZ=             -0.0000   YZ=             -0.0000

 Normal termination of Gaussian 16 at Fri Sep 17 10:52:27 2021.
