 Gaussian 16, Revision A.03,
 Gaussian 16:  ES64L-G16RevA.03 25-Dec-2016

 --------------------------------------------------------------------
 #p B3LYP/6-311+G** #p TD=(singlets,nstates=30)IOp(6/8=3) IOp(9/40=4)
 --------------------------------------------------------------------

 --------------------------------
 Scan Step 235, Bond Length 1.675
 --------------------------------
 Symbolic Z-matrix:
 Charge =  0 Multiplicity = 1

                         Standard orientation:
 ---------------------------------------------------------------------
 Center     Atomic      Atomic             Coordinates (Angstroms)
 Number     Number       Type             X           Y           Z
 ---------------------------------------------------------------------
      1          6           0        0.000000    0.000000   -0.763581
      2          1           0        0.000000    0.937260   -1.354931
      3          1           0       -0.000000   -0.937260   -1.354931
      4          8           0        0.000000   -0.000000    0.911419
 ---------------------------------------------------------------------

 SCF Done:  E(RB3LYP) =  -114.400132768     A.U. after   11 cycles

 Excitation energies and oscillator strengths:

 Excited State   1:      Singlet-A2     1.7231 eV  719.55 nm  f=0.0000  <S**2>=0.000
       3 -> 27         0.00100
       3 -> 38         0.00071
       3 -> 46         0.00334
       4 -> 27         0.00058
       4 -> 46        -0.00120
       5 ->  9         0.00517
       5 -> 13         0.00106
       5 -> 18         0.00244
       5 -> 23         0.00158
       5 -> 28         0.00206
       5 -> 37         0.00113
       5 -> 44         0.00029
       5 -> 52         0.00028
       6 -> 27        -0.00062
       6 -> 38        -0.00070
       6 -> 46         0.00120
       7 -> 12        -0.00102
       7 -> 16         0.00497
       7 -> 19        -0.00425
       7 -> 22        -0.00094
       7 -> 25         0.00081
       7 -> 30        -0.00167
       7 -> 33         0.00033
       7 -> 49         0.00012
       7 -> 50         0.00013
       7 -> 53         0.00043
       8 ->  9         0.70919
       8 -> 13        -0.01069
       8 -> 18         0.02140
       8 -> 23        -0.00246
       8 -> 28         0.01088
       8 -> 31         0.00134
       8 -> 37         0.00059
       8 -> 48        -0.00031
       8 -> 52         0.00192
       3 <- 27         0.00041
       3 <- 38         0.00045
       3 <- 46         0.00338
       4 <- 27         0.00103
       4 <- 38         0.00023
       4 <- 46        -0.00096
       5 <- 13        -0.00046
       5 <- 18        -0.00057
       5 <- 23         0.00023
       5 <- 28        -0.00040
       5 <- 31         0.00030
       5 <- 37         0.00064
       6 <- 38        -0.00056
       6 <- 46         0.00092
       7 <- 12         0.00103
       7 <- 16        -0.01031
       7 <- 19         0.00437
       7 <- 22         0.00658
       7 <- 25         0.00058
       7 <- 30         0.00542
       7 <- 33        -0.00043
       7 <- 36         0.00055
       7 <- 40        -0.00035
       7 <- 42         0.00016
       7 <- 49        -0.00044
       7 <- 53         0.00146
       8 <-  9        -0.05899
       8 <- 13         0.00014
       8 <- 18        -0.00701
       8 <- 28        -0.00253
       8 <- 31        -0.00069
       8 <- 37        -0.00036
       8 <- 48         0.00011
       8 <- 52         0.00049
 This state for optimization and/or second-order correction.
 Total Energy, E(TD-HF/TD-DFT) =  -114.336810792
 Copying the excited state density for this state as the 1-particle RhoCI density.

 Excited State   2:      Singlet-A1     4.4778 eV  276.89 nm  f=0.0578  <S**2>=0.000
       3 -> 10        -0.01802
       3 -> 11        -0.00870
       3 -> 14         0.00715
       3 -> 15         0.00291
       3 -> 17        -0.00340
       3 -> 20        -0.00398
       3 -> 21        -0.00045
       3 -> 24         0.00172
       3 -> 26         0.00296
       3 -> 29        -0.00129
       3 -> 32         0.00276
       3 -> 34         0.00181
       3 -> 35        -0.00119
       3 -> 39         0.00068
       3 -> 43         0.00048
       3 -> 45         0.00042
       3 -> 47         0.00229
       3 -> 51         0.00123
       3 -> 54         0.00010
       4 -> 10        -0.00699
       4 -> 11         0.01297
       4 -> 14         0.00389
       4 -> 15        -0.00942
       4 -> 17         0.00287
       4 -> 20         0.00408
       4 -> 21         0.00039
       4 -> 24        -0.00456
       4 -> 26         0.00452
       4 -> 29         0.00094
       4 -> 32        -0.00136
       4 -> 34        -0.00133
       4 -> 35         0.00040
       4 -> 41         0.00012
       4 -> 43        -0.00050
       4 -> 45        -0.00083
       4 -> 47        -0.00106
       4 -> 51        -0.00033
       4 -> 54         0.00013
       5 -> 12         0.01444
       5 -> 16         0.00762
       5 -> 19         0.00141
       5 -> 22         0.00752
       5 -> 25         0.00699
       5 -> 33        -0.00285
       5 -> 36         0.00278
       5 -> 40        -0.00137
       5 -> 42         0.00073
       5 -> 49         0.00036
       5 -> 50        -0.00074
       6 -> 10         0.19511
       6 -> 11         0.07950
       6 -> 14        -0.08074
       6 -> 15        -0.04433
       6 -> 17        -0.01885
       6 -> 20        -0.00712
       6 -> 21         0.01055
       6 -> 24        -0.01181
       6 -> 26        -0.00549
       6 -> 29        -0.00705
       6 -> 32         0.00161
       6 -> 34         0.00141
       6 -> 35        -0.00027
       6 -> 39         0.00100
       6 -> 41        -0.00030
       6 -> 43         0.00085
       6 -> 45         0.00083
       6 -> 47         0.00107
       6 -> 51         0.00077
       6 -> 54        -0.00079
       7 ->  9         0.68175
       7 -> 13        -0.00252
       7 -> 18        -0.01561
       7 -> 23        -0.00104
       7 -> 28        -0.00040
       7 -> 31        -0.00316
       7 -> 37         0.00107
       7 -> 44        -0.00103
       7 -> 48         0.00029
       7 -> 52         0.00105
       8 -> 12        -0.00784
       8 -> 16         0.05713
       8 -> 19        -0.02251
       8 -> 22        -0.02141
       8 -> 25         0.00030
       8 -> 30        -0.01070
       8 -> 33         0.00171
       8 -> 36        -0.00187
       8 -> 40         0.00091
       8 -> 42        -0.00036
       8 -> 49         0.00045
       8 -> 50         0.00020
       8 -> 53        -0.00063
       3 <- 10        -0.01280
       3 <- 11        -0.00657
       3 <- 14         0.00552
       3 <- 15         0.00180
       3 <- 17        -0.00181
       3 <- 20        -0.00305
       3 <- 21        -0.00086
       3 <- 24         0.00096
       3 <- 26         0.00164
       3 <- 29        -0.00078
       3 <- 32         0.00250
       3 <- 34         0.00109
       3 <- 35        -0.00105
       3 <- 39         0.00063
       3 <- 43         0.00058
       3 <- 45         0.00060
       3 <- 47         0.00235
       3 <- 51         0.00122
       3 <- 54         0.00021
       4 <- 10        -0.00313
       4 <- 11         0.00851
       4 <- 14         0.00220
       4 <- 15        -0.00585
       4 <- 17         0.00155
       4 <- 20         0.00381
       4 <- 21         0.00025
       4 <- 24        -0.00323
       4 <- 26         0.00370
       4 <- 29         0.00021
       4 <- 32        -0.00162
       4 <- 34        -0.00114
       4 <- 35         0.00067
       4 <- 43        -0.00048
       4 <- 45        -0.00086
       4 <- 47        -0.00068
       4 <- 51        -0.00018
       5 <- 12         0.00718
       5 <- 16         0.00424
       5 <- 19         0.00102
       5 <- 22         0.00491
       5 <- 25         0.00498
       5 <- 30         0.00017
       5 <- 33        -0.00227
       5 <- 36         0.00231
       5 <- 40        -0.00121
       5 <- 42         0.00062
       5 <- 49         0.00033
       5 <- 50        -0.00068
       6 <- 10         0.06158
       6 <- 11         0.02754
       6 <- 14        -0.03374
       6 <- 15        -0.02034
       6 <- 17        -0.00987
       6 <- 20        -0.00520
       6 <- 21         0.00648
       6 <- 24        -0.00741
       6 <- 26        -0.00315
       6 <- 29        -0.00492
       6 <- 32         0.00197
       6 <- 34         0.00168
       6 <- 35        -0.00064
       6 <- 39         0.00101
       6 <- 41        -0.00022
       6 <- 43         0.00072
       6 <- 45         0.00069
       6 <- 47         0.00064
       6 <- 51         0.00061
       6 <- 54        -0.00069
       7 <-  9        -0.12785
       7 <- 13         0.00607
       7 <- 18        -0.01315
       7 <- 23         0.00255
       7 <- 28        -0.00313
       7 <- 31        -0.00151
       7 <- 37         0.00045
       7 <- 44        -0.00067
       7 <- 48        -0.00026
       7 <- 52         0.00094
       8 <- 12        -0.00226
       8 <- 16         0.02285
       8 <- 19        -0.01074
       8 <- 22        -0.01243
       8 <- 30        -0.00801
       8 <- 33         0.00130
       8 <- 36        -0.00146
       8 <- 40         0.00073
       8 <- 42        -0.00029
       8 <- 49         0.00028
       8 <- 50         0.00017
       8 <- 53        -0.00058

 Excited State   3:      Singlet-B1     4.8814 eV  253.99 nm  f=0.0012  <S**2>=0.000
       3 ->  9        -0.02702
       3 -> 13         0.00139
       3 -> 18        -0.00426
       3 -> 23         0.00155
       3 -> 28        -0.00081
       3 -> 31        -0.00050
       3 -> 44         0.00024
       3 -> 48         0.00098
       3 -> 52         0.00090
       4 ->  9         0.01244
       4 -> 13        -0.00257
       4 -> 18         0.00017
       4 -> 23        -0.00231
       4 -> 28         0.00029
       4 -> 31        -0.00143
       4 -> 37        -0.00038
       4 -> 44         0.00012
       4 -> 48        -0.00095
       4 -> 52        -0.00050
       5 -> 27         0.00011
       5 -> 38         0.00199
       5 -> 46         0.00072
       6 ->  9         0.70237
       6 -> 13        -0.01890
       6 -> 18         0.01586
       6 -> 23        -0.01070
       6 -> 28         0.00390
       6 -> 31         0.00298
       6 -> 37        -0.00200
       6 -> 44        -0.00255
       6 -> 48         0.00390
       6 -> 52         0.00132
       7 -> 10         0.07676
       7 -> 11         0.02613
       7 -> 14        -0.02047
       7 -> 15        -0.00615
       7 -> 17        -0.00895
       7 -> 20         0.00323
       7 -> 21         0.00065
       7 -> 24        -0.00107
       7 -> 26        -0.00187
       7 -> 29        -0.00386
       7 -> 32        -0.00038
       7 -> 34         0.00092
       7 -> 35         0.00168
       7 -> 39         0.00016
       7 -> 41        -0.00039
       7 -> 43         0.00051
       7 -> 47         0.00401
       7 -> 51         0.00120
       7 -> 54         0.00029
       8 -> 27         0.00031
       8 -> 46         0.00498
       3 <-  9        -0.00912
       3 <- 13        -0.00076
       3 <- 18        -0.00276
       3 <- 23        -0.00061
       3 <- 28        -0.00049
       3 <- 31        -0.00071
       3 <- 37         0.00011
       3 <- 44        -0.00020
       3 <- 48         0.00113
       3 <- 52         0.00074
       4 <-  9         0.00665
       4 <- 13        -0.00038
       4 <- 18         0.00176
       4 <- 23        -0.00072
       4 <- 28         0.00151
       4 <- 31        -0.00095
       4 <- 37        -0.00023
       4 <- 48        -0.00082
       4 <- 52        -0.00028
       5 <- 27        -0.00047
       5 <- 38         0.00165
       5 <- 46         0.00064
       6 <-  9        -0.02808
       6 <- 13         0.00176
       6 <- 18        -0.00357
       6 <- 23        -0.00021
       6 <- 28        -0.00355
       6 <- 31         0.00094
       6 <- 37        -0.00171
       6 <- 44        -0.00124
       6 <- 48         0.00349
       6 <- 52         0.00038
       7 <- 10        -0.02579
       7 <- 11        -0.01144
       7 <- 14         0.01501
       7 <- 15         0.01048
       7 <- 17         0.00198
       7 <- 20         0.00445
       7 <- 21        -0.00393
       7 <- 24         0.00437
       7 <- 26         0.00170
       7 <- 29         0.00139
       7 <- 32         0.00017
       7 <- 34         0.00104
       7 <- 35         0.00232
       7 <- 39         0.00050
       7 <- 43         0.00034
       7 <- 45        -0.00013
       7 <- 47         0.00369
       7 <- 51         0.00115
       7 <- 54         0.00102
       8 <- 27         0.00079
       8 <- 38         0.00020
       8 <- 46         0.00466

 Excited State   4:      Singlet-B2     5.3055 eV  233.69 nm  f=0.0080  <S**2>=0.000
       3 -> 12        -0.00147
       3 -> 16         0.00194
       3 -> 19        -0.00461
       3 -> 22         0.00073
       3 -> 25         0.00066
       3 -> 30        -0.00329
       3 -> 33        -0.00010
       3 -> 36         0.00206
       3 -> 40        -0.00178
       3 -> 42         0.00036
       3 -> 49        -0.00318
       3 -> 50         0.00022
       3 -> 53         0.00031
       4 -> 12         0.00046
       4 -> 16        -0.00234
       4 -> 19         0.00036
       4 -> 22         0.00267
       4 -> 25        -0.00140
       4 -> 30         0.00138
       4 -> 33        -0.00045
       4 -> 36         0.00052
       4 -> 40         0.00046
       4 -> 49         0.00057
       4 -> 50        -0.00012
       5 -> 10         0.01020
       5 -> 11         0.00409
       5 -> 14        -0.00869
       5 -> 15         0.00429
       5 -> 20         0.00216
       5 -> 21         0.00519
       5 -> 24         0.00179
       5 -> 26        -0.00136
       5 -> 29        -0.00198
       5 -> 32        -0.00193
       5 -> 34        -0.00091
       5 -> 35        -0.00025
       5 -> 39        -0.00099
       5 -> 41         0.00063
       5 -> 45         0.00012
       5 -> 47        -0.00073
       5 -> 51         0.00044
       5 -> 54        -0.00024
       6 -> 12         0.00295
       6 -> 16        -0.00213
       6 -> 19         0.00354
       6 -> 22        -0.00038
       6 -> 25        -0.00094
       6 -> 30        -0.00038
       6 -> 33         0.00017
       6 -> 36        -0.00191
       6 -> 40         0.00156
       6 -> 42        -0.00054
       6 -> 49         0.00162
       6 -> 53        -0.00041
       7 -> 27        -0.00067
       7 -> 38         0.00067
       7 -> 46         0.00372
       8 -> 10         0.67574
       8 -> 11         0.17234
       8 -> 14        -0.10861
       8 -> 15        -0.04451
       8 -> 17        -0.01556
       8 -> 20         0.00064
       8 -> 21         0.00755
       8 -> 24        -0.00690
       8 -> 26        -0.00550
       8 -> 29        -0.01104
       8 -> 32        -0.00364
       8 -> 34        -0.00191
       8 -> 35         0.00022
       8 -> 39        -0.00074
       8 -> 43        -0.00025
       8 -> 45         0.00136
       8 -> 47        -0.00454
       8 -> 51         0.00213
       8 -> 54        -0.00200
       3 <- 12        -0.00053
       3 <- 16         0.00057
       3 <- 19        -0.00218
       3 <- 22         0.00095
       3 <- 25         0.00059
       3 <- 30        -0.00131
       3 <- 36         0.00154
       3 <- 40        -0.00156
       3 <- 42         0.00029
       3 <- 49        -0.00326
       3 <- 50         0.00019
       3 <- 53         0.00086
       4 <- 16        -0.00217
       4 <- 22         0.00260
       4 <- 25        -0.00087
       4 <- 30         0.00133
       4 <- 33        -0.00051
       4 <- 36         0.00075
       4 <- 40         0.00017
       4 <- 49         0.00042
       5 <- 10        -0.00044
       5 <- 11        -0.00135
       5 <- 14        -0.00097
       5 <- 15         0.00355
       5 <- 17         0.00021
       5 <- 20         0.00068
       5 <- 21         0.00205
       5 <- 24         0.00227
       5 <- 26        -0.00037
       5 <- 29        -0.00046
       5 <- 32        -0.00020
       5 <- 34        -0.00019
       5 <- 39        -0.00036
       5 <- 41         0.00066
       5 <- 43         0.00011
       5 <- 45         0.00038
       5 <- 47        -0.00065
       5 <- 51         0.00024
       6 <- 12        -0.00017
       6 <- 16         0.00633
       6 <- 19        -0.00294
       6 <- 22        -0.00456
       6 <- 25        -0.00074
       6 <- 30        -0.00531
       6 <- 33         0.00048
       6 <- 36        -0.00188
       6 <- 40         0.00159
       6 <- 42        -0.00061
       6 <- 49         0.00188
       6 <- 53        -0.00121
       7 <- 27        -0.00065
       7 <- 38         0.00053
       7 <- 46         0.00311
       8 <- 10        -0.02348
       8 <- 11        -0.01077
       8 <- 14         0.01098
       8 <- 15         0.00334
       8 <- 17         0.00073
       8 <- 20        -0.00271
       8 <- 21        -0.00209
       8 <- 24         0.00156
       8 <- 26         0.00182
       8 <- 29        -0.00046
       8 <- 32         0.00283
       8 <- 34         0.00124
       8 <- 35        -0.00045
       8 <- 39         0.00150
       8 <- 41         0.00045
       8 <- 43         0.00045
       8 <- 45         0.00210
       8 <- 47        -0.00352
       8 <- 51         0.00138
       8 <- 54        -0.00052

 Excited State   5:      Singlet-B1     6.3322 eV  195.80 nm  f=0.0078  <S**2>=0.000
       3 ->  9        -0.01388
       3 -> 13         0.00083
       3 -> 18        -0.00310
       3 -> 23         0.00098
       3 -> 28        -0.00337
       3 -> 31        -0.00160
       3 -> 44         0.00049
       3 -> 48        -0.00229
       4 ->  9        -0.03455
       4 -> 13         0.00638
       4 -> 18         0.00145
       4 -> 23         0.00465
       4 -> 28         0.00195
       4 -> 31        -0.00019
       4 -> 37         0.00035
       4 -> 44        -0.00046
       4 -> 48         0.00056
       4 -> 52         0.00011
       5 -> 27        -0.00732
       5 -> 38        -0.00311
       5 -> 46         0.00052
       6 ->  9        -0.08118
       6 -> 13        -0.00313
       6 -> 18         0.00226
       6 -> 23        -0.00103
       6 -> 28         0.00333
       6 -> 31        -0.00364
       6 -> 37         0.00190
       6 -> 48         0.00087
       6 -> 52        -0.00052
       7 -> 10         0.67766
       7 -> 11         0.14750
       7 -> 14        -0.09696
       7 -> 15        -0.04853
       7 -> 17        -0.00963
       7 -> 20        -0.00485
       7 -> 21         0.00366
       7 -> 24        -0.00976
       7 -> 26        -0.00753
       7 -> 29        -0.00665
       7 -> 32        -0.00169
       7 -> 34        -0.00399
       7 -> 35        -0.00192
       7 -> 39        -0.00067
       7 -> 43         0.00060
       7 -> 45         0.00086
       7 -> 47         0.00199
       7 -> 51         0.00101
       7 -> 54        -0.00135
       8 -> 27         0.00114
       8 -> 38         0.00032
       8 -> 46         0.00233
       3 <-  9        -0.00293
       3 <- 13         0.00066
       3 <- 18        -0.00126
       3 <- 23         0.00062
       3 <- 28        -0.00209
       3 <- 31        -0.00031
       3 <- 37        -0.00021
       3 <- 44         0.00021
       3 <- 48        -0.00248
       3 <- 52         0.00042
       4 <-  9        -0.01096
       4 <- 13         0.00241
       4 <- 18         0.00054
       4 <- 23         0.00229
       4 <- 28         0.00176
       4 <- 31        -0.00032
       4 <- 37         0.00042
       4 <- 44        -0.00069
       4 <- 48         0.00015
       5 <- 27        -0.00484
       5 <- 38        -0.00237
       5 <- 46         0.00048
       6 <-  9        -0.02454
       6 <- 18        -0.00363
       6 <- 23         0.00023
       6 <- 28        -0.00065
       6 <- 31        -0.00409

 The electronic state is 1-A1.
 Alpha  occ. eigenvalues --  -19.17433 -10.33143  -0.91428  -0.70315  -0.48946
 Alpha  occ. eigenvalues --   -0.40709  -0.32188  -0.28896
 Alpha virt. eigenvalues --   -0.15499  -0.02879   0.00575   0.04074   0.06112
 Alpha virt. eigenvalues --    0.07693   0.12393   0.14045   0.18888   0.21274
 Alpha virt. eigenvalues --    0.23986   0.30258   0.38828   0.40542   0.50867

 Mulliken charges:
               1
     1  C   -0.074086
     2  H    0.184771
     3  H    0.184771
     4  O   -0.295456
 Sum of Mulliken charges =  -0.00000

 Dipole moment (field-independent basis, Debye):
    X=             -0.0000    Y=             -0.0000    Z=             -3.9058  Tot=              3.9058
 Quadrupole moment (field-independent basis, Debye-Ang):
   XX=            -12.8531   YY=            -11.9385   ZZ=            -11.0918
   XY=              0.0000   XZ=              0.0000   YZ=              0.0000

 Normal termination of Gaussian 16 at Fri Sep 17 10:53:02 2021.
