 Gaussian 16, Revision A.03,
 Gaussian 16:  ES64L-G16RevA.03 25-Dec-2016

 --------------------------------------------------------------------
 #p B3LYP/6-311+G** #p TD=(singlets,nstates=30)IOp(6/8=3) IOp(9/40=4)
 --------------------------------------------------------------------

 -------------------------------
 Scan Step 87, Bond Length 0.935
 -------------------------------
 Symbolic Z-matrix:
 Charge =  0 Multiplicity = 1

                         Standard orientation:
 ---------------------------------------------------------------------
 Center     Atomic      Atomic             Coordinates (Angstroms)
 Number     Number       Type             X           Y           Z
 ---------------------------------------------------------------------
      1          6           0        0.000000    0.000000   -0.393581
      2          1           0        0.000000    0.937260   -0.984931
      3          1           0       -0.000000   -0.937260   -0.984931
      4          8           0        0.000000   -0.000000    0.541419
 ---------------------------------------------------------------------

 SCF Done:  E(RB3LYP) =  -114.329390423     A.U. after    9 cycles

 Excitation energies and oscillator strengths:

 Excited State   1:      Singlet-A2     5.3873 eV  230.14 nm  f=0.0000  <S**2>=0.000
       3 -> 27         0.00296
       3 -> 36         0.00238
       3 -> 46         0.00141
       4 -> 27         0.00333
       4 -> 36        -0.00074
       4 -> 46        -0.00079
       5 ->  9         0.01155
       5 -> 13        -0.00948
       5 -> 17         0.00617
       5 -> 22        -0.00338
       5 -> 28         0.00325
       5 -> 31         0.00231
       5 -> 37         0.00381
       5 -> 43         0.00059
       5 -> 52         0.00078
       6 -> 12        -0.00059
       6 -> 16        -0.00136
       6 -> 18        -0.00074
       6 -> 23         0.00177
       6 -> 24         0.00072
       6 -> 29        -0.00051
       6 -> 33         0.00029
       6 -> 35         0.00055
       6 -> 40        -0.00015
       6 -> 42         0.00048
       6 -> 47         0.00066
       6 -> 50        -0.00017
       6 -> 53         0.00032
       7 -> 27         0.00090
       7 -> 36        -0.00038
       7 -> 46         0.00133
       8 ->  9         0.69613
       8 -> 13        -0.11996
       8 -> 17         0.02891
       8 -> 22        -0.00969
       8 -> 28         0.00573
       8 -> 31         0.00348
       8 -> 37        -0.00214
       8 -> 43        -0.00024
       8 -> 52         0.00106
       3 <- 27         0.00215
       3 <- 36         0.00204
       3 <- 46         0.00147
       4 <- 27         0.00391
       4 <- 36        -0.00039
       4 <- 46        -0.00075
       5 <-  9         0.00026
       5 <- 13        -0.00111
       5 <- 17        -0.00017
       5 <- 22         0.00033
       5 <- 28        -0.00018
       5 <- 31        -0.00111
       5 <- 37         0.00171
       5 <- 43         0.00044
       5 <- 49         0.00013
       5 <- 52         0.00020
       6 <- 12        -0.00095
       6 <- 16         0.00277
       6 <- 18        -0.00305
       6 <- 23         0.00522
       6 <- 24        -0.00145
       6 <- 29         0.00184
       6 <- 33        -0.00103
       6 <- 35         0.00217
       6 <- 40        -0.00022
       6 <- 42         0.00095
       6 <- 47         0.00050
       6 <- 53         0.00084
       7 <- 27         0.00111
       7 <- 36        -0.00042
       7 <- 46         0.00105
       8 <-  9        -0.01117
       8 <- 13         0.00793
       8 <- 17        -0.00403
       8 <- 22         0.00056
       8 <- 28        -0.00041
       8 <- 31         0.00257
       8 <- 37        -0.00227
       8 <- 52         0.00032
 This state for optimization and/or second-order correction.
 Total Energy, E(TD-HF/TD-DFT) =  -114.131411021
 Copying the excited state density for this state as the 1-particle RhoCI density.

 Excited State   2:      Singlet-B2     6.1030 eV  203.15 nm  f=0.0781  <S**2>=0.000
       3 -> 12         0.00097
       3 -> 18         0.00110
       3 -> 24         0.00120
       3 -> 29        -0.00017
       3 -> 35        -0.00014
       3 -> 42         0.00012
       3 -> 50        -0.00014
       4 -> 12        -0.00578
       4 -> 16         0.00072
       4 -> 18         0.00189
       4 -> 23        -0.00281
       4 -> 24         0.00404
       4 -> 29        -0.00041
       4 -> 33        -0.00097
       4 -> 35         0.00089
       4 -> 40        -0.00021
       4 -> 42         0.00044
       5 -> 10         0.00063
       5 -> 11        -0.00757
       5 -> 14         0.00576
       5 -> 15         0.00154
       5 -> 19         0.00367
       5 -> 20        -0.00092
       5 -> 21         0.00329
       5 -> 25         0.00100
       5 -> 26         0.00141
       5 -> 30         0.00242
       5 -> 34         0.00013
       5 -> 38        -0.00072
       5 -> 39         0.00019
       5 -> 41         0.00029
       5 -> 44         0.00045
       5 -> 45        -0.00058
       5 -> 48         0.00034
       6 -> 27         0.00086
       6 -> 46         0.00084
       7 -> 12         0.00207
       7 -> 16         0.00188
       7 -> 18         0.00419
       7 -> 23        -0.00243
       7 -> 24         0.00225
       7 -> 35        -0.00012
       7 -> 42        -0.00038
       7 -> 47         0.00037
       7 -> 50         0.00051
       8 -> 10         0.70614
       8 -> 11        -0.02338
       8 -> 14        -0.01354
       8 -> 15         0.01139
       8 -> 19         0.01966
       8 -> 20         0.00869
       8 -> 21        -0.00710
       8 -> 25         0.00078
       8 -> 26         0.00072
       8 -> 30         0.00015
       8 -> 32         0.00251
       8 -> 34         0.00169
       8 -> 38         0.00074
       8 -> 39        -0.00058
       8 -> 41        -0.00027
       8 -> 44        -0.00056
       8 -> 45        -0.00102
       8 -> 48         0.00028
       8 -> 54        -0.00015
       3 <- 12         0.00030
       3 <- 16        -0.00019
       3 <- 18         0.00061
       3 <- 23        -0.00016
       3 <- 24         0.00085
       3 <- 29        -0.00015
       3 <- 35        -0.00014
       4 <- 12         0.00013
       4 <- 16         0.00033
       4 <- 18         0.00271
       4 <- 23        -0.00170
       4 <- 24         0.00303
       4 <- 29        -0.00032
       4 <- 33        -0.00071
       4 <- 35         0.00066
       4 <- 40        -0.00023
       4 <- 42         0.00016
       5 <- 10         0.00222
       5 <- 14         0.00445
       5 <- 15         0.00160
       5 <- 19         0.00093
       5 <- 20        -0.00020
       5 <- 21         0.00193
       5 <- 25         0.00167
       5 <- 26         0.00129
       5 <- 30         0.00088
       5 <- 32        -0.00041
       5 <- 38        -0.00050
       5 <- 39         0.00016
       5 <- 41         0.00035
       5 <- 44         0.00030
       5 <- 45        -0.00050
       5 <- 48         0.00030
       6 <- 27         0.00067
       6 <- 46         0.00071
       7 <- 12         0.00058
       7 <- 16         0.00147
       7 <- 18         0.00164
       7 <- 23        -0.00096
       7 <- 24         0.00100
       7 <- 29         0.00061
       7 <- 33        -0.00012
       7 <- 35         0.00011
       7 <- 42        -0.00034
       7 <- 47         0.00033
       7 <- 50         0.00055
       8 <- 10        -0.00391
       8 <- 11        -0.00162
       8 <- 14        -0.01165
       8 <- 15        -0.00140
       8 <- 19        -0.00088
       8 <- 20        -0.00032
       8 <- 21        -0.00395
       8 <- 25        -0.00307
       8 <- 26         0.00058
       8 <- 30        -0.00055
       8 <- 32         0.00119
       8 <- 34         0.00159
       8 <- 38         0.00076
       8 <- 39        -0.00047
       8 <- 41        -0.00014
       8 <- 44        -0.00049
       8 <- 45        -0.00071
       8 <- 48         0.00027

 Excited State   3:      Singlet-B2     6.8901 eV  179.95 nm  f=0.0210  <S**2>=0.000
       3 -> 12        -0.00013
       3 -> 16         0.00070
       3 -> 18         0.00011
       3 -> 23         0.00018
       3 -> 24         0.00041
       3 -> 29         0.00109
       3 -> 33         0.00014
       3 -> 35        -0.00030
       3 -> 42        -0.00032
       3 -> 47         0.00020
       3 -> 50         0.00023
       4 -> 12         0.00296
       4 -> 16         0.00354
       4 -> 18         0.00253
       4 -> 23        -0.00151
       4 -> 24         0.00360
       4 -> 29        -0.00112
       4 -> 33         0.00056
       4 -> 35        -0.00022
       4 -> 40        -0.00023
       4 -> 47         0.00015
       4 -> 50         0.00014
       5 -> 10        -0.00582
       5 -> 11         0.00015
       5 -> 14         0.00359
       5 -> 15         0.00517
       5 -> 19        -0.00361
       5 -> 20        -0.00121
       5 -> 21         0.00128
       5 -> 25         0.00108
       5 -> 26        -0.00125
       5 -> 30         0.00080
       5 -> 32        -0.00203
       5 -> 34        -0.00062
       5 -> 39        -0.00068
       5 -> 41        -0.00079
       5 -> 44         0.00011
       5 -> 45         0.00062
       5 -> 48        -0.00045
       5 -> 51        -0.00024
       6 -> 27        -0.00078
       6 -> 36        -0.00131
       6 -> 46        -0.00116
       7 -> 12        -0.00302
       7 -> 16         0.00061
       7 -> 18        -0.00237
       7 -> 23         0.00138
       7 -> 24        -0.00021
       7 -> 33        -0.00029
       7 -> 35         0.00128
       7 -> 40        -0.00034
       7 -> 42         0.00071
       7 -> 47        -0.00067
       7 -> 50        -0.00063
       7 -> 53         0.00015
       8 -> 10         0.02390
       8 -> 11         0.70570
       8 -> 14        -0.01587
       8 -> 15        -0.02203
       8 -> 19        -0.01927
       8 -> 20         0.01445
       8 -> 21        -0.00249
       8 -> 25         0.00032
       8 -> 26        -0.00014
       8 -> 30        -0.00168
       8 -> 32         0.00021
       8 -> 34         0.00042
       8 -> 38        -0.00013
       8 -> 39        -0.00049
       8 -> 41        -0.00138
       8 -> 45         0.00075
       8 -> 48        -0.00071
       8 -> 51        -0.00020
       8 -> 54         0.00017
       3 <- 12         0.00026
       3 <- 16         0.00056
       3 <- 18         0.00041
       3 <- 24         0.00047
       3 <- 29         0.00071
       3 <- 33         0.00018
       3 <- 35        -0.00034
       3 <- 42        -0.00027
       3 <- 47         0.00016
       3 <- 50         0.00013
       3 <- 53        -0.00022
       4 <- 12         0.00031
       4 <- 16         0.00038
       4 <- 18         0.00121
       4 <- 23        -0.00127
       4 <- 24         0.00165
       4 <- 29        -0.00047
       4 <- 33         0.00055
       4 <- 35         0.00012
       4 <- 40        -0.00022
       4 <- 42        -0.00011
       4 <- 50         0.00022
       5 <- 10         0.00136
       5 <- 11        -0.00040
       5 <- 14         0.00191
       5 <- 15         0.00053
       5 <- 19         0.00064
       5 <- 20         0.00019
       5 <- 21         0.00101
       5 <- 25         0.00095
       5 <- 26        -0.00091
       5 <- 30         0.00081
       5 <- 32        -0.00062
       5 <- 34        -0.00112
       5 <- 38         0.00011
       5 <- 39        -0.00046
       5 <- 41        -0.00080
       5 <- 44         0.00014
       5 <- 45         0.00063
       5 <- 48        -0.00031
       5 <- 51        -0.00023
       6 <- 27        -0.00033
       6 <- 36        -0.00107
       6 <- 46        -0.00100
       7 <- 12        -0.00036
       7 <- 16        -0.00024
       7 <- 18        -0.00028
       7 <- 23         0.00028
       7 <- 29        -0.00024
       7 <- 35         0.00091
       7 <- 40        -0.00027
       7 <- 42         0.00050
       7 <- 47        -0.00058
       7 <- 50        -0.00057
       8 <- 10        -0.00154
       8 <- 11         0.00112
       8 <- 14        -0.00589
       8 <- 15        -0.00119
       8 <- 19         0.00217
       8 <- 20        -0.00181
       8 <- 21        -0.00251
       8 <- 25        -0.00030
       8 <- 26        -0.00102
       8 <- 30        -0.00104
       8 <- 32         0.00112
       8 <- 34        -0.00011
       8 <- 38        -0.00029
       8 <- 39        -0.00026
       8 <- 41        -0.00116
       8 <- 45         0.00064
       8 <- 48        -0.00046
       8 <- 51        -0.00020

 Excited State   4:      Singlet-A1     7.0280 eV  176.41 nm  f=0.0469  <S**2>=0.000
       3 -> 10         0.00138
       3 -> 11        -0.00089
       3 -> 14         0.00021
       3 -> 15         0.00054
       3 -> 19         0.00126
       3 -> 20         0.00050
       3 -> 21        -0.00015
       3 -> 25         0.00016
       3 -> 26         0.00017
       3 -> 30         0.00111
       3 -> 32        -0.00028
       3 -> 34        -0.00020
       3 -> 38        -0.00035
       3 -> 39        -0.00022
       3 -> 41        -0.00016
       3 -> 48        -0.00015
       3 -> 51        -0.00031
       3 -> 54         0.00021
       4 -> 10         0.00556
       4 -> 11         0.00994
       4 -> 14         0.00625
       4 -> 15         0.00140
       4 -> 19         0.00085
       4 -> 20         0.00647
       4 -> 21         0.00239
       4 -> 25         0.00694
       4 -> 26         0.00081
       4 -> 30        -0.00070
       4 -> 32        -0.00053
       4 -> 34        -0.00096
       4 -> 38        -0.00019
       4 -> 39         0.00071
       4 -> 41         0.00019
       4 -> 45        -0.00033
       4 -> 48        -0.00026
       5 -> 12         0.00768
       5 -> 16         0.00645
       5 -> 18         0.00905
       5 -> 23         0.00027
       5 -> 24         0.00442
       5 -> 29         0.00054
       5 -> 33        -0.00016
       5 -> 35         0.00092
       5 -> 42        -0.00021
       5 -> 50        -0.00036
       5 -> 53        -0.00015
       6 ->  9         0.00851
       6 -> 13         0.00432
       6 -> 17         0.00517
       6 -> 22         0.00439
       6 -> 28         0.00052
       6 -> 31         0.00087
       6 -> 37         0.00053
       6 -> 43         0.00055
       6 -> 49        -0.00037
       7 -> 10         0.01328
       7 -> 11        -0.00497
       7 -> 14         0.00330
       7 -> 15        -0.00125
       7 -> 19         0.00722
       7 -> 20         0.00353
       7 -> 21         0.00134
       7 -> 25         0.00209
       7 -> 26         0.00031
       7 -> 32         0.00059
       7 -> 34        -0.00090
       7 -> 39         0.00021
       7 -> 48        -0.00019
       7 -> 51         0.00049
       8 -> 12         0.70554
       8 -> 16         0.03923
       8 -> 18         0.00867
       8 -> 23         0.00427
       8 -> 24         0.00145
       8 -> 29         0.00287
       8 -> 33         0.00152
       8 -> 35        -0.00243
       8 -> 42         0.00131
       8 -> 47        -0.00041
       8 -> 50        -0.00016
       8 -> 53        -0.00014
       3 <- 10         0.00057
       3 <- 11        -0.00031
       3 <- 14         0.00015
       3 <- 15         0.00024
       3 <- 19         0.00067
       3 <- 20         0.00021
       3 <- 25         0.00027
       3 <- 30         0.00066
       3 <- 32        -0.00022
       3 <- 34        -0.00013
       3 <- 38        -0.00027
       3 <- 39        -0.00019
       3 <- 41        -0.00015
       3 <- 48        -0.00017
       3 <- 51        -0.00027
       3 <- 54         0.00019
       4 <- 10         0.00558
       4 <- 11         0.00334
       4 <- 14         0.00463
       4 <- 15         0.00151
       4 <- 19         0.00065
       4 <- 20         0.00365
       4 <- 21         0.00086
       4 <- 25         0.00414
       4 <- 26         0.00036
       4 <- 32        -0.00080
       4 <- 34        -0.00090
       4 <- 38        -0.00028
       4 <- 39         0.00062
       4 <- 45        -0.00030
       4 <- 48        -0.00021
       5 <- 12         0.00269
       5 <- 16         0.00144
       5 <- 18         0.00405
       5 <- 23         0.00051
       5 <- 24         0.00239
       5 <- 29         0.00015
       5 <- 33        -0.00030
       5 <- 35         0.00081
       5 <- 42        -0.00018
       5 <- 50        -0.00028
       5 <- 53        -0.00013
       6 <-  9         0.00263
       6 <- 13         0.00161
       6 <- 17         0.00222
       6 <- 22         0.00254
       6 <- 28         0.00029
       6 <- 31         0.00066
       6 <- 37         0.00043
       6 <- 43         0.00046
       6 <- 49        -0.00032
       7 <- 10         0.00437
       7 <- 11        -0.00105
       7 <- 14         0.00155
       7 <- 15        -0.00042
       7 <- 19         0.00298
       7 <- 20         0.00198
       7 <- 21         0.00049
       7 <- 25         0.00122
       7 <- 26         0.00036
       7 <- 30         0.00015
       7 <- 32         0.00032
       7 <- 34        -0.00065
       7 <- 39         0.00028
       7 <- 41         0.00012
       7 <- 51         0.00045
       8 <- 12        -0.00313
       8 <- 16         0.00704
       8 <- 18        -0.00864
       8 <- 23        -0.00024
       8 <- 24        -0.00229
       8 <- 29         0.00128
       8 <- 33         0.00108
       8 <- 35        -0.00165
       8 <- 42         0.00107
       8 <- 47        -0.00048
       8 <- 50        -0.00014
       8 <- 53        -0.00016

 Excited State   5:      Singlet-A2     7.6731 eV  161.58 nm  f=0.0000  <S**2>=0.000
       3 -> 27        -0.00140
       3 -> 36        -0.00118
       3 -> 46        -0.00062
       4 -> 27        -0.00052
       4 -> 36         0.00069
       4 -> 46         0.00021
       5 ->  9        -0.00939
       5 -> 13         0.00573
       5 -> 17         0.00337
       5 -> 22         0.00053
       5 -> 28        -0.00015
       5 -> 31        -0.00216
       5 -> 37        -0.00213
       5 -> 43        -0.00031
       5 -> 52        -0.00033
       6 -> 12        -0.00032
       6 -> 16         0.00208
       6 -> 18         0.00078
       6 -> 23        -0.00111
       6 -> 24        -0.00025
       6 -> 29         0.00033
       6 -> 35        -0.00031
       6 -> 42        -0.00029
       6 -> 47        -0.00028
       6 -> 53        -0.00015
       7 -> 36         0.00025
       7 -> 46        -0.00066
       8 ->  9         0.12040
       8 -> 13         0.69635
       8 -> 17         0.00064
       8 -> 22         0.02219
       8 -> 28        -0.00134
       8 -> 31        -0.00139
       8 -> 37         0.00068
       8 -> 43         0.00013
       8 -> 49         0.00017
       8 -> 52        -0.00039
       3 <- 27        -0.00079
       3 <- 36        -0.00095
       3 <- 46        -0.00072
       4 <- 27        -0.00106
       4 <- 46         0.00024
       5 <-  9        -0.00029
       5 <- 17         0.00059
       5 <- 22        -0.00012
       5 <- 31         0.00018
       5 <- 37        -0.00064
       5 <- 43        -0.00017
       5 <- 52        -0.00011
       6 <- 12        -0.00053
       6 <- 16         0.00050
       6 <- 18         0.00064
       6 <- 23        -0.00223
       6 <- 24         0.00017
       6 <- 33         0.00065
       6 <- 35        -0.00118
       6 <- 40         0.00011
       6 <- 42        -0.00064
       6 <- 47        -0.00011
       6 <- 53        -0.00032
       7 <- 27        -0.00033
       7 <- 36         0.00026
       7 <- 46        -0.00031
       8 <-  9         0.00596
       8 <- 17         0.00060
       8 <- 22        -0.00048
       8 <- 28         0.00020
       8 <- 31        -0.00075
       8 <- 37         0.00075
       8 <- 52        -0.00016

 Excited State   6:      Singlet-B2    10.0420 eV  123.47 nm  f=0.2739  <S**2>=0.000
       3 -> 12        -0.00042
       3 -> 16         0.00173

 The electronic state is 1-A1.
 Alpha  occ. eigenvalues --  -19.13792 -10.23878  -1.24288  -0.60270  -0.58724
 Alpha  occ. eigenvalues --   -0.53338  -0.51079  -0.24944
 Alpha virt. eigenvalues --    0.00692   0.01379   0.04344   0.04407   0.08232
 Alpha virt. eigenvalues --    0.14065   0.17850   0.20448   0.21928   0.22790
 Alpha virt. eigenvalues --    0.26461   0.36183   0.49861   0.52147   0.52520

 Mulliken charges:
               1
     1  C    0.169095
     2  H    0.020403
     3  H    0.020403
     4  O   -0.209900
 Sum of Mulliken charges =  -0.00000

 Dipole moment (field-independent basis, Debye):
    X=              0.0000    Y=             -0.0000    Z=             -0.8685  Tot=              0.8685
 Quadrupole moment (field-independent basis, Debye-Ang):
   XX=            -10.9213   YY=            -12.1834   ZZ=            -13.1093
   XY=             -0.0000   XZ=             -0.0000   YZ=             -0.0000

 Normal termination of Gaussian 16 at Fri Sep 17 10:52:33 2021.
