 Gaussian 16, Revision A.03,
 Gaussian 16:  ES64L-G16RevA.03 25-Dec-2016

 --------------------------------------------------------------------
 #p B3LYP/6-311+G** #p TD=(singlets,nstates=30)IOp(6/8=3) IOp(9/40=4)
 --------------------------------------------------------------------

 --------------------------------
 Scan Step 219, Bond Length 1.595
 --------------------------------
 Symbolic Z-matrix:
 Charge =  0 Multiplicity = 1

                         Standard orientation:
 ---------------------------------------------------------------------
 Center     Atomic      Atomic             Coordinates (Angstroms)
 Number     Number       Type             X           Y           Z
 ---------------------------------------------------------------------
      1          6           0        0.000000    0.000000   -0.723581
      2          1           0        0.000000    0.937260   -1.314931
      3          1           0       -0.000000   -0.937260   -1.314931
      4          8           0        0.000000   -0.000000    0.871419
 ---------------------------------------------------------------------

 SCF Done:  E(RB3LYP) =  -114.429707044     A.U. after   10 cycles

 Excitation energies and oscillator strengths:

 Excited State   1:      Singlet-A2     2.0021 eV  619.27 nm  f=0.0000  <S**2>=0.000
       3 -> 27         0.00120
       3 -> 38         0.00089
       3 -> 46         0.00329
       4 -> 27         0.00071
       4 -> 38        -0.00013
       4 -> 46        -0.00130
       5 ->  9         0.00757
       5 -> 13         0.00092
       5 -> 18         0.00291
       5 -> 23         0.00161
       5 -> 28         0.00254
       5 -> 31        -0.00018
       5 -> 37         0.00140
       5 -> 44         0.00033
       5 -> 52         0.00034
       6 -> 27        -0.00063
       6 -> 38        -0.00077
       6 -> 46         0.00134
       7 -> 12        -0.00090
       7 -> 16         0.00473
       7 -> 19        -0.00403
       7 -> 22        -0.00077
       7 -> 25         0.00095
       7 -> 30        -0.00153
       7 -> 33         0.00037
       7 -> 49         0.00013
       7 -> 50         0.00016
       7 -> 53         0.00045
       8 ->  9         0.70850
       8 -> 13        -0.01340
       8 -> 18         0.02164
       8 -> 23        -0.00349
       8 -> 28         0.01104
       8 -> 31         0.00104
       8 -> 37         0.00063
       8 -> 48        -0.00031
       8 -> 52         0.00194
       3 <- 27         0.00055
       3 <- 38         0.00061
       3 <- 46         0.00334
       4 <- 27         0.00123
       4 <- 38         0.00023
       4 <- 46        -0.00105
       5 <-  9        -0.00025
       5 <- 13        -0.00052
       5 <- 18        -0.00068
       5 <- 23         0.00027
       5 <- 28        -0.00048
       5 <- 31         0.00035
       5 <- 37         0.00078
       5 <- 44         0.00011
       6 <- 38        -0.00063
       6 <- 46         0.00103
       7 <- 12         0.00063
       7 <- 16        -0.01003
       7 <- 19         0.00371
       7 <- 22         0.00692
       7 <- 25         0.00053
       7 <- 30         0.00525
       7 <- 33        -0.00053
       7 <- 36         0.00084
       7 <- 40         0.00050
       7 <- 42         0.00014
       7 <- 49        -0.00039
       7 <- 53         0.00146
       8 <-  9        -0.05129
       8 <- 13         0.00049
       8 <- 18        -0.00657
       8 <- 23         0.00017
       8 <- 28        -0.00236
       8 <- 31        -0.00063
       8 <- 37        -0.00047
       8 <- 52         0.00051
 This state for optimization and/or second-order correction.
 Total Energy, E(TD-HF/TD-DFT) =  -114.356131504
 Copying the excited state density for this state as the 1-particle RhoCI density.

 Excited State   2:      Singlet-A1     5.1392 eV  241.25 nm  f=0.0769  <S**2>=0.000
       3 -> 10        -0.01516
       3 -> 11        -0.01427
       3 -> 14         0.01165
       3 -> 15         0.00706
       3 -> 17        -0.00353
       3 -> 20        -0.00387
       3 -> 21        -0.00126
       3 -> 24         0.00257
       3 -> 26         0.00408
       3 -> 29        -0.00113
       3 -> 32         0.00277
       3 -> 34         0.00255
       3 -> 35        -0.00096
       3 -> 39         0.00084
       3 -> 43         0.00044
       3 -> 47         0.00225
       3 -> 51         0.00101
       3 -> 54         0.00019
       4 -> 10        -0.01260
       4 -> 11         0.01222
       4 -> 14         0.00628
       4 -> 15        -0.00976
       4 -> 17         0.00314
       4 -> 20         0.00543
       4 -> 21         0.00041
       4 -> 24        -0.00513
       4 -> 26         0.00511
       4 -> 29         0.00111
       4 -> 32        -0.00132
       4 -> 34        -0.00179
       4 -> 35         0.00038
       4 -> 41         0.00013
       4 -> 43        -0.00044
       4 -> 45        -0.00077
       4 -> 47        -0.00127
       4 -> 51        -0.00032
       5 -> 12         0.01767
       5 -> 16         0.01158
       5 -> 19         0.00150
       5 -> 22         0.00732
       5 -> 25         0.00844
       5 -> 30        -0.00033
       5 -> 33        -0.00309
       5 -> 36         0.00274
       5 -> 40         0.00150
       5 -> 42         0.00064
       5 -> 49         0.00047
       5 -> 50        -0.00067
       5 -> 53        -0.00014
       6 -> 10         0.13443
       6 -> 11         0.10948
       6 -> 14        -0.09624
       6 -> 15        -0.07082
       6 -> 17        -0.02018
       6 -> 20        -0.01183
       6 -> 21         0.01421
       6 -> 24        -0.01444
       6 -> 26        -0.00703
       6 -> 29        -0.00813
       6 -> 32         0.00075
       6 -> 34         0.00149
       6 -> 35        -0.00080
       6 -> 39         0.00082
       6 -> 41        -0.00043
       6 -> 43         0.00080
       6 -> 45         0.00078
       6 -> 47         0.00129
       6 -> 51         0.00083
       6 -> 54        -0.00065
       7 ->  9         0.68432
       7 -> 13         0.00139
       7 -> 18        -0.01878
       7 -> 23         0.00029
       7 -> 28        -0.00154
       7 -> 31        -0.00298
       7 -> 37         0.00086
       7 -> 44        -0.00106
       7 -> 48         0.00042
       7 -> 52         0.00105
       8 -> 12        -0.00716
       8 -> 16         0.07169
       8 -> 19        -0.02446
       8 -> 22        -0.02734
       8 -> 25         0.00070
       8 -> 30        -0.01222
       8 -> 33         0.00236
       8 -> 36        -0.00286
       8 -> 40        -0.00137
       8 -> 42        -0.00035
       8 -> 49         0.00059
       8 -> 50         0.00024
       8 -> 53        -0.00072
       3 <- 10        -0.01010
       3 <- 11        -0.00999
       3 <- 14         0.00859
       3 <- 15         0.00473
       3 <- 17        -0.00181
       3 <- 20        -0.00277
       3 <- 21        -0.00154
       3 <- 24         0.00161
       3 <- 26         0.00244
       3 <- 29        -0.00068
       3 <- 32         0.00254
       3 <- 34         0.00165
       3 <- 35        -0.00083
       3 <- 39         0.00074
       3 <- 43         0.00053
       3 <- 45         0.00019
       3 <- 47         0.00237
       3 <- 51         0.00098
       3 <- 54         0.00029
       4 <- 10        -0.00622
       4 <- 11         0.00764
       4 <- 14         0.00316
       4 <- 15        -0.00579
       4 <- 17         0.00157
       4 <- 20         0.00450
       4 <- 21         0.00030
       4 <- 24        -0.00348
       4 <- 26         0.00401
       4 <- 29         0.00029
       4 <- 32        -0.00163
       4 <- 34        -0.00157
       4 <- 35         0.00060
       4 <- 39        -0.00016
       4 <- 43        -0.00043
       4 <- 45        -0.00089
       4 <- 47        -0.00087
       4 <- 51        -0.00016
       5 <- 12         0.00781
       5 <- 16         0.00586
       5 <- 19         0.00103
       5 <- 22         0.00450
       5 <- 25         0.00570
       5 <- 33        -0.00239
       5 <- 36         0.00222
       5 <- 40         0.00130
       5 <- 42         0.00052
       5 <- 49         0.00042
       5 <- 50        -0.00061
       5 <- 53        -0.00013
       6 <- 10         0.03931
       6 <- 11         0.03425
       6 <- 14        -0.03727
       6 <- 15        -0.02984
       6 <- 17        -0.00967
       6 <- 20        -0.00732
       6 <- 21         0.00818
       6 <- 24        -0.00873
       6 <- 26        -0.00412
       6 <- 29        -0.00554
       6 <- 32         0.00121
       6 <- 34         0.00182
       6 <- 35        -0.00092
       6 <- 39         0.00089
       6 <- 41        -0.00030
       6 <- 43         0.00069
       6 <- 45         0.00072
       6 <- 47         0.00082
       6 <- 51         0.00065
       6 <- 54        -0.00055
       7 <-  9        -0.12351
       7 <- 13         0.00764
       7 <- 18        -0.01393
       7 <- 23         0.00365
       7 <- 28        -0.00397
       7 <- 31        -0.00136
       7 <- 37         0.00029
       7 <- 44        -0.00062
       7 <- 48        -0.00016
       7 <- 52         0.00091
       8 <- 12        -0.00161
       8 <- 16         0.02483
       8 <- 19        -0.01032
       8 <- 22        -0.01466
       8 <- 25         0.00017
       8 <- 30        -0.00877
       8 <- 33         0.00175
       8 <- 36        -0.00218
       8 <- 40        -0.00110
       8 <- 42        -0.00028
       8 <- 49         0.00040
       8 <- 50         0.00019
       8 <- 53        -0.00065

 Excited State   3:      Singlet-B1     5.4454 eV  227.69 nm  f=0.0014  <S**2>=0.000
       3 ->  9        -0.02908
       3 -> 13         0.00178
       3 -> 18        -0.00474
       3 -> 23         0.00183
       3 -> 28        -0.00098
       3 -> 31        -0.00048
       3 -> 44         0.00024
       3 -> 48         0.00095
       3 -> 52         0.00097
       4 ->  9         0.01370
       4 -> 13        -0.00268
       4 -> 18         0.00028
       4 -> 23        -0.00243
       4 -> 28         0.00023
       4 -> 31        -0.00156
       4 -> 37        -0.00041
       4 -> 44         0.00013
       4 -> 48        -0.00112
       4 -> 52        -0.00060
       5 -> 27        -0.00016
       5 -> 38         0.00201
       5 -> 46         0.00096
       6 ->  9         0.70531
       6 -> 13        -0.02041
       6 -> 18         0.01697
       6 -> 23        -0.01102
       6 -> 28         0.00435
       6 -> 31         0.00332
       6 -> 37        -0.00220
       6 -> 44        -0.00288
       6 -> 48         0.00419
       6 -> 52         0.00147
       7 -> 10         0.03420
       7 -> 11         0.02479
       7 -> 14        -0.01675
       7 -> 15        -0.00727
       7 -> 17        -0.00922
       7 -> 20         0.00288
       7 -> 24        -0.00053
       7 -> 26        -0.00146
       7 -> 29        -0.00394
       7 -> 32        -0.00065
       7 -> 34         0.00068
       7 -> 35         0.00181
       7 -> 39         0.00014
       7 -> 41        -0.00059
       7 -> 43         0.00056
       7 -> 45        -0.00053
       7 -> 47         0.00427
       7 -> 51         0.00118
       7 -> 54         0.00042
       8 -> 27         0.00055
       8 -> 38         0.00012
       8 -> 46         0.00539
       3 <-  9        -0.00973
       3 <- 13        -0.00060
       3 <- 18        -0.00293
       3 <- 23        -0.00054
       3 <- 28        -0.00063
       3 <- 31        -0.00066
       3 <- 44        -0.00026
       3 <- 48         0.00113
       3 <- 52         0.00078
       4 <-  9         0.00673
       4 <- 13        -0.00025
       4 <- 18         0.00197
       4 <- 23        -0.00059
       4 <- 28         0.00167
       4 <- 31        -0.00105
       4 <- 37        -0.00021
       4 <- 48        -0.00097
       4 <- 52        -0.00034
       5 <- 27        -0.00070
       5 <- 38         0.00163
       5 <- 46         0.00085
       6 <-  9        -0.02511
       6 <- 13         0.00171
       6 <- 18        -0.00325
       6 <- 23        -0.00028
       6 <- 28        -0.00335
       6 <- 31         0.00128
       6 <- 37        -0.00192
       6 <- 44        -0.00157
       6 <- 48         0.00375
       6 <- 52         0.00050
       7 <- 10        -0.01467
       7 <- 11        -0.01263
       7 <- 14         0.01443
       7 <- 15         0.01315
       7 <- 17         0.00141
       7 <- 20         0.00507
       7 <- 21        -0.00441
       7 <- 24         0.00452
       7 <- 26         0.00178
       7 <- 29         0.00107
       7 <- 32        -0.00020
       7 <- 34         0.00059
       7 <- 35         0.00273
       7 <- 39         0.00044
       7 <- 41        -0.00023
       7 <- 43         0.00042
       7 <- 45        -0.00065
       7 <- 47         0.00390
       7 <- 51         0.00104
       7 <- 54         0.00107
       8 <- 27         0.00101
       8 <- 38         0.00030
       8 <- 46         0.00501

 Excited State   4:      Singlet-B2     6.1295 eV  202.27 nm  f=0.0146  <S**2>=0.000
       3 -> 12        -0.00157
       3 -> 16         0.00193
       3 -> 19        -0.00446
       3 -> 22         0.00046
       3 -> 25         0.00034
       3 -> 30        -0.00334
       3 -> 33        -0.00029
       3 -> 36         0.00215
       3 -> 40         0.00175
       3 -> 42         0.00021
       3 -> 49        -0.00259
       3 -> 50         0.00022
       3 -> 53         0.00029
       4 -> 12         0.00044
       4 -> 16        -0.00276
       4 -> 22         0.00319
       4 -> 25        -0.00208
       4 -> 30         0.00145
       4 -> 33        -0.00048
       4 -> 36         0.00053
       4 -> 40        -0.00050
       4 -> 49         0.00040
       4 -> 50        -0.00011
       5 -> 10         0.00574
       5 -> 11         0.00588
       5 -> 14        -0.01287
       5 -> 15         0.00304
       5 -> 17         0.00081
       5 -> 20         0.00204
       5 -> 21         0.00633
       5 -> 24         0.00189
       5 -> 26        -0.00188
       5 -> 29        -0.00200
       5 -> 32        -0.00148
       5 -> 34        -0.00127
       5 -> 35        -0.00052
       5 -> 39        -0.00100
       5 -> 41         0.00076
       5 -> 45         0.00020
       5 -> 47        -0.00084
       5 -> 51         0.00050
       5 -> 54        -0.00024
       6 -> 12         0.00331
       6 -> 16        -0.00160
       6 -> 19         0.00290
       6 -> 25        -0.00080
       6 -> 30        -0.00055
       6 -> 33         0.00036
       6 -> 36        -0.00217
       6 -> 40        -0.00174
       6 -> 42        -0.00036
       6 -> 49         0.00159
       6 -> 53        -0.00034
       7 -> 27        -0.00065
       7 -> 38         0.00089
       7 -> 46         0.00363
       8 -> 10         0.63162
       8 -> 11         0.28474
       8 -> 14        -0.12399
       8 -> 15        -0.06662
       8 -> 17        -0.01275
       8 -> 20        -0.00199
       8 -> 21         0.00653
       8 -> 24        -0.00641
       8 -> 26        -0.00561
       8 -> 29        -0.00966
       8 -> 32        -0.00279
       8 -> 34        -0.00183
       8 -> 35        -0.00048
       8 -> 39        -0.00060
       8 -> 41         0.00029
       8 -> 43        -0.00047
       8 -> 45         0.00189
       8 -> 47        -0.00421
       8 -> 51         0.00219
       8 -> 54        -0.00156
       3 <- 12        -0.00056
       3 <- 16         0.00050
       3 <- 19        -0.00210
       3 <- 22         0.00088
       3 <- 25         0.00035
       3 <- 30        -0.00133
       3 <- 33        -0.00025
       3 <- 36         0.00168
       3 <- 40         0.00156
       3 <- 42         0.00019
       3 <- 49        -0.00267
       3 <- 50         0.00019
       3 <- 53         0.00082
       4 <- 12        -0.00024
       4 <- 16        -0.00238
       4 <- 19        -0.00026
       4 <- 22         0.00278
       4 <- 25        -0.00128
       4 <- 30         0.00125
       4 <- 33        -0.00055
       4 <- 36         0.00074
       4 <- 40        -0.00016
       4 <- 42         0.00012
       4 <- 49         0.00030
       5 <- 10         0.00050
       5 <- 11        -0.00160
       5 <- 14        -0.00194
       5 <- 15         0.00388
       5 <- 17         0.00023
       5 <- 20         0.00051
       5 <- 21         0.00212
       5 <- 24         0.00263
       5 <- 26        -0.00059
       5 <- 29        -0.00051
       5 <- 32         0.00010
       5 <- 34        -0.00033
       5 <- 39        -0.00034
       5 <- 41         0.00076
       5 <- 43         0.00012
       5 <- 45         0.00050
       5 <- 47        -0.00068
       5 <- 51         0.00027
       6 <- 16         0.00521
       6 <- 19        -0.00234
       6 <- 22        -0.00377
       6 <- 25        -0.00047
       6 <- 30        -0.00450
       6 <- 33         0.00064
       6 <- 36        -0.00216
       6 <- 40        -0.00173
       6 <- 42        -0.00042
       6 <- 49         0.00170
       6 <- 53        -0.00100
       7 <- 27        -0.00064
       7 <- 38         0.00069
       7 <- 46         0.00299
       8 <- 10        -0.01308
       8 <- 11        -0.01187
       8 <- 14         0.01153
       8 <- 15         0.00503
       8 <- 17         0.00031
       8 <- 20        -0.00234
       8 <- 21        -0.00235
       8 <- 24         0.00124
       8 <- 26         0.00202
       8 <- 29        -0.00084
       8 <- 32         0.00226
       8 <- 34         0.00141
       8 <- 35        -0.00018
       8 <- 39         0.00145
       8 <- 41         0.00058
       8 <- 43         0.00026
       8 <- 45         0.00246
       8 <- 47        -0.00307
       8 <- 51         0.00132
       8 <- 54        -0.00038

 Excited State   5:      Singlet-B2     7.0486 eV  175.90 nm  f=0.0021  <S**2>=0.000
       3 -> 12         0.00148
       3 -> 16         0.00146
       3 -> 19        -0.00081
       3 -> 22        -0.00036
       3 -> 25         0.00094
       3 -> 30        -0.00229
       3 -> 33         0.00011
       3 -> 36         0.00045
       3 -> 40         0.00043
       3 -> 49        -0.00066
       4 -> 12        -0.00127
       4 -> 16         0.00067
       4 -> 19         0.00095
       4 -> 22        -0.00095
       4 -> 25         0.00073
       4 -> 30         0.00120
       4 -> 33        -0.00014
       4 -> 36         0.00032
       4 -> 50        -0.00011
       5 -> 10         0.00717
       5 -> 11        -0.00347
       5 -> 14         0.00266
       5 -> 15         0.00539
       5 -> 17         0.00086
       5 -> 20         0.00167
       5 -> 24        -0.00040
       5 -> 26        -0.00031
       5 -> 29        -0.00041
       5 -> 32        -0.00148
       5 -> 34         0.00034
       5 -> 35        -0.00034
       5 -> 39        -0.00055
       5 -> 41        -0.00016
       5 -> 43        -0.00031
       5 -> 45         0.00030
       5 -> 47        -0.00036
       5 -> 51         0.00025
       6 -> 12        -0.00173
       6 -> 16        -0.00037
       6 -> 19         0.00031
       6 -> 22        -0.00093
       6 -> 25         0.00014
       6 -> 30        -0.00076
       6 -> 40        -0.00053
       6 -> 42        -0.00019
       6 -> 49         0.00119
       6 -> 50        -0.00010
       7 -> 27        -0.00061
       7 -> 38        -0.00024
       7 -> 46         0.00166
       8 -> 10        -0.29383
       8 -> 11         0.64197
       8 -> 14        -0.00459
       8 -> 15        -0.03424
       8 -> 17        -0.00524
       8 -> 20         0.01496
       8 -> 21         0.00383
       8 -> 24        -0.00337
       8 -> 26         0.00162
       8 -> 29        -0.00274
       8 -> 32        -0.00053
       8 -> 34        -0.00075
       8 -> 35        -0.00063
       8 -> 39         0.00013
       8 -> 43         0.00025
       8 -> 45         0.00119
       8 -> 47        -0.00189
       8 -> 51         0.00093
       8 -> 54        -0.00032

 The electronic state is 1-A1.
 Alpha  occ. eigenvalues --  -19.17186 -10.32586  -0.93023  -0.69593  -0.48846
 Alpha  occ. eigenvalues --   -0.41663  -0.33155  -0.28970
 Alpha virt. eigenvalues --   -0.14426  -0.01232   0.01301   0.04092   0.06129
 Alpha virt. eigenvalues --    0.09085   0.13098   0.14497   0.18938   0.21416
 Alpha virt. eigenvalues --    0.23962   0.30154   0.39156   0.41194   0.50943

 Mulliken charges:
               1
     1  C   -0.059848
     2  H    0.178530
     3  H    0.178530
     4  O   -0.297211
 Sum of Mulliken charges =   0.00000

 Dipole moment (field-independent basis, Debye):
    X=             -0.0000    Y=             -0.0000    Z=             -3.7430  Tot=              3.7430
 Quadrupole moment (field-independent basis, Debye-Ang):
   XX=            -12.7219   YY=            -11.8838   ZZ=            -11.3282
   XY=              0.0000   XZ=              0.0000   YZ=             -0.0000

 Normal termination of Gaussian 16 at Fri Sep 17 10:53:00 2021.
