 Gaussian 16, Revision C.01,
 Gaussian 16:  ES64L-G16RevC.01  3-Jul-2019

 ---------------------------------------
 #P wB97XD/6-311+G* NoSymm #P Field=X+38
 ---------------------------------------

 -------
 TitleMe
 -------
 Symbolic Z-matrix:
 Charge =  1 Multiplicity = 1

                          Input orientation:
 ---------------------------------------------------------------------
 Center     Atomic      Atomic             Coordinates (Angstroms)
 Number     Number       Type             X           Y           Z
 ---------------------------------------------------------------------
      1          6           0        0.029500    1.339700    0.068200
      2          6           0        1.434800    1.286700    0.006400
      3          6           0        2.111800    0.051100   -0.005400
      4          6           0        1.445100   -1.137200    0.031200
      5          6           0       -0.687900    0.168200    0.110000
      6          1           0       -0.471300    2.298400    0.078100
      7          1           0        2.027300    2.196500   -0.032200
      8          1           0        1.989700   -2.076400    0.023200
      9          1           0       -1.771600    0.180400    0.158200
     10          7           0        3.586400    0.051000   -0.067500
     11          8           0        4.147100   -1.059700   -0.088100
     12          8           0        4.145000    1.163900   -0.090100
     13          6           0       -0.023600   -1.145800    0.083500
     14          1           0       -0.436700   -1.872500    0.788900
     15         35           0       -0.535900   -1.869700   -1.740800
 ---------------------------------------------------------------------

 SCF Done:  E(RwB97XD) =  -3010.53743051     A.U. after   18 cycles

 Alpha  occ. eigenvalues -- -483.31330 -62.86351 -56.66047 -56.65470 -56.65467
 Alpha  occ. eigenvalues --  -19.47619 -19.47545 -14.87070 -10.58405 -10.57942
 Alpha  occ. eigenvalues --  -10.57885 -10.57550 -10.56917 -10.53089  -9.02153
 Alpha  occ. eigenvalues --   -6.84840  -6.82954  -6.82937  -2.94742  -2.94242
 Alpha  occ. eigenvalues --   -2.94227  -2.92719  -2.92719  -1.51375  -1.34374
 Alpha  occ. eigenvalues --   -1.23053  -1.14543  -1.12096  -1.04620  -1.01853
 Alpha  occ. eigenvalues --   -0.95786  -0.91466  -0.86227  -0.81692  -0.81586
 Alpha  occ. eigenvalues --   -0.81285  -0.78591  -0.77614  -0.76231  -0.72617
 Alpha  occ. eigenvalues --   -0.69554  -0.67857  -0.64044  -0.60404  -0.58852
 Alpha  occ. eigenvalues --   -0.58039  -0.57436  -0.56393  -0.55378
 Alpha virt. eigenvalues --   -0.29880  -0.22545  -0.15845  -0.13987  -0.08835
 Alpha virt. eigenvalues --   -0.06298  -0.05850  -0.05108  -0.04822  -0.03473
 Alpha virt. eigenvalues --   -0.02854  -0.02424  -0.01526  -0.00790   0.00325

 Mulliken charges:
               1
     1  C   -0.587298
     2  C    0.531112
     3  C   -0.727501
     4  C    0.269259
     5  C    0.015780
     6  H    0.341815
     7  H    0.359412
     8  H    0.368156
     9  H    0.367640
    10  N   -0.105486
    11  O    0.014031
    12  O    0.010809
    13  C   -0.463847
    14  H    0.410223
    15  Br   0.195895
 Sum of Mulliken charges =   1.00000

 Dipole moment (field-independent basis, Debye):
    X=             -1.9646    Y=             -0.7157    Z=             -0.1132  Tot=              2.0940
 Quadrupole moment (field-independent basis, Debye-Ang):
   XX=            -73.9203   YY=            -51.8708   ZZ=            -62.3440
   XY=              1.4789   XZ=              1.4020   YZ=              1.9251

 Normal termination of Gaussian 16 at Wed May  1 14:45:42 2024.
