 Gaussian 16, Revision A.03,
 Gaussian 16:  ES64L-G16RevA.03 25-Dec-2016

 --------------------------------------------------------------------
 #p B3LYP/6-311+G** #p TD=(singlets,nstates=30)IOp(6/8=3) IOp(9/40=4)
 --------------------------------------------------------------------

 --------------------------------
 Scan Step 119, Bond Length 1.095
 --------------------------------
 Symbolic Z-matrix:
 Charge =  0 Multiplicity = 1

                         Standard orientation:
 ---------------------------------------------------------------------
 Center     Atomic      Atomic             Coordinates (Angstroms)
 Number     Number       Type             X           Y           Z
 ---------------------------------------------------------------------
      1          6           0        0.000000    0.000000   -0.473581
      2          1           0        0.000000    0.937260   -1.064931
      3          1           0       -0.000000   -0.937260   -1.064931
      4          8           0        0.000000   -0.000000    0.621419
 ---------------------------------------------------------------------

 SCF Done:  E(RB3LYP) =  -114.519061889     A.U. after    9 cycles

 Excitation energies and oscillator strengths:

 Excited State   1:      Singlet-A2     4.5886 eV  270.20 nm  f=0.0000  <S**2>=0.000
       3 -> 27         0.00283
       3 -> 38         0.00238
       3 -> 45         0.00207
       4 -> 27         0.00250
       4 -> 38        -0.00069
       4 -> 45        -0.00112
       5 ->  9         0.02032
       5 -> 13        -0.00620
       5 -> 17         0.00610
       5 -> 23        -0.00165
       5 -> 28         0.00402
       5 -> 31         0.00289
       5 -> 36         0.00392
       5 -> 44         0.00068
       5 -> 47         0.00013
       5 -> 52         0.00085
       6 -> 27         0.00029
       6 -> 38        -0.00070
       6 -> 45         0.00170
       7 -> 12        -0.00062
       7 -> 16         0.00211
       7 -> 18        -0.00214
       7 -> 22         0.00129
       7 -> 24         0.00130
       7 -> 30        -0.00078
       7 -> 34         0.00038
       7 -> 35         0.00043
       7 -> 40        -0.00038
       7 -> 48         0.00055
       7 -> 51         0.00023
       7 -> 53         0.00042
       8 ->  9         0.70322
       8 -> 13        -0.06805
       8 -> 17         0.02453
       8 -> 23        -0.01173
       8 -> 28         0.00759
       8 -> 31         0.00336
       8 -> 36        -0.00096
       8 -> 44        -0.00021
       8 -> 47        -0.00020
       8 -> 52         0.00146
       3 <- 27         0.00193
       3 <- 38         0.00201
       3 <- 45         0.00216
       4 <- 27         0.00330
       4 <- 38        -0.00012
       4 <- 45        -0.00099
       5 <- 13        -0.00091
       5 <- 17        -0.00078
       5 <- 23         0.00054
       5 <- 28        -0.00050
       5 <- 31        -0.00106
       5 <- 36         0.00178
       5 <- 44         0.00034
       5 <- 47         0.00017
       5 <- 52         0.00022
       6 <- 27         0.00075
       6 <- 38        -0.00066
       6 <- 45         0.00132
       7 <- 12        -0.00094
       7 <- 16        -0.00582
       7 <- 18        -0.00093
       7 <- 22         0.00679
       7 <- 24        -0.00061
       7 <- 30         0.00263
       7 <- 34        -0.00132
       7 <- 35         0.00254
       7 <- 40        -0.00100
       7 <- 42         0.00034
       7 <- 48         0.00037
       7 <- 53         0.00114
       8 <-  9        -0.01880
       8 <- 13         0.00465
       8 <- 17        -0.00391
       8 <- 23         0.00076
       8 <- 28        -0.00061
       8 <- 31         0.00149
       8 <- 36        -0.00188
       8 <- 52         0.00043
 This state for optimization and/or second-order correction.
 Total Energy, E(TD-HF/TD-DFT) =  -114.350434288
 Copying the excited state density for this state as the 1-particle RhoCI density.

 Excited State   2:      Singlet-B2     6.6481 eV  186.50 nm  f=0.0487  <S**2>=0.000
       3 -> 12         0.00126
       3 -> 16         0.00064
       3 -> 18         0.00111
       3 -> 22        -0.00025
       3 -> 24         0.00130
       3 -> 30        -0.00012
       3 -> 34         0.00011
       3 -> 35        -0.00028
       4 -> 12        -0.00420
       4 -> 16         0.00123
       4 -> 18         0.00232
       4 -> 22        -0.00333
       4 -> 24         0.00374
       4 -> 34        -0.00074
       4 -> 35         0.00079
       4 -> 40        -0.00050
       5 -> 10        -0.00356
       5 -> 11        -0.00929
       5 -> 14         0.00682
       5 -> 15        -0.00119
       5 -> 19         0.00254
       5 -> 20         0.00047
       5 -> 21         0.00488
       5 -> 25         0.00013
       5 -> 26         0.00250
       5 -> 29         0.00201
       5 -> 33        -0.00094
       5 -> 37        -0.00035
       5 -> 39        -0.00030
       5 -> 41        -0.00012
       5 -> 43        -0.00056
       5 -> 46        -0.00050
       5 -> 49         0.00015
       6 -> 12         0.00104
       6 -> 16         0.00117
       6 -> 18         0.00336
       6 -> 22        -0.00271
       6 -> 24         0.00159
       6 -> 30        -0.00036
       6 -> 34        -0.00015
       6 -> 35         0.00012
       6 -> 40         0.00021
       6 -> 42        -0.00027
       6 -> 48         0.00039
       6 -> 51        -0.00048
       7 -> 27         0.00042
       7 -> 38        -0.00033
       7 -> 45         0.00066
       8 -> 10         0.70457
       8 -> 11        -0.05428
       8 -> 14         0.00370
       8 -> 15        -0.00892
       8 -> 19         0.01664
       8 -> 20         0.01111
       8 -> 21        -0.00460
       8 -> 25         0.00069
       8 -> 26         0.00155
       8 -> 29         0.00058
       8 -> 32         0.00030
       8 -> 33         0.00222
       8 -> 37         0.00051
       8 -> 39         0.00050
       8 -> 41        -0.00015
       8 -> 43         0.00068
       8 -> 46        -0.00083
       8 -> 54         0.00017
       3 <- 12         0.00034
       3 <- 16         0.00051
       3 <- 18         0.00047
       3 <- 22        -0.00035
       3 <- 24         0.00083
       3 <- 30        -0.00011
       3 <- 35        -0.00026
       4 <- 12         0.00059
       4 <- 16         0.00160
       4 <- 18         0.00239
       4 <- 22        -0.00203
       4 <- 24         0.00264
       4 <- 34        -0.00049
       4 <- 35         0.00051
       4 <- 40        -0.00022
       4 <- 42        -0.00018
       4 <- 48        -0.00011
       5 <- 10         0.00245
       5 <- 11        -0.00021
       5 <- 14         0.00495
       5 <- 15        -0.00109
       5 <- 19         0.00060
       5 <- 20         0.00042
       5 <- 21         0.00230
       5 <- 25         0.00169
       5 <- 26         0.00155
       5 <- 29         0.00053
       5 <- 32        -0.00022
       5 <- 33        -0.00091
       5 <- 37        -0.00036
       5 <- 39        -0.00017
       5 <- 43        -0.00040
       5 <- 46        -0.00043
       5 <- 49         0.00014
       6 <- 12         0.00032
       6 <- 16        -0.00017
       6 <- 18         0.00159
       6 <- 22        -0.00093
       6 <- 24         0.00060
       6 <- 30         0.00036
       6 <- 34        -0.00021
       6 <- 35         0.00030
       6 <- 40         0.00019
       6 <- 42        -0.00026
       6 <- 48         0.00033
       6 <- 51        -0.00048
       6 <- 53         0.00011
       7 <- 27         0.00033
       7 <- 38        -0.00025
       7 <- 45         0.00057
       8 <- 10        -0.00252
       8 <- 11        -0.00071
       8 <- 14        -0.00776
       8 <- 19        -0.00043
       8 <- 20        -0.00040
       8 <- 21        -0.00284
       8 <- 25        -0.00275
       8 <- 26        -0.00011
       8 <- 29        -0.00070
       8 <- 32        -0.00051
       8 <- 33         0.00138
       8 <- 37         0.00050
       8 <- 39         0.00041
       8 <- 43         0.00051
       8 <- 46        -0.00056
       8 <- 50        -0.00014

 Excited State   3:      Singlet-B2     7.4433 eV  166.57 nm  f=0.0219  <S**2>=0.000
       3 -> 12        -0.00023
       3 -> 16        -0.00066
       3 -> 18         0.00060
       3 -> 22         0.00028
       3 -> 24         0.00028
       3 -> 30         0.00163
       3 -> 34         0.00013
       3 -> 35        -0.00036
       3 -> 40         0.00033
       3 -> 42        -0.00016
       3 -> 48         0.00029
       3 -> 51        -0.00027
       4 -> 12         0.00307
       4 -> 16        -0.00074
       4 -> 18         0.00315
       4 -> 22        -0.00154
       4 -> 24         0.00326
       4 -> 30        -0.00109
       4 -> 34         0.00053
       4 -> 35        -0.00043
       4 -> 42        -0.00018
       4 -> 48         0.00020
       4 -> 51        -0.00014
       5 -> 10        -0.00759
       5 -> 11         0.00026
       5 -> 14         0.00632
       5 -> 15        -0.00675
       5 -> 19        -0.00366
       5 -> 20        -0.00320
       5 -> 21         0.00100
       5 -> 25         0.00141
       5 -> 26        -0.00033
       5 -> 29         0.00150
       5 -> 32        -0.00073
       5 -> 33        -0.00145
       5 -> 37        -0.00011
       5 -> 39         0.00044
       5 -> 41        -0.00084
       5 -> 46         0.00081
       5 -> 49        -0.00017
       5 -> 50         0.00042
       6 -> 12        -0.00324
       6 -> 16        -0.00189
       6 -> 18        -0.00137
       6 -> 22         0.00145
       6 -> 30         0.00063
       6 -> 34        -0.00046
       6 -> 35         0.00146
       6 -> 40        -0.00092
       6 -> 42         0.00021
       6 -> 48        -0.00084
       6 -> 51         0.00066
       6 -> 53         0.00012
       7 -> 27        -0.00038
       7 -> 38        -0.00111
       7 -> 45        -0.00149
       8 -> 10         0.05489
       8 -> 11         0.70405
       8 -> 14        -0.01088
       8 -> 15         0.01559
       8 -> 19        -0.02510
       8 -> 20         0.01143
       8 -> 21        -0.00218
       8 -> 25         0.00055
       8 -> 26        -0.00159
       8 -> 29        -0.00046
       8 -> 32        -0.00037
       8 -> 33         0.00013
       8 -> 41        -0.00137
       8 -> 43         0.00016
       8 -> 46         0.00136
       8 -> 49        -0.00040
       8 -> 50         0.00077
       8 -> 54        -0.00016
       3 <- 12         0.00033
       3 <- 16        -0.00026
       3 <- 18         0.00078
       3 <- 24         0.00039
       3 <- 30         0.00098
       3 <- 34         0.00021
       3 <- 35        -0.00041
       3 <- 40         0.00029
       3 <- 42        -0.00014
       3 <- 48         0.00024
       3 <- 51        -0.00017
       3 <- 53        -0.00024
       4 <- 12         0.00036
       4 <- 16         0.00054
       4 <- 18         0.00087
       4 <- 22        -0.00118
       4 <- 24         0.00135
       4 <- 30        -0.00047
       4 <- 34         0.00049
       4 <- 42        -0.00020
       4 <- 48         0.00014
       4 <- 51        -0.00020
       5 <- 10         0.00130
       5 <- 11        -0.00088
       5 <- 14         0.00229
       5 <- 15        -0.00045
       5 <- 19         0.00081
       5 <- 20        -0.00021
       5 <- 21         0.00086
       5 <- 25         0.00117
       5 <- 26        -0.00048
       5 <- 29         0.00077
       5 <- 32         0.00067
       5 <- 33        -0.00102
       5 <- 37         0.00017
       5 <- 39         0.00019
       5 <- 41        -0.00086
       5 <- 46         0.00074
       5 <- 50         0.00036
       6 <- 12        -0.00034
       6 <- 16        -0.00032
       6 <- 18        -0.00016
       6 <- 22         0.00051
       6 <- 30         0.00028
       6 <- 34        -0.00027
       6 <- 35         0.00111
       6 <- 40        -0.00067
       6 <- 42         0.00014
       6 <- 48        -0.00071
       6 <- 51         0.00055
       7 <- 38        -0.00089
       7 <- 45        -0.00126
       8 <- 10        -0.00079
       8 <- 11         0.00013
       8 <- 14        -0.00423
       8 <- 15         0.00059
       8 <- 19         0.00313
       8 <- 20        -0.00136
       8 <- 21        -0.00211
       8 <- 25         0.00012
       8 <- 26        -0.00161
       8 <- 29        -0.00030
       8 <- 32         0.00130
       8 <- 33         0.00048
       8 <- 37        -0.00013
       8 <- 39        -0.00031
       8 <- 41        -0.00117
       8 <- 46         0.00110
       8 <- 49        -0.00018
       8 <- 50         0.00058

 Excited State   4:      Singlet-A1     7.5978 eV  163.18 nm  f=0.0539  <S**2>=0.000
       3 -> 10         0.00169
       3 -> 11        -0.00100
       3 -> 14         0.00060
       3 -> 15        -0.00032
       3 -> 19         0.00074
       3 -> 20         0.00124
       3 -> 21         0.00043
       3 -> 25        -0.00033
       3 -> 26         0.00090
       3 -> 29         0.00116
       3 -> 32        -0.00027
       3 -> 33        -0.00041
       3 -> 37        -0.00028
       3 -> 39         0.00012
       3 -> 41        -0.00021
       3 -> 49         0.00012
       3 -> 50         0.00036
       3 -> 54        -0.00021
       4 -> 10         0.00524
       4 -> 11         0.00744
       4 -> 14         0.00556
       4 -> 19         0.00044
       4 -> 20         0.00516
       4 -> 21         0.00202
       4 -> 25         0.00719
       4 -> 26         0.00110
       4 -> 29        -0.00046
       4 -> 32         0.00038
       4 -> 33        -0.00063
       4 -> 39        -0.00024
       4 -> 41         0.00017
       4 -> 43         0.00015
       4 -> 46        -0.00024
       4 -> 49        -0.00016
       4 -> 50         0.00011
       5 -> 12         0.00733
       5 -> 16         0.00047
       5 -> 18         0.01150
       5 -> 22        -0.00141
       5 -> 24         0.00517
       5 -> 34        -0.00015
       5 -> 35         0.00082
       5 -> 51         0.00031
       5 -> 53        -0.00015
       6 -> 10         0.01314
       6 -> 11        -0.00371
       6 -> 14         0.00429
       6 -> 15         0.00146
       6 -> 19         0.00422
       6 -> 20         0.00449
       6 -> 21         0.00167
       6 -> 25         0.00272
       6 -> 26         0.00043
       6 -> 29        -0.00125
       6 -> 32         0.00062
       6 -> 33        -0.00033
       6 -> 43         0.00012
       6 -> 49        -0.00046
       6 -> 50        -0.00044
       7 ->  9         0.01312
       7 -> 13         0.00833
       7 -> 17         0.00406
       7 -> 23         0.00516
       7 -> 28        -0.00016
       7 -> 31         0.00085
       7 -> 36         0.00056
       7 -> 44         0.00065
       7 -> 47        -0.00035
       7 -> 52        -0.00011
       8 -> 12         0.70573
       8 -> 16        -0.01811
       8 -> 18         0.02885
       8 -> 22         0.00515
       8 -> 24         0.00257
       8 -> 30         0.00120
       8 -> 34         0.00152
       8 -> 35        -0.00210
       8 -> 40        -0.00073
       8 -> 42         0.00048
       8 -> 48        -0.00037
       8 -> 51         0.00030
       8 -> 53        -0.00021
       3 <- 10         0.00059
       3 <- 11        -0.00017
       3 <- 14         0.00035
       3 <- 19         0.00028
       3 <- 20         0.00057
       3 <- 21         0.00037
       3 <- 26         0.00053
       3 <- 29         0.00074
       3 <- 32        -0.00027
       3 <- 33        -0.00023
       3 <- 37        -0.00022
       3 <- 39         0.00010
       3 <- 41        -0.00017
       3 <- 46         0.00018
       3 <- 50         0.00032
       3 <- 54        -0.00019
       4 <- 10         0.00478
       4 <- 11         0.00200
       4 <- 14         0.00407
       4 <- 15        -0.00050
       4 <- 19         0.00030
       4 <- 20         0.00293
       4 <- 21         0.00082
       4 <- 25         0.00402
       4 <- 26         0.00068
       4 <- 32         0.00023
       4 <- 33        -0.00097
       4 <- 39        -0.00029
       4 <- 46        -0.00021
       4 <- 49        -0.00013
       4 <- 50         0.00011
       5 <- 12         0.00277
       5 <- 16         0.00182
       5 <- 18         0.00414
       5 <- 22        -0.00038
       5 <- 24         0.00280
       5 <- 34        -0.00034
       5 <- 35         0.00075
       5 <- 40         0.00011
       5 <- 51         0.00021
       5 <- 53        -0.00013
       6 <- 10         0.00358
       6 <- 11        -0.00041
       6 <- 14         0.00177
       6 <- 15         0.00047
       6 <- 19         0.00144
       6 <- 20         0.00223
       6 <- 21         0.00062
       6 <- 25         0.00141
       6 <- 26         0.00050
       6 <- 29        -0.00074
       6 <- 32         0.00043
       6 <- 33        -0.00036
       6 <- 39        -0.00011
       6 <- 41         0.00014
       6 <- 49        -0.00034
       6 <- 50        -0.00044
       7 <-  9         0.00169
       7 <- 13         0.00224
       7 <- 17         0.00130
       7 <- 23         0.00270
       7 <- 28        -0.00019
       7 <- 31         0.00060
       7 <- 36         0.00044
       7 <- 44         0.00054
       7 <- 47        -0.00030
       8 <- 12        -0.00158
       8 <- 16        -0.00744
       8 <- 18        -0.00280
       8 <- 22         0.00078
       8 <- 24        -0.00216
       8 <- 34         0.00080
       8 <- 35        -0.00112
       8 <- 40        -0.00067
       8 <- 42         0.00040
       8 <- 48        -0.00042
       8 <- 51         0.00024
       8 <- 53        -0.00021

 Excited State   5:      Singlet-A2     8.1014 eV  153.04 nm  f=0.0000  <S**2>=0.000
       3 -> 27        -0.00066
       3 -> 38        -0.00059
       3 -> 45        -0.00034
       4 -> 27         0.00015
       4 -> 38         0.00055
       4 -> 45         0.00010
       5 ->  9        -0.00900
       5 -> 13        -0.00156
       5 -> 17         0.00597
       5 -> 23        -0.00140
       5 -> 31        -0.00174
       5 -> 36        -0.00122
       5 -> 44        -0.00023
       5 -> 52        -0.00013
       6 -> 27         0.00021
       6 -> 38         0.00028
       6 -> 45        -0.00036
       7 -> 12        -0.00052
       7 -> 16        -0.00180
       7 -> 18         0.00185
       7 -> 22        -0.00071
       7 -> 24        -0.00016
       7 -> 30         0.00011
       7 -> 35        -0.00017
       7 -> 40         0.00014
       7 -> 48        -0.00012
       8 ->  9         0.06801
       8 -> 13         0.70335
       8 -> 17         0.01445
       8 -> 23         0.01861
       8 -> 31        -0.00134
       8 -> 36        -0.00014
       8 -> 47         0.00018
       8 -> 52        -0.00018
       3 <- 27        -0.00026
       3 <- 38        -0.00042
       3 <- 45        -0.00043
       4 <- 27        -0.00024
       5 <-  9        -0.00025
       5 <- 13        -0.00029
       5 <- 17         0.00060
       5 <- 36        -0.00028
       6 <- 38         0.00021
       7 <- 12        -0.00066
       7 <- 16        -0.00081
       7 <- 18         0.00066
       7 <- 22        -0.00125
       7 <- 24        -0.00036
       7 <- 30         0.00019
       7 <- 34         0.00045
       7 <- 35        -0.00074
       7 <- 40         0.00040
       7 <- 42        -0.00019
       7 <- 53        -0.00014
       8 <-  9         0.00290
       8 <- 13         0.00141
       8 <- 17         0.00023
       8 <- 23        -0.00025
       8 <- 31        -0.00015
       8 <- 36         0.00024

 Excited State   6:      Singlet-B2    10.2978 eV  120.40 nm  f=0.1790  <S**2>=0.000
       3 -> 12        -0.00030
       3 -> 16        -0.00194
       3 -> 18         0.00080
       3 -> 22         0.00142
       3 -> 24         0.00102
       3 -> 30         0.00141
       3 -> 34        -0.00069
       3 -> 35        -0.00010
       3 -> 40        -0.00027

 The electronic state is 1-A1.
 Alpha  occ. eigenvalues --  -19.14428 -10.26105  -1.13924  -0.62848  -0.52861
 Alpha  occ. eigenvalues --   -0.48098  -0.45311  -0.27222
 Alpha virt. eigenvalues --   -0.03487   0.01084   0.04133   0.04328   0.06811
 Alpha virt. eigenvalues --    0.13419   0.18291   0.19067   0.22018   0.22797
 Alpha virt. eigenvalues --    0.27182   0.34810   0.48041   0.48733   0.51121

 Mulliken charges:
               1
     1  C    0.055863
     2  H    0.079852
     3  H    0.079852
     4  O   -0.215567
 Sum of Mulliken charges =   0.00000

 Dipole moment (field-independent basis, Debye):
    X=             -0.0000    Y=             -0.0000    Z=             -1.9190  Tot=              1.9190
 Quadrupole moment (field-independent basis, Debye-Ang):
   XX=            -11.4185   YY=            -11.8266   ZZ=            -12.7177
   XY=              0.0000   XZ=              0.0000   YZ=             -0.0000

 Normal termination of Gaussian 16 at Fri Sep 17 10:52:37 2021.
