 Gaussian 16, Revision A.03,
 Gaussian 16:  ES64L-G16RevA.03 25-Dec-2016

 --------------------------------------------------------------------
 #p B3LYP/6-311+G** #p TD=(singlets,nstates=30)IOp(6/8=3) IOp(9/40=4)
 --------------------------------------------------------------------

 -------------------------------
 Scan Step 164, Bond Length 1.32
 -------------------------------
 Symbolic Z-matrix:
 Charge =  0 Multiplicity = 1

                         Standard orientation:
 ---------------------------------------------------------------------
 Center     Atomic      Atomic             Coordinates (Angstroms)
 Number     Number       Type             X           Y           Z
 ---------------------------------------------------------------------
      1          6           0        0.000000    0.000000   -0.586081
      2          1           0        0.000000    0.937260   -1.177431
      3          1           0       -0.000000   -0.937260   -1.177431
      4          8           0        0.000000   -0.000000    0.733919
 ---------------------------------------------------------------------

 SCF Done:  E(RB3LYP) =  -114.524634521     A.U. after    9 cycles

 Excitation energies and oscillator strengths:

 Excited State   1:      Singlet-A2     3.2853 eV  377.39 nm  f=0.0000  <S**2>=0.000
       3 -> 27         0.00208
       3 -> 38         0.00173
       3 -> 45         0.00281
       4 -> 27         0.00146
       4 -> 38        -0.00041
       4 -> 45        -0.00139
       5 ->  9         0.01821
       5 -> 13        -0.00118
       5 -> 17         0.00492
       5 -> 23         0.00077
       5 -> 29         0.00421
       5 -> 31        -0.00140
       5 -> 37         0.00280
       5 -> 44         0.00053
       5 -> 48         0.00013
       5 -> 52         0.00065
       6 -> 27        -0.00037
       6 -> 38        -0.00088
       6 -> 45         0.00174
       7 -> 12        -0.00064
       7 -> 15         0.00348
       7 -> 18        -0.00320
       7 -> 22         0.00019
       7 -> 25         0.00137
       7 -> 30        -0.00107
       7 -> 33         0.00045
       7 -> 35         0.00014
       7 -> 40         0.00014
       7 -> 42        -0.00012
       7 -> 49         0.00022
       7 -> 50         0.00031
       7 -> 53         0.00048
       8 ->  9         0.70645
       8 -> 13        -0.03034
       8 -> 17         0.02249
       8 -> 23        -0.00832
       8 -> 29         0.01021
       8 -> 31        -0.00136
       8 -> 37         0.00035
       8 -> 48        -0.00027
       8 -> 52         0.00182
       3 <- 27         0.00127
       3 <- 38         0.00140
       3 <- 45         0.00289
       4 <- 27         0.00223
       4 <- 38         0.00014
       4 <- 45        -0.00116
       5 <-  9        -0.00057
       5 <- 13        -0.00075
       5 <- 17        -0.00100
       5 <- 23         0.00048
       5 <- 29        -0.00071
       5 <- 31         0.00069
       5 <- 37         0.00140
       5 <- 44         0.00020
       5 <- 48         0.00013
       5 <- 52         0.00017
       6 <- 27         0.00024
       6 <- 38        -0.00077
       6 <- 45         0.00136
       7 <- 12        -0.00052
       7 <- 15        -0.00825
       7 <- 18         0.00125
       7 <- 22         0.00748
       7 <- 25         0.00014
       7 <- 30         0.00410
       7 <- 33        -0.00114
       7 <- 35         0.00204
       7 <- 40         0.00088
       7 <- 50         0.00021
       7 <- 53         0.00137
       8 <-  9        -0.03013
       8 <- 13         0.00211
       8 <- 17        -0.00492
       8 <- 23         0.00072
       8 <- 29        -0.00140
       8 <- 31        -0.00058
       8 <- 37        -0.00109
       8 <- 52         0.00051
 This state for optimization and/or second-order correction.
 Total Energy, E(TD-HF/TD-DFT) =  -114.403902470
 Copying the excited state density for this state as the 1-particle RhoCI density.

 Excited State   2:      Singlet-B2     6.9483 eV  178.44 nm  f=0.0177  <S**2>=0.000
       3 -> 12         0.00169
       3 -> 15         0.00061
       3 -> 18         0.00133
       3 -> 22        -0.00034
       3 -> 25         0.00118
       3 -> 33         0.00026
       3 -> 35        -0.00055
       3 -> 40        -0.00024
       3 -> 49         0.00018
       4 -> 12        -0.00237
       4 -> 15         0.00208
       4 -> 18         0.00178
       4 -> 22        -0.00319
       4 -> 25         0.00303
       4 -> 30         0.00034
       4 -> 33        -0.00027
       4 -> 35         0.00040
       4 -> 40         0.00043
       4 -> 42        -0.00013
       5 -> 10        -0.00841
       5 -> 11        -0.00643
       5 -> 14         0.00719
       5 -> 16        -0.00060
       5 -> 19        -0.00331
       5 -> 20         0.00254
       5 -> 21         0.00569
       5 -> 24        -0.00074
       5 -> 26         0.00202
       5 -> 28         0.00097
       5 -> 32        -0.00107
       5 -> 34        -0.00098
       5 -> 36        -0.00018
       5 -> 39        -0.00021
       5 -> 41        -0.00051
       5 -> 43        -0.00045
       5 -> 46        -0.00016
       5 -> 54         0.00013
       6 -> 12        -0.00101
       6 -> 15         0.00136
       6 -> 18         0.00101
       6 -> 22        -0.00215
       6 -> 25         0.00090
       6 -> 30        -0.00051
       6 -> 33        -0.00030
       6 -> 35         0.00066
       6 -> 42        -0.00015
       6 -> 49         0.00040
       6 -> 50        -0.00019
       7 -> 38        -0.00070
       7 -> 45         0.00010
       8 -> 10         0.70274
       8 -> 11        -0.07188
       8 -> 14         0.02145
       8 -> 16        -0.00332
       8 -> 19        -0.00224
       8 -> 20         0.01763
       8 -> 21        -0.00220
       8 -> 26         0.00308
       8 -> 28         0.00120
       8 -> 32         0.00092
       8 -> 34         0.00062
       8 -> 36         0.00027
       8 -> 39         0.00030
       8 -> 41        -0.00026
       8 -> 43         0.00059
       8 -> 46        -0.00026
       8 -> 47         0.00017
       8 -> 51        -0.00019
       8 -> 54         0.00023
       3 <- 12         0.00038
       3 <- 15         0.00050
       3 <- 18         0.00050
       3 <- 22        -0.00053
       3 <- 25         0.00063
       3 <- 33         0.00022
       3 <- 35        -0.00048
       3 <- 40        -0.00025
       3 <- 49         0.00023
       4 <- 12         0.00078
       4 <- 15         0.00198
       4 <- 18         0.00169
       4 <- 22        -0.00202
       4 <- 25         0.00204
       4 <- 30         0.00023
       4 <- 33        -0.00010
       4 <- 35         0.00016
       4 <- 40         0.00011
       4 <- 42        -0.00022
       4 <- 50        -0.00014
       5 <- 10         0.00222
       5 <- 11        -0.00023
       5 <- 14         0.00455
       5 <- 16        -0.00049
       5 <- 19        -0.00043
       5 <- 20         0.00068
       5 <- 21         0.00159
       5 <- 24        -0.00219
       5 <- 26         0.00138
       5 <- 28         0.00011
       5 <- 32        -0.00081
       5 <- 34        -0.00086
       5 <- 36        -0.00023
       5 <- 39        -0.00013
       5 <- 41        -0.00033
       5 <- 43        -0.00036
       5 <- 46        -0.00015
       6 <- 15        -0.00034
       6 <- 18         0.00092
       6 <- 22        -0.00036
       6 <- 25         0.00030
       6 <- 30         0.00042
       6 <- 33        -0.00035
       6 <- 35         0.00069
       6 <- 42        -0.00013
       6 <- 49         0.00032
       6 <- 50        -0.00021
       6 <- 53         0.00018
       7 <- 38        -0.00052
       7 <- 45         0.00012
       8 <- 10        -0.00138
       8 <- 11        -0.00070
       8 <- 14        -0.00408
       8 <- 16        -0.00060
       8 <- 19         0.00060
       8 <- 20        -0.00071
       8 <- 21        -0.00139
       8 <- 24         0.00164
       8 <- 26        -0.00090
       8 <- 28        -0.00037
       8 <- 32         0.00083
       8 <- 36         0.00031
       8 <- 39         0.00016
       8 <- 43         0.00035
       8 <- 46        -0.00011

 Excited State   3:      Singlet-B2     7.6667 eV  161.72 nm  f=0.0284  <S**2>=0.000
       3 -> 12        -0.00036
       3 -> 15        -0.00114
       3 -> 18         0.00130
       3 -> 22         0.00054
       3 -> 30         0.00275
       3 -> 33         0.00017
       3 -> 35        -0.00074
       3 -> 40        -0.00062
       3 -> 49         0.00071
       3 -> 50        -0.00017
       4 -> 12         0.00228
       4 -> 15         0.00060
       4 -> 18         0.00152
       4 -> 22        -0.00149
       4 -> 25         0.00264
       4 -> 30        -0.00150
       4 -> 33         0.00048
       4 -> 35        -0.00060
       4 -> 49         0.00021
       5 -> 10        -0.00437
       5 -> 14         0.01050
       5 -> 16        -0.00648
       5 -> 19         0.00024
       5 -> 20        -0.00455
       5 -> 21         0.00304
       5 -> 24        -0.00069
       5 -> 26         0.00180
       5 -> 28         0.00152
       5 -> 34        -0.00072
       5 -> 36        -0.00048
       5 -> 39         0.00051
       5 -> 41        -0.00063
       5 -> 43         0.00022
       5 -> 46         0.00092
       5 -> 47         0.00012
       5 -> 51        -0.00044
       6 -> 12        -0.00265
       6 -> 15        -0.00120
       6 -> 18        -0.00072
       6 -> 22         0.00100
       6 -> 25         0.00017
       6 -> 30         0.00124
       6 -> 33        -0.00055
       6 -> 35         0.00149
       6 -> 40         0.00120
       6 -> 49        -0.00139
       6 -> 50         0.00024
       6 -> 53         0.00013
       7 -> 27         0.00036
       7 -> 38        -0.00077
       7 -> 45        -0.00220
       8 -> 10         0.07167
       8 -> 11         0.70217
       8 -> 14         0.00207
       8 -> 16         0.00842
       8 -> 19        -0.03932
       8 -> 20        -0.00497
       8 -> 21        -0.00236
       8 -> 24         0.00103
       8 -> 26        -0.00022
       8 -> 28         0.00275
       8 -> 32         0.00010
       8 -> 34        -0.00022
       8 -> 36        -0.00034
       8 -> 39        -0.00027
       8 -> 41        -0.00101
       8 -> 43         0.00041
       8 -> 46         0.00266
       8 -> 51        -0.00121
       3 <- 12         0.00034
       3 <- 15        -0.00037
       3 <- 18         0.00109
       3 <- 25         0.00015
       3 <- 30         0.00144
       3 <- 33         0.00028
       3 <- 35        -0.00073
       3 <- 40        -0.00057
       3 <- 49         0.00066
       3 <- 50        -0.00011
       3 <- 53        -0.00037
       4 <- 12         0.00026
       4 <- 15         0.00091
       4 <- 18         0.00029
       4 <- 22        -0.00119
       4 <- 25         0.00115
       4 <- 30        -0.00083
       4 <- 33         0.00046
       4 <- 35        -0.00035
       4 <- 49         0.00016
       5 <- 10         0.00112
       5 <- 11        -0.00146
       5 <- 14         0.00276
       5 <- 16        -0.00043
       5 <- 19         0.00169
       5 <- 20        -0.00029
       5 <- 21         0.00090
       5 <- 24        -0.00143
       5 <- 26         0.00018
       5 <- 28         0.00062
       5 <- 32        -0.00076
       5 <- 34         0.00015
       5 <- 36         0.00010
       5 <- 39         0.00013
       5 <- 41        -0.00067
       5 <- 43         0.00012
       5 <- 46         0.00090
       5 <- 51        -0.00030
       6 <- 12        -0.00025
       6 <- 15        -0.00131
       6 <- 18         0.00050
       6 <- 22         0.00108
       6 <- 25        -0.00016
       6 <- 30         0.00138
       6 <- 33        -0.00050
       6 <- 35         0.00135
       6 <- 40         0.00098
       6 <- 49        -0.00114
       6 <- 50         0.00018
       6 <- 53         0.00012
       7 <- 27         0.00044
       7 <- 38        -0.00061
       7 <- 45        -0.00183
       8 <- 10        -0.00098
       8 <- 11        -0.00250
       8 <- 14        -0.00369
       8 <- 16         0.00036
       8 <- 19         0.00590
       8 <- 20         0.00097
       8 <- 21        -0.00190
       8 <- 24        -0.00054
       8 <- 26        -0.00165
       8 <- 28         0.00074
       8 <- 32        -0.00140
       8 <- 34         0.00175
       8 <- 39        -0.00082
       8 <- 41        -0.00098
       8 <- 43         0.00018
       8 <- 46         0.00215
       8 <- 47        -0.00027
       8 <- 51        -0.00079

 Excited State   4:      Singlet-B1     7.8149 eV  158.65 nm  f=0.0013  <S**2>=0.000
       3 ->  9        -0.03352
       3 -> 13         0.00428
       3 -> 17        -0.00669
       3 -> 23         0.00357
       3 -> 29        -0.00226
       3 -> 31        -0.00038
       3 -> 44         0.00058
       3 -> 48         0.00031
       3 -> 52         0.00112
       4 ->  9         0.01659
       4 -> 13        -0.00274
       4 -> 17         0.00088
       4 -> 23        -0.00249
       4 -> 29         0.00011
       4 -> 31        -0.00230
       4 -> 37        -0.00043
       4 -> 48        -0.00156
       4 -> 52        -0.00093
       5 -> 27        -0.00154
       5 -> 38         0.00205
       5 -> 45         0.00248
       6 ->  9         0.70537
       6 -> 13        -0.03122
       6 -> 17         0.02169
       6 -> 23        -0.01228
       6 -> 29         0.00723
       6 -> 31         0.00389
       6 -> 37        -0.00261
       6 -> 44        -0.00351
       6 -> 48         0.00537
       6 -> 52         0.00190
       7 -> 10         0.00172
       7 -> 11         0.00493
       7 -> 14        -0.00042
       7 -> 16        -0.01205
       7 -> 19        -0.00251
       7 -> 20         0.00209
       7 -> 21         0.00310
       7 -> 24         0.00207
       7 -> 26         0.00139
       7 -> 28        -0.00474
       7 -> 32        -0.00127
       7 -> 34         0.00017
       7 -> 36        -0.00156
       7 -> 39         0.00023
       7 -> 41        -0.00187
       7 -> 43         0.00097
       7 -> 46         0.00478
       7 -> 47         0.00243
       7 -> 51         0.00111
       7 -> 54         0.00056
       8 -> 27         0.00247
       8 -> 38         0.00084
       8 -> 45         0.00673
       3 <-  9        -0.01054
       3 <- 13         0.00053
       3 <- 17        -0.00335
       3 <- 23         0.00031
       3 <- 29        -0.00140
       3 <- 31        -0.00028
       3 <- 37        -0.00014
       3 <- 44        -0.00015
       3 <- 48         0.00058
       3 <- 52         0.00090
       4 <-  9         0.00566
       4 <- 17         0.00248
       4 <- 23        -0.00029
       4 <- 29         0.00225
       4 <- 31        -0.00213
       4 <- 37         0.00011
       4 <- 44         0.00020
       4 <- 48        -0.00135
       4 <- 52        -0.00051
       5 <- 27        -0.00164
       5 <- 38         0.00156
       5 <- 45         0.00219
       6 <-  9        -0.02162
       6 <- 13         0.00281
       6 <- 17        -0.00303
       6 <- 23         0.00043
       6 <- 29        -0.00227
       6 <- 31         0.00291
       6 <- 37        -0.00260
       6 <- 44        -0.00217
       6 <- 48         0.00470
       6 <- 52         0.00069
       7 <- 10         0.00197
       7 <- 11         0.00330
       7 <- 14         0.00108
       7 <- 16         0.00070
       7 <- 19        -0.01025
       7 <- 20         0.00812
       7 <- 21         0.00699
       7 <- 24         0.00641
       7 <- 26         0.00381
       7 <- 28         0.00060
       7 <- 32        -0.00118
       7 <- 34         0.00154
       7 <- 36        -0.00250
       7 <- 39         0.00046
       7 <- 41        -0.00130
       7 <- 43         0.00093
       7 <- 46         0.00430
       7 <- 47         0.00199
       7 <- 51         0.00078
       7 <- 54         0.00104
       8 <- 27         0.00231
       8 <- 38         0.00087
       8 <- 45         0.00595

 Excited State   5:      Singlet-A1     7.9650 eV  155.66 nm  f=0.0002  <S**2>=0.000
       3 -> 10         0.00429
       3 -> 11         0.00631
       3 -> 14         0.00444
       3 -> 16        -0.00070
       3 -> 19        -0.01340
       3 -> 20         0.00363
       3 -> 21         0.00422
       3 -> 24         0.00413
       3 -> 26         0.00559
       3 -> 28         0.00153
       3 -> 32         0.00167
       3 -> 34        -0.00260
       3 -> 36        -0.00115
       3 -> 39         0.00080
       3 -> 43         0.00042
       3 -> 46         0.00104
       4 -> 10         0.01776
       4 -> 11        -0.00258
       4 -> 14         0.01153
       4 -> 16         0.00132
       4 -> 19         0.00454
       4 -> 20         0.00677
       4 -> 21        -0.00060
       4 -> 24        -0.00948
       4 -> 26         0.00491
       4 -> 28         0.00019
       4 -> 32        -0.00113
       4 -> 34         0.00185
       4 -> 36         0.00047
       4 -> 43         0.00011
       4 -> 46        -0.00054
       4 -> 47        -0.00075
       4 -> 51        -0.00010
       5 -> 12         0.02066
       5 -> 15         0.02037
       5 -> 18         0.00834
       5 -> 22        -0.00243
       5 -> 25         0.01151
       5 -> 30        -0.00215
       5 -> 33        -0.00159
       5 -> 35         0.00116
       5 -> 40         0.00084
       5 -> 42         0.00032
       5 -> 49         0.00024
       5 -> 53        -0.00028
       6 -> 10        -0.00577
       6 -> 11        -0.02333
       6 -> 14        -0.00406
       6 -> 16        -0.01530
       6 -> 19         0.03927
       6 -> 20        -0.02181
       6 -> 21        -0.01716
       6 -> 24        -0.01777
       6 -> 26        -0.00771
       6 -> 28        -0.00773
       6 -> 32        -0.00021
       6 -> 34        -0.00182
       6 -> 36         0.00126
       6 -> 39         0.00021
       6 -> 41        -0.00053
       6 -> 43         0.00028
       6 -> 46         0.00032
       6 -> 47         0.00141
       6 -> 51         0.00048
       6 -> 54        -0.00019
       7 ->  9         0.34818
       7 -> 13         0.02609
       7 -> 17        -0.01402
       7 -> 23         0.00834
       7 -> 29        -0.00361
       7 -> 31        -0.00135
       7 -> 37         0.00046
       7 -> 44         0.00015
       7 -> 52         0.00038
       8 -> 12         0.60692
       8 -> 15         0.07986
       8 -> 18         0.01220
       8 -> 22        -0.02340
       8 -> 25         0.00677
       8 -> 30        -0.00833
       8 -> 33         0.00453
       8 -> 35        -0.00543
       8 -> 40        -0.00122
       8 -> 42        -0.00016
       8 -> 49        -0.00013
       8 -> 50         0.00039
       8 -> 53        -0.00072
       3 <- 10         0.00172
       3 <- 11         0.00411
       3 <- 14         0.00278
       3 <- 19        -0.00819
       3 <- 20         0.00204
       3 <- 21         0.00326
       3 <- 24         0.00256
       3 <- 26         0.00370
       3 <- 28         0.00107
       3 <- 32         0.00158
       3 <- 34        -0.00167
       3 <- 36        -0.00078
       3 <- 39         0.00060
       3 <- 43         0.00040
       3 <- 46         0.00114
       3 <- 47         0.00023
       4 <- 10         0.00804
       4 <- 11        -0.00177
       4 <- 14         0.00574
       4 <- 16         0.00023
       4 <- 19         0.00232
       4 <- 20         0.00377
       4 <- 21        -0.00054
       4 <- 24        -0.00520
       4 <- 26         0.00314
       4 <- 32        -0.00149
       4 <- 34         0.00110
       4 <- 36         0.00024
       4 <- 39        -0.00013
       4 <- 41        -0.00020
       4 <- 46        -0.00024
       4 <- 47        -0.00069
       5 <- 12         0.00654
       5 <- 15         0.00853
       5 <- 18         0.00328
       5 <- 22        -0.00099
       5 <- 25         0.00619

 The electronic state is 1-A1.
 Alpha  occ. eigenvalues --  -19.15853 -10.29676  -1.01908  -0.66292  -0.49430
 Alpha  occ. eigenvalues --   -0.44966  -0.38132  -0.28769
 Alpha virt. eigenvalues --   -0.09351   0.00410   0.03571   0.04196   0.06289
 Alpha virt. eigenvalues --    0.12353   0.16600   0.18800   0.21860   0.23563
 Alpha virt. eigenvalues --    0.24081   0.30654   0.42470   0.44501   0.50931

 Mulliken charges:
               1
     1  C   -0.006840
     2  H    0.139198
     3  H    0.139198
     4  O   -0.271555
 Sum of Mulliken charges =  -0.00000

 Dipole moment (field-independent basis, Debye):
    X=             -0.0000    Y=             -0.0000    Z=             -2.9707  Tot=              2.9707
 Quadrupole moment (field-independent basis, Debye-Ang):
   XX=            -12.0911   YY=            -11.7365   ZZ=            -12.1214
   XY=              0.0000   XZ=              0.0000   YZ=             -0.0000

 Normal termination of Gaussian 16 at Fri Sep 17 10:52:46 2021.
