 Gaussian 16, Revision A.03,
 Gaussian 16:  ES64L-G16RevA.03 25-Dec-2016

 --------------------------------------------------------------------
 #p B3LYP/6-311+G** #p TD=(singlets,nstates=30)IOp(6/8=3) IOp(9/40=4)
 --------------------------------------------------------------------

 --------------------------------------------
 Scan Step 68, Bond Length 0.8400000000000001
 --------------------------------------------
 Symbolic Z-matrix:
 Charge =  0 Multiplicity = 1

                         Standard orientation:
 ---------------------------------------------------------------------
 Center     Atomic      Atomic             Coordinates (Angstroms)
 Number     Number       Type             X           Y           Z
 ---------------------------------------------------------------------
      1          6           0        0.000000    0.000000   -0.346081
      2          1           0        0.000000    0.937260   -0.937431
      3          1           0       -0.000000   -0.937260   -0.937431
      4          8           0        0.000000   -0.000000    0.493919
 ---------------------------------------------------------------------

 SCF Done:  E(RB3LYP) =  -114.034359749     A.U. after    9 cycles

 Excitation energies and oscillator strengths:

 Excited State   1:      Singlet-A2     5.5711 eV  222.55 nm  f=0.0000  <S**2>=0.000
       3 -> 27         0.00260
       3 -> 35         0.00195
       3 -> 46         0.00096
       4 -> 10         0.00482
       4 -> 13         0.00722
       4 -> 17         0.00573
       4 -> 22        -0.00337
       4 -> 28         0.00281
       4 -> 32         0.00128
       4 -> 37         0.00301
       4 -> 43         0.00042
       4 -> 52         0.00059
       5 -> 11        -0.00051
       5 -> 16        -0.00057
       5 -> 18        -0.00040
       5 -> 23         0.00159
       5 -> 24         0.00022
       5 -> 29        -0.00022
       5 -> 33         0.00022
       5 -> 36         0.00049
       5 -> 42         0.00049
       5 -> 47         0.00060
       5 -> 50        -0.00019
       5 -> 53         0.00022
       6 -> 27         0.00362
       6 -> 35        -0.00065
       6 -> 46        -0.00053
       7 -> 27         0.00096
       7 -> 35        -0.00015
       7 -> 46         0.00094
       8 -> 10         0.69844
       8 -> 13         0.10588
       8 -> 17         0.03079
       8 -> 22        -0.00436
       8 -> 28         0.00432
       8 -> 32         0.00332
       8 -> 37        -0.00241
       8 -> 43        -0.00012
       8 -> 52         0.00075
       3 <- 27         0.00197
       3 <- 35         0.00168
       3 <- 46         0.00098
       4 <- 10         0.00022
       4 <- 13         0.00113
       4 <- 17         0.00029
       4 <- 22         0.00012
       4 <- 32        -0.00102
       4 <- 37         0.00142
       4 <- 43         0.00041
       4 <- 52         0.00015
       5 <- 11        -0.00088
       5 <- 16         0.00122
       5 <- 18        -0.00280
       5 <- 23         0.00361
       5 <- 24        -0.00171
       5 <- 29         0.00156
       5 <- 33        -0.00069
       5 <- 36         0.00160
       5 <- 42         0.00074
       5 <- 47         0.00048
       5 <- 53         0.00059
       6 <- 27         0.00393
       6 <- 35        -0.00055
       6 <- 46        -0.00053
       7 <- 27         0.00097
       7 <- 35        -0.00022
       7 <- 46         0.00078
       8 <- 10        -0.00535
       8 <- 13        -0.00853
       8 <- 17        -0.00452
       8 <- 22         0.00037
       8 <- 28        -0.00038
       8 <- 32         0.00296
       8 <- 37        -0.00215
       8 <- 52         0.00024
 This state for optimization and/or second-order correction.
 Total Energy, E(TD-HF/TD-DFT) =  -113.829627132
 Copying the excited state density for this state as the 1-particle RhoCI density.

 Excited State   2:      Singlet-B2     5.6625 eV  218.96 nm  f=0.0948  <S**2>=0.000
       3 -> 11         0.00084
       3 -> 16         0.00034
       3 -> 18         0.00094
       3 -> 24         0.00109
       3 -> 29        -0.00021
       3 -> 42         0.00016
       3 -> 50        -0.00015
       3 -> 53         0.00010
       4 ->  9         0.00220
       4 -> 12         0.00583
       4 -> 14         0.00487
       4 -> 15         0.00163
       4 -> 19         0.00368
       4 -> 20         0.00144
       4 -> 21         0.00252
       4 -> 25         0.00136
       4 -> 26        -0.00101
       4 -> 30        -0.00193
       4 -> 31         0.00057
       4 -> 34         0.00044
       4 -> 38        -0.00081
       4 -> 39         0.00011
       4 -> 41         0.00049
       4 -> 44         0.00041
       4 -> 45        -0.00060
       4 -> 48         0.00038
       5 -> 27         0.00119
       5 -> 35         0.00038
       5 -> 46         0.00087
       6 -> 11        -0.00674
       6 -> 16         0.00139
       6 -> 18         0.00089
       6 -> 23        -0.00218
       6 -> 24         0.00413
       6 -> 29        -0.00072
       6 -> 33        -0.00105
       6 -> 36         0.00085
       6 -> 40        -0.00013
       6 -> 42         0.00043
       7 -> 11         0.00284
       7 -> 16         0.00367
       7 -> 18         0.00336
       7 -> 23        -0.00184
       7 -> 24         0.00252
       7 -> 29         0.00019
       7 -> 36        -0.00028
       7 -> 42        -0.00037
       7 -> 47         0.00042
       7 -> 50         0.00048
       7 -> 53        -0.00010
       8 ->  9         0.70620
       8 -> 12         0.00790
       8 -> 14        -0.02574
       8 -> 15         0.01108
       8 -> 19         0.02072
       8 -> 20        -0.00727
       8 -> 21        -0.00844
       8 -> 25         0.00058
       8 -> 26        -0.00039
       8 -> 30         0.00018
       8 -> 31         0.00307
       8 -> 34         0.00142
       8 -> 38         0.00095
       8 -> 39        -0.00048
       8 -> 41        -0.00051
       8 -> 45        -0.00106
       8 -> 48         0.00036
       8 -> 54        -0.00013
       3 <- 11         0.00029
       3 <- 18         0.00058
       3 <- 24         0.00081
       3 <- 29        -0.00019
       3 <- 42         0.00014
       3 <- 53         0.00011
       4 <-  9         0.00192
       4 <- 12        -0.00016
       4 <- 14         0.00389
       4 <- 15         0.00182
       4 <- 19         0.00092
       4 <- 20         0.00058
       4 <- 21         0.00164
       4 <- 25         0.00161
       4 <- 26        -0.00125
       4 <- 30        -0.00071
       4 <- 34         0.00021
       4 <- 38        -0.00052
       4 <- 39         0.00016
       4 <- 41         0.00045
       4 <- 44         0.00029
       4 <- 45        -0.00054
       4 <- 48         0.00032
       5 <- 27         0.00094
       5 <- 35         0.00030
       5 <- 46         0.00074
       6 <- 11        -0.00032
       6 <- 16         0.00142
       6 <- 18         0.00208
       6 <- 23        -0.00124
       6 <- 24         0.00320
       6 <- 29        -0.00058
       6 <- 33        -0.00081
       6 <- 36         0.00066
       6 <- 40        -0.00017
       6 <- 42         0.00021
       7 <- 11         0.00074
       7 <- 16         0.00224
       7 <- 18         0.00105
       7 <- 23        -0.00075
       7 <- 24         0.00119
       7 <- 29         0.00081
       7 <- 42        -0.00031
       7 <- 47         0.00041
       7 <- 50         0.00054
       8 <-  9        -0.00502
       8 <- 12         0.00267
       8 <- 14        -0.01434
       8 <- 15        -0.00285
       8 <- 19        -0.00123
       8 <- 20         0.00018
       8 <- 21        -0.00442
       8 <- 25        -0.00314
       8 <- 26        -0.00064
       8 <- 30         0.00048
       8 <- 31         0.00171
       8 <- 34         0.00152
       8 <- 38         0.00092
       8 <- 39        -0.00040
       8 <- 41        -0.00035
       8 <- 44        -0.00019
       8 <- 45        -0.00079
       8 <- 48         0.00032

 Excited State   3:      Singlet-B2     6.4668 eV  191.72 nm  f=0.0242  <S**2>=0.000
       3 -> 11         0.00011
       3 -> 16        -0.00061
       3 -> 18         0.00013
       3 -> 23        -0.00020
       3 -> 24        -0.00044
       3 -> 29        -0.00083
       3 -> 33        -0.00014
       3 -> 36         0.00028
       3 -> 42         0.00029
       3 -> 47        -0.00019
       3 -> 50        -0.00019
       3 -> 53         0.00011
       4 ->  9         0.00426
       4 -> 12        -0.00015
       4 -> 14        -0.00246
       4 -> 15        -0.00412
       4 -> 19         0.00286
       4 -> 20        -0.00032
       4 -> 21        -0.00142
       4 -> 25        -0.00088
       4 -> 26        -0.00113
       4 -> 30         0.00078
       4 -> 31         0.00220
       4 -> 34         0.00034
       4 -> 39         0.00085
       4 -> 41         0.00058
       4 -> 45        -0.00062
       4 -> 48         0.00038
       4 -> 51         0.00018
       5 -> 27         0.00091
       5 -> 35         0.00134
       5 -> 46         0.00098
       6 -> 11        -0.00235
       6 -> 16        -0.00479
       6 -> 18        -0.00094
       6 -> 23         0.00122
       6 -> 24        -0.00376
       6 -> 29         0.00134
       6 -> 33        -0.00055
       6 -> 40         0.00028
       6 -> 47        -0.00011
       7 -> 11         0.00286
       7 -> 16         0.00052
       7 -> 18         0.00236
       7 -> 23        -0.00124
       7 -> 24         0.00064
       7 -> 29         0.00013
       7 -> 33         0.00022
       7 -> 36        -0.00112
       7 -> 40         0.00030
       7 -> 42        -0.00059
       7 -> 47         0.00066
       7 -> 50         0.00054
       7 -> 53        -0.00017
       8 ->  9        -0.00805
       8 -> 12         0.70599
       8 -> 14         0.01973
       8 -> 15         0.02467
       8 -> 19         0.01538
       8 -> 20         0.01542
       8 -> 21         0.00352
       8 -> 25        -0.00046
       8 -> 26         0.00073
       8 -> 30        -0.00182
       8 -> 31        -0.00065
       8 -> 34        -0.00036
       8 -> 38         0.00012
       8 -> 39         0.00095
       8 -> 41         0.00114
       8 -> 44        -0.00010
       8 -> 45        -0.00068
       8 -> 48         0.00050
       8 -> 54        -0.00016
       3 <- 11        -0.00020
       3 <- 16        -0.00059
       3 <- 18        -0.00014
       3 <- 24        -0.00049
       3 <- 29        -0.00055
       3 <- 33        -0.00016
       3 <- 36         0.00030
       3 <- 42         0.00025
       3 <- 47        -0.00014
       3 <- 53         0.00021
       4 <-  9        -0.00136
       4 <- 12        -0.00014
       4 <- 14        -0.00172
       4 <- 15        -0.00062
       4 <- 19        -0.00064
       4 <- 20         0.00035
       4 <- 21        -0.00102
       4 <- 25        -0.00092
       4 <- 26        -0.00094
       4 <- 30         0.00090
       4 <- 31         0.00093
       4 <- 34         0.00087
       4 <- 39         0.00063
       4 <- 41         0.00058
       4 <- 45        -0.00064
       4 <- 48         0.00025
       4 <- 51         0.00018
       5 <- 27         0.00046
       5 <- 35         0.00112
       5 <- 46         0.00084
       6 <- 11        -0.00018
       6 <- 16        -0.00100
       6 <- 18        -0.00103
       6 <- 23         0.00122
       6 <- 24        -0.00197
       6 <- 29         0.00063
       6 <- 33        -0.00059
       6 <- 36        -0.00025
       6 <- 40         0.00028
       6 <- 50        -0.00017
       7 <- 11         0.00038
       7 <- 16         0.00047
       7 <- 18         0.00020
       7 <- 23        -0.00024
       7 <- 24         0.00012
       7 <- 29         0.00044
       7 <- 36        -0.00076
       7 <- 40         0.00024
       7 <- 42        -0.00041
       7 <- 47         0.00058
       7 <- 50         0.00052
       8 <-  9         0.00248
       8 <- 12         0.00139
       8 <- 14         0.00752
       8 <- 15         0.00202
       8 <- 19        -0.00173
       8 <- 20        -0.00223
       8 <- 21         0.00289
       8 <- 25         0.00051
       8 <- 26        -0.00064
       8 <- 30        -0.00134
       8 <- 31        -0.00112
       8 <- 38         0.00029
       8 <- 39         0.00070
       8 <- 41         0.00096
       8 <- 45        -0.00058
       8 <- 48         0.00031
       8 <- 51         0.00010

 Excited State   4:      Singlet-A1     6.6057 eV  187.69 nm  f=0.0352  <S**2>=0.000
       3 ->  9         0.00126
       3 -> 12         0.00074
       3 -> 15         0.00061
       3 -> 19         0.00134
       3 -> 20        -0.00021
       3 -> 21        -0.00040
       3 -> 25         0.00032
       3 -> 30        -0.00101
       3 -> 31        -0.00018
       3 -> 34        -0.00024
       3 -> 38        -0.00033
       3 -> 39        -0.00028
       3 -> 48        -0.00013
       3 -> 51        -0.00026
       3 -> 54         0.00019
       4 -> 11         0.00725
       4 -> 16         0.00817
       4 -> 18         0.00589
       4 -> 23         0.00119
       4 -> 24         0.00387
       4 -> 29         0.00071
       4 -> 33        -0.00015
       4 -> 36         0.00098
       4 -> 42        -0.00025
       4 -> 50        -0.00034
       4 -> 53        -0.00012
       5 -> 10         0.00652
       5 -> 13        -0.00281
       5 -> 17         0.00498
       5 -> 22         0.00380
       5 -> 28         0.00086
       5 -> 32         0.00091
       5 -> 37         0.00054
       5 -> 43         0.00041
       5 -> 49        -0.00036
       6 ->  9         0.00587
       6 -> 12        -0.01089
       6 -> 14         0.00616
       6 -> 15         0.00276
       6 -> 19         0.00151
       6 -> 20        -0.00684
       6 -> 21         0.00159
       6 -> 25         0.00676
       6 -> 26        -0.00100
       6 -> 30         0.00090
       6 -> 31        -0.00089
       6 -> 34        -0.00115
       6 -> 38        -0.00044
       6 -> 39         0.00102
       6 -> 44         0.00024
       6 -> 45        -0.00028
       6 -> 48        -0.00032
       7 ->  9         0.01279
       7 -> 12         0.00571
       7 -> 14         0.00220
       7 -> 15        -0.00105
       7 -> 19         0.00842
       7 -> 20        -0.00209
       7 -> 21         0.00053
       7 -> 25         0.00173
       7 -> 26         0.00035
       7 -> 30        -0.00036
       7 -> 31         0.00074
       7 -> 34        -0.00097
       7 -> 38        -0.00012
       7 -> 39         0.00023
       7 -> 48        -0.00022
       7 -> 51         0.00038
       8 -> 11         0.70536
       8 -> 16         0.04406
       8 -> 18        -0.00761
       8 -> 23         0.00255
       8 -> 24         0.00199
       8 -> 29         0.00372
       8 -> 33         0.00160
       8 -> 36        -0.00268
       8 -> 40         0.00017
       8 -> 42         0.00153
       8 -> 47        -0.00052
       3 <-  9         0.00057
       3 <- 12         0.00031
       3 <- 15         0.00032
       3 <- 19         0.00077
       3 <- 21        -0.00018
       3 <- 25         0.00033
       3 <- 30        -0.00061
       3 <- 31        -0.00016
       3 <- 34        -0.00020
       3 <- 38        -0.00024
       3 <- 39        -0.00024
       3 <- 41        -0.00012
       3 <- 45         0.00010
       3 <- 48        -0.00015
       3 <- 51        -0.00022
       3 <- 54         0.00018
       4 <- 11         0.00259
       4 <- 16         0.00271
       4 <- 18         0.00304
       4 <- 23         0.00103
       4 <- 24         0.00208
       4 <- 29         0.00028
       4 <- 33        -0.00027
       4 <- 36         0.00084
       4 <- 42        -0.00022
       4 <- 50        -0.00028
       4 <- 53        -0.00011
       5 <- 10         0.00264
       5 <- 13        -0.00123
       5 <- 17         0.00246
       5 <- 22         0.00235
       5 <- 28         0.00056
       5 <- 32         0.00071
       5 <- 37         0.00045
       5 <- 43         0.00035
       5 <- 49        -0.00032
       6 <-  9         0.00611
       6 <- 12        -0.00417
       6 <- 14         0.00468
       6 <- 15         0.00249
       6 <- 19         0.00105
       6 <- 20        -0.00385
       6 <- 21         0.00028
       6 <- 25         0.00421
       6 <- 26        -0.00047
       6 <- 30         0.00024
       6 <- 31        -0.00106
       6 <- 34        -0.00091
       6 <- 38        -0.00054
       6 <- 39         0.00082
       6 <- 44         0.00030
       6 <- 45        -0.00025
       6 <- 48        -0.00026
       7 <-  9         0.00452
       7 <- 12         0.00156
       7 <- 14         0.00104
       7 <- 15        -0.00042
       7 <- 19         0.00377
       7 <- 20        -0.00131
       7 <- 25         0.00106
       7 <- 26         0.00011
       7 <- 30        -0.00037
       7 <- 31         0.00048
       7 <- 34        -0.00066
       7 <- 38        -0.00017
       7 <- 39         0.00029
       7 <- 45        -0.00013
       7 <- 48        -0.00012
       7 <- 51         0.00035
       8 <- 11        -0.00451
       8 <- 16         0.00496
       8 <- 18        -0.01200
       8 <- 23        -0.00156
       8 <- 24        -0.00152
       8 <- 29         0.00207
       8 <- 33         0.00128
       8 <- 36        -0.00196
       8 <- 42         0.00123
       8 <- 47        -0.00058
       8 <- 53        -0.00012

 Excited State   5:      Singlet-A2     7.6059 eV  163.01 nm  f=0.0000  <S**2>=0.000
       3 -> 27         0.00215
       3 -> 35         0.00170
       3 -> 46         0.00078
       4 -> 10         0.00655
       4 -> 13         0.00962
       4 -> 17        -0.00104
       4 -> 22        -0.00226
       4 -> 28         0.00053
       4 -> 32         0.00218
       4 -> 37         0.00288
       4 -> 43         0.00032
       4 -> 49        -0.00010
       4 -> 52         0.00047
       5 -> 16        -0.00180
       5 -> 18        -0.00032
       5 -> 23         0.00155
       5 -> 29        -0.00038
       5 -> 33         0.00011
       5 -> 36         0.00045
       5 -> 42         0.00047
       5 -> 47         0.00045
       5 -> 53         0.00019
       6 -> 27         0.00159
       6 -> 35        -0.00081
       6 -> 46        -0.00025
       7 -> 27         0.00041
       7 -> 35        -0.00015
       7 -> 46         0.00083
       8 -> 10        -0.10675
       8 -> 13         0.69836
       8 -> 17         0.01520
       8 -> 22        -0.02387
       8 -> 28         0.00256
       8 -> 32         0.00197
       8 -> 37        -0.00167
       8 -> 43        -0.00017
       8 -> 49        -0.00012
       8 -> 52         0.00051
       3 <- 27         0.00137
       3 <- 35         0.00140
       3 <- 46         0.00087
       4 <- 10         0.00033
       4 <- 13         0.00053
       4 <- 17        -0.00035
       4 <- 32        -0.00044
       4 <- 37         0.00099
       4 <- 43         0.00030
       4 <- 52         0.00015
       5 <- 11         0.00035
       5 <- 16        -0.00043
       5 <- 18        -0.00093
       5 <- 23         0.00282
       5 <- 24        -0.00093
       5 <- 29         0.00021
       5 <- 33        -0.00078
       5 <- 36         0.00148
       5 <- 42         0.00081
       5 <- 47         0.00022
       5 <- 53         0.00043
       6 <- 27         0.00215
       6 <- 35        -0.00019
       6 <- 46        -0.00033
       7 <- 27         0.00059
       7 <- 35        -0.00026
       7 <- 46         0.00046
       8 <- 10        -0.00732
       8 <- 13        -0.00278
       8 <- 17        -0.00156
       8 <- 22         0.00063
       8 <- 28        -0.00032
       8 <- 32         0.00170
       8 <- 37        -0.00134
       8 <- 52         0.00020

 Excited State   6:      Singlet-B2     9.7324 eV  127.39 nm  f=0.2014  <S**2>=0.000
       3 -> 11        -0.00039
       3 -> 16         0.00111
       3 -> 18        -0.00083
       3 -> 23         0.00078
       3 -> 24         0.00042

 The electronic state is 1-A1.
 Alpha  occ. eigenvalues --  -19.14131 -10.23818  -1.29791  -0.64200  -0.59823
 Alpha  occ. eigenvalues --   -0.58818  -0.53157  -0.23264
 Alpha virt. eigenvalues --    0.01366   0.02198   0.04432   0.04459   0.10191
 Alpha virt. eigenvalues --    0.14326   0.17678   0.20094   0.21806   0.24008
 Alpha virt. eigenvalues --    0.25620   0.36471   0.50354   0.53532   0.54764

 Mulliken charges:
               1
     1  C    0.266866
     2  H   -0.021309
     3  H   -0.021309
     4  O   -0.224249
 Sum of Mulliken charges =  -0.00000

 Dipole moment (field-independent basis, Debye):
    X=              0.0000    Y=             -0.0000    Z=             -0.1442  Tot=              0.1442
 Quadrupole moment (field-independent basis, Debye-Ang):
   XX=            -10.6442   YY=            -12.5781   ZZ=            -13.3274
   XY=             -0.0000   XZ=             -0.0000   YZ=             -0.0000

 Normal termination of Gaussian 16 at Fri Sep 17 10:52:29 2021.
