 Gaussian 16, Revision A.03,
 Gaussian 16:  ES64L-G16RevA.03 25-Dec-2016

 --------------------------------------------------------------------
 #p B3LYP/6-311+G** #p TD=(singlets,nstates=30)IOp(6/8=3) IOp(9/40=4)
 --------------------------------------------------------------------

 -------------------------------
 Scan Step 296, Bond Length 1.98
 -------------------------------
 Symbolic Z-matrix:
 Charge =  0 Multiplicity = 1

                         Standard orientation:
 ---------------------------------------------------------------------
 Center     Atomic      Atomic             Coordinates (Angstroms)
 Number     Number       Type             X           Y           Z
 ---------------------------------------------------------------------
      1          6           0        0.000000   -0.000000   -0.916081
      2          1           0        0.000000    0.937260   -1.507431
      3          1           0       -0.000000   -0.937260   -1.507431
      4          8           0        0.000000    0.000000    1.063919
 ---------------------------------------------------------------------

 SCF Done:  E(RB3LYP) =  -114.301875246     A.U. after   13 cycles

 Excitation energies and oscillator strengths:

 Excited State   1:      Singlet-A2     1.0072 eV 1230.93 nm  f=0.0000  <S**2>=0.000
       3 -> 27         0.00054
       3 -> 38         0.00030
       3 -> 47         0.00324
       4 -> 27         0.00026
       4 -> 47        -0.00074
       5 ->  9        -0.00031
       5 -> 14         0.00101
       5 -> 18         0.00120
       5 -> 23         0.00112
       5 -> 28         0.00084
       5 -> 37         0.00052
       5 -> 44         0.00015
       5 -> 52         0.00011
       6 -> 27        -0.00050
       6 -> 38        -0.00044
       6 -> 47         0.00074
       7 -> 12        -0.00149
       7 -> 16         0.00540
       7 -> 19        -0.00503
       7 -> 22        -0.00112
       7 -> 25        -0.00039
       7 -> 30        -0.00208
       7 -> 33         0.00024
       7 -> 49         0.00012
       7 -> 53         0.00034
       8 ->  9         0.71242
       8 -> 14        -0.00451
       8 -> 18         0.02004
       8 -> 23        -0.00017
       8 -> 28         0.00955
       8 -> 31         0.00153
       8 -> 37         0.00045
       8 -> 46        -0.00026
       8 -> 52         0.00176
       3 <- 38         0.00011
       3 <- 47         0.00326
       4 <- 27         0.00051
       4 <- 38         0.00015
       4 <- 47        -0.00055
       5 <-  9         0.00069
       5 <- 14        -0.00025
       5 <- 18        -0.00024
       5 <- 23         0.00012
       5 <- 28        -0.00020
       5 <- 31         0.00017
       5 <- 37         0.00030
       6 <- 38        -0.00032
       6 <- 47         0.00051
       7 <- 12         0.00240
       7 <- 16        -0.01037
       7 <- 19         0.00645
       7 <- 22         0.00481
       7 <- 25        -0.00062
       7 <- 30         0.00565
       7 <- 33        -0.00033
       7 <- 49        -0.00045
       7 <- 53         0.00142
       8 <-  9        -0.08852
       8 <- 14        -0.00084
       8 <- 18        -0.00810
       8 <- 23        -0.00051
       8 <- 28        -0.00281
       8 <- 31        -0.00086
       8 <- 37        -0.00013
       8 <- 46         0.00013
       8 <- 52         0.00039
 This state for optimization and/or second-order correction.
 Total Energy, E(TD-HF/TD-DFT) =  -114.264859987
 Copying the excited state density for this state as the 1-particle RhoCI density.

 Excited State   2:      Singlet-B2     2.5358 eV  488.93 nm  f=0.0010  <S**2>=0.000
       3 -> 12        -0.00095
       3 -> 16         0.00072
       3 -> 19        -0.00316
       3 -> 22         0.00113
       3 -> 25        -0.00086
       3 -> 30        -0.00204
       3 -> 33         0.00037
       3 -> 35         0.00090
       3 -> 40        -0.00098
       3 -> 42        -0.00021
       3 -> 49        -0.00411
       3 -> 51         0.00013
       3 -> 53         0.00021
       4 -> 12         0.00028
       4 -> 16        -0.00102
       4 -> 19         0.00023
       4 -> 22         0.00130
       4 -> 25         0.00035
       4 -> 30         0.00057
       4 -> 33        -0.00024
       4 -> 35         0.00037
       4 -> 40         0.00017
       4 -> 49         0.00070
       5 -> 10         0.00823
       5 -> 11         0.00073
       5 -> 13        -0.00175
       5 -> 15         0.00218
       5 -> 17        -0.00052
       5 -> 20         0.00171
       5 -> 21         0.00201
       5 -> 24         0.00116
       5 -> 26        -0.00011
       5 -> 29        -0.00193
       5 -> 32        -0.00045
       5 -> 39         0.00045
       5 -> 41         0.00030
       5 -> 48        -0.00023
       5 -> 50         0.00016
       5 -> 54        -0.00014
       6 -> 12         0.00231
       6 -> 16        -0.00295
       6 -> 19         0.00443
       6 -> 22        -0.00072
       6 -> 25         0.00115
       6 -> 30         0.00059
       6 -> 33        -0.00026
       6 -> 35        -0.00089
       6 -> 40         0.00052
       6 -> 42         0.00047
       6 -> 49         0.00083
       6 -> 53        -0.00043
       7 -> 27        -0.00039
       7 -> 38         0.00021
       7 -> 47         0.00245
       8 -> 10         0.70782
       8 -> 11         0.03749
       8 -> 13        -0.03521
       8 -> 15        -0.01580
       8 -> 17        -0.01646
       8 -> 20         0.00779
       8 -> 21         0.00405
       8 -> 24        -0.00450
       8 -> 26        -0.00318
       8 -> 29        -0.01379
       8 -> 32         0.00243
       8 -> 34        -0.00081
       8 -> 36         0.00197
       8 -> 39         0.00014
       8 -> 41        -0.00016
       8 -> 45        -0.00071
       8 -> 48        -0.00298
       8 -> 50         0.00093
       8 -> 54        -0.00253
       3 <- 12        -0.00032
       3 <- 16         0.00029
       3 <- 19        -0.00161
       3 <- 22         0.00083
       3 <- 25        -0.00078
       3 <- 30        -0.00084
       3 <- 33         0.00035
       3 <- 35         0.00052
       3 <- 40        -0.00085
       3 <- 49        -0.00415
       3 <- 51         0.00013
       3 <- 53         0.00060
       4 <- 12         0.00012
       4 <- 16        -0.00140
       4 <- 19         0.00019
       4 <- 22         0.00172
       4 <- 25         0.00013
       4 <- 30         0.00089
       4 <- 33        -0.00024
       4 <- 35         0.00051
       4 <- 49         0.00049
       5 <- 10        -0.00098
       5 <- 11        -0.00036
       5 <- 13        -0.00030
       5 <- 15         0.00183
       5 <- 17         0.00018
       5 <- 20         0.00073
       5 <- 21         0.00128
       5 <- 24         0.00124
       5 <- 29        -0.00043
       5 <- 32        -0.00018
       5 <- 39         0.00025
       5 <- 41         0.00032
       5 <- 45        -0.00015
       5 <- 48        -0.00026
       6 <- 12        -0.00130
       6 <- 16         0.00859
       6 <- 19        -0.00519
       6 <- 22        -0.00519
       6 <- 25         0.00143
       6 <- 30        -0.00636
       6 <- 33         0.00012
       6 <- 35        -0.00065
       6 <- 40         0.00049
       6 <- 42         0.00041
       6 <- 49         0.00139
       6 <- 53        -0.00146
       7 <- 27        -0.00041
       7 <- 38         0.00017
       7 <- 47         0.00215
       8 <- 10        -0.06565
       8 <- 11        -0.00687
       8 <- 13         0.00637
       8 <- 15         0.00228
       8 <- 17         0.00320
       8 <- 20        -0.00388
       8 <- 21        -0.00078
       8 <- 24         0.00126
       8 <- 26         0.00070
       8 <- 29         0.00335
       8 <- 32         0.00161
       8 <- 34         0.00071
       8 <- 36        -0.00099
       8 <- 39        -0.00065
       8 <- 41         0.00011
       8 <- 43         0.00022
       8 <- 45        -0.00131
       8 <- 48        -0.00253
       8 <- 50         0.00100
       8 <- 54        -0.00064

 Excited State   3:      Singlet-A1     2.6092 eV  475.18 nm  f=0.0173  <S**2>=0.000
       3 -> 10        -0.01051
       3 -> 11        -0.00166
       3 -> 13        -0.00031
       3 -> 17        -0.00274
       3 -> 20        -0.00294
       3 -> 21         0.00077
       3 -> 24        -0.00011
       3 -> 26         0.00041
       3 -> 29         0.00029
       3 -> 32         0.00242
       3 -> 34         0.00086
       3 -> 36        -0.00084
       3 -> 39        -0.00021
       3 -> 43         0.00037
       3 -> 45        -0.00141
       3 -> 48         0.00231
       3 -> 50         0.00170
       3 -> 54        -0.00015
       4 -> 10         0.00069
       4 -> 11         0.00822
       4 -> 13         0.00100
       4 -> 15        -0.00645
       4 -> 17         0.00173
       4 -> 20         0.00111
       4 -> 21         0.00014
       4 -> 24        -0.00341
       4 -> 26         0.00229
       4 -> 32        -0.00088
       4 -> 34        -0.00055
       4 -> 39        -0.00031
       4 -> 43        -0.00037
       4 -> 45         0.00071
       4 -> 48        -0.00059
       4 -> 50        -0.00019
       4 -> 54         0.00012
       5 -> 12         0.00675
       5 -> 16         0.00044
       5 -> 19         0.00083
       5 -> 22         0.00575
       5 -> 25        -0.00302
       5 -> 30         0.00029
       5 -> 33        -0.00211
       5 -> 35         0.00266
       5 -> 40        -0.00082
       5 -> 42        -0.00095
       5 -> 51        -0.00093
       6 -> 10         0.27002
       6 -> 11         0.02407
       6 -> 13        -0.02465
       6 -> 15        -0.01581
       6 -> 17        -0.01346
       6 -> 20         0.00050
       6 -> 21         0.00280
       6 -> 24        -0.00562
       6 -> 26        -0.00181
       6 -> 29        -0.00112
       6 -> 32         0.00483
       6 -> 34         0.00134
       6 -> 36         0.00089
       6 -> 39        -0.00164
       6 -> 43         0.00073
       6 -> 45        -0.00103
       6 -> 48         0.00061
       6 -> 50         0.00037
       6 -> 54        -0.00099
       7 ->  9         0.67145
       7 -> 14        -0.00860
       7 -> 18        -0.00722
       7 -> 23        -0.00327
       7 -> 28         0.00193
       7 -> 31        -0.00330
       7 -> 37         0.00135
       7 -> 44        -0.00094
       7 -> 52         0.00104
       8 -> 12        -0.00655
       8 -> 16         0.02550
       8 -> 19        -0.01544
       8 -> 22        -0.00782
       8 -> 30        -0.00627
       8 -> 33         0.00066
       8 -> 35        -0.00029
       8 -> 42         0.00011
       8 -> 49        -0.00015
       8 -> 51         0.00011
       8 -> 53        -0.00045
       3 <- 10        -0.00898
       3 <- 11        -0.00173
       3 <- 13        -0.00034
       3 <- 15        -0.00046
       3 <- 17        -0.00167
       3 <- 20        -0.00276
       3 <- 21         0.00038
       3 <- 24        -0.00049
       3 <- 26        -0.00031
       3 <- 29         0.00052
       3 <- 32         0.00201
       3 <- 34         0.00044
       3 <- 36        -0.00093
       3 <- 39        -0.00013
       3 <- 43         0.00038
       3 <- 45        -0.00148
       3 <- 48         0.00230
       3 <- 50         0.00172
       4 <- 10         0.00163
       4 <- 11         0.00656
       4 <- 13         0.00104
       4 <- 15        -0.00477
       4 <- 17         0.00114
       4 <- 20         0.00178
       4 <- 24        -0.00275
       4 <- 26         0.00215
       4 <- 29        -0.00040
       4 <- 32        -0.00081
       4 <- 34        -0.00048
       4 <- 36         0.00015
       4 <- 39        -0.00036
       4 <- 41         0.00010
       4 <- 43        -0.00033
       4 <- 45         0.00061
       4 <- 48        -0.00034
       5 <- 12         0.00462
       5 <- 16         0.00039
       5 <- 19         0.00074
       5 <- 22         0.00445
       5 <- 25        -0.00252
       5 <- 30         0.00029
       5 <- 33        -0.00183
       5 <- 35         0.00237
       5 <- 40        -0.00076
       5 <- 42        -0.00087
       5 <- 51        -0.00088
       6 <- 10         0.09722
       6 <- 11         0.01152
       6 <- 13        -0.01344
       6 <- 15        -0.00948
       6 <- 17        -0.00899
       6 <- 20        -0.00099
       6 <- 21         0.00225
       6 <- 24        -0.00388
       6 <- 26        -0.00065
       6 <- 29        -0.00018
       6 <- 32         0.00447
       6 <- 34         0.00149
       6 <- 36         0.00044
       6 <- 39        -0.00147
       6 <- 43         0.00063
       6 <- 45        -0.00075
       6 <- 48         0.00034
       6 <- 50         0.00023
       6 <- 54        -0.00093
       7 <-  9        -0.12758
       7 <- 14         0.00148
       7 <- 18        -0.00976
       7 <- 23        -0.00033
       7 <- 28        -0.00085
       7 <- 31        -0.00154
       7 <- 37         0.00066
       7 <- 44        -0.00088
       7 <- 46        -0.00047
       7 <- 52         0.00098
       8 <- 12        -0.00338
       8 <- 16         0.01495
       8 <- 19        -0.01016
       8 <- 22        -0.00569
       8 <- 25         0.00011
       8 <- 30        -0.00529
       8 <- 33         0.00055
       8 <- 35        -0.00021
       8 <- 49        -0.00024
       8 <- 53        -0.00043

 Excited State   4:      Singlet-B1     2.8126 eV  440.82 nm  f=0.0003  <S**2>=0.000
       3 ->  9        -0.01550
       3 -> 14         0.00039
       3 -> 18        -0.00311
       3 -> 23         0.00097
       3 -> 28        -0.00146
       3 -> 31        -0.00113
       3 -> 37         0.00016
       3 -> 46        -0.00181
       3 -> 52         0.00039
       4 ->  9        -0.00623
       4 -> 14         0.00102
       4 -> 18         0.00025
       4 -> 23         0.00083
       4 -> 28         0.00060
       4 -> 31        -0.00064
       4 -> 46         0.00022
       5 -> 27        -0.00229
       5 -> 38        -0.00034
       5 -> 47         0.00025
       6 ->  9         0.39550
       6 -> 14        -0.01082
       6 -> 18         0.01060
       6 -> 23        -0.00675
       6 -> 28         0.00372
       6 -> 44        -0.00067
       6 -> 46         0.00180
       6 -> 52         0.00019
       7 -> 10         0.59262
       7 -> 11         0.03191
       7 -> 13        -0.03134
       7 -> 15        -0.01615
       7 -> 17        -0.01324
       7 -> 20         0.00499
       7 -> 21         0.00239
       7 -> 24        -0.00617
       7 -> 26        -0.00433
       7 -> 29        -0.00887
       7 -> 32         0.00213
       7 -> 34        -0.00096
       7 -> 36         0.00091
       7 -> 41        -0.00012
       7 -> 43         0.00042
       7 -> 45        -0.00113
       7 -> 48         0.00261
       7 -> 50         0.00075
       7 -> 54        -0.00134
       8 -> 27         0.00012
       8 -> 47         0.00316
       3 <-  9        -0.00518
       3 <- 14        -0.00038
       3 <- 18        -0.00198
       3 <- 28        -0.00095
       3 <- 31        -0.00060
       3 <- 44        -0.00022
       3 <- 46        -0.00177
       3 <- 52         0.00057
       4 <-  9        -0.00303
       4 <- 14         0.00095
       4 <- 18         0.00096
       4 <- 23         0.00078
       4 <- 28         0.00127
       4 <- 31        -0.00050
       4 <- 44        -0.00037
       5 <- 27        -0.00216
       5 <- 38        -0.00025
       5 <- 47         0.00025
       6 <-  9        -0.06862
       6 <- 14         0.00231
       6 <- 18        -0.00715
       6 <- 23         0.00100
       6 <- 28        -0.00415
       6 <- 31        -0.00267
       6 <- 37         0.00037
       6 <- 44         0.00054
       6 <- 46         0.00186
       6 <- 52        -0.00089
       7 <- 10        -0.07591
       7 <- 11        -0.00802
       7 <- 13         0.01002
       7 <- 15         0.00444
       7 <- 17         0.00397
       7 <- 20        -0.00119
       7 <- 21        -0.00247
       7 <- 24         0.00222
       7 <- 26         0.00149
       7 <- 29         0.00248
       7 <- 34        -0.00014
       7 <- 36        -0.00051
       7 <- 39        -0.00027
       7 <- 41         0.00023
       7 <- 43         0.00022
       7 <- 45        -0.00082
       7 <- 48         0.00240
       7 <- 50         0.00106
       8 <- 27         0.00037
       8 <- 47         0.00287

 Excited State   5:      Singlet-B1     3.4232 eV  362.19 nm  f=0.0048  <S**2>=0.000
       3 ->  9        -0.00814
       3 -> 14         0.00034
       3 -> 18        -0.00018
       3 -> 23         0.00030
       3 -> 28         0.00138
       3 -> 31         0.00064
       3 -> 44         0.00046
       3 -> 46         0.00306
       3 -> 52         0.00046
       4 ->  9         0.02755
       4 -> 14        -0.00562
       4 -> 18        -0.00047
       4 -> 23        -0.00449
       4 -> 28        -0.00016
       4 -> 31        -0.00093
       4 -> 37        -0.00034
       4 -> 44         0.00037
       4 -> 46        -0.00087
       4 -> 52        -0.00020
       5 -> 27         0.00522
       5 -> 38         0.00378
       6 ->  9         0.58945
       6 -> 14        -0.01144
       6 -> 18         0.00563
       6 -> 23        -0.00746
       6 -> 28        -0.00090
       6 -> 31         0.00451
       6 -> 37        -0.00289
       6 -> 44        -0.00147
       6 -> 46         0.00207
       6 -> 52         0.00108
       7 -> 10        -0.38912
       7 -> 11        -0.01517
       7 -> 13         0.01617
       7 -> 15         0.01493
       7 -> 17         0.00265
       7 -> 20         0.00246
       7 -> 21        -0.00066
       7 -> 24         0.00498
       7 -> 26         0.00218
       7 -> 29         0.00449
       7 -> 34         0.00291
       7 -> 36         0.00150
       7 -> 39        -0.00057
       7 -> 43        -0.00019
       7 -> 45         0.00032
       7 -> 48         0.00119
       7 -> 50         0.00060
       7 -> 54         0.00131
       8 -> 27        -0.00037
       8 -> 38        -0.00015
       8 -> 47         0.00138
       3 <-  9        -0.00262
       3 <- 14        -0.00099
       3 <- 18        -0.00054
       3 <- 23        -0.00064
       3 <- 28         0.00112
       3 <- 31        -0.00034
       3 <- 37         0.00034
       3 <- 44         0.00043
       3 <- 46         0.00314
       3 <- 52         0.00016
       4 <-  9         0.01545
       4 <- 14        -0.00299
       4 <- 18         0.00042
       4 <- 23        -0.00304
       4 <- 31        -0.00073
       4 <- 37        -0.00029
       4 <- 44         0.00039
       4 <- 46        -0.00055
       4 <- 52        -0.00014
       5 <- 27         0.00385
       5 <- 38         0.00328
       6 <-  9         0.00161
       6 <- 14         0.00188
       6 <- 23        -0.00021
       6 <- 28        -0.00210
       6 <- 31         0.00446
       6 <- 37        -0.00273
       6 <- 44        -0.00084
       6 <- 46         0.00132
       6 <- 52         0.00103
       7 <- 10        -0.01820
       7 <- 11        -0.00281
       7 <- 13         0.00515
       7 <- 15         0.00830
       7 <- 17         0.00134
       7 <- 20         0.00478
       7 <- 21        -0.00047
       7 <- 24         0.00417
       7 <- 26         0.00129
       7 <- 29         0.00113
       7 <- 32        -0.00120
       7 <- 34         0.00210
       7 <- 36         0.00225
       7 <- 39        -0.00031
       7 <- 43        -0.00030
       7 <- 45         0.00047
       7 <- 48         0.00124
       7 <- 50         0.00092
       7 <- 54         0.00114
       8 <- 47         0.00151

 Excited State   6:      Singlet-A2     6.6602 eV  186.16 nm  f=0.0000  <S**2>=0.000
       3 -> 27        -0.00089
       3 -> 38        -0.00023
       4 -> 27        -0.00605
       4 -> 38         0.00045
       4 -> 47        -0.00015
       5 ->  9         0.70640
       5 -> 14        -0.02542

 The electronic state is 1-A1.
 Alpha  occ. eigenvalues --  -19.17821 -10.34423  -0.87882  -0.72204  -0.49551
 Alpha  occ. eigenvalues --   -0.37247  -0.29681  -0.28488
 Alpha virt. eigenvalues --   -0.18368  -0.11094  -0.00370   0.04020   0.06027
 Alpha virt. eigenvalues --    0.06080   0.11413   0.12772   0.18531   0.20789
 Alpha virt. eigenvalues --    0.23839   0.30397   0.38472   0.38971   0.50326

 Mulliken charges:
               1
     1  C   -0.113275
     2  H    0.195386
     3  H    0.195386
     4  O   -0.277496
 Sum of Mulliken charges =  -0.00000

 Dipole moment (field-independent basis, Debye):
    X=             -0.0000    Y=              0.0000    Z=             -4.4169  Tot=              4.4169
 Quadrupole moment (field-independent basis, Debye-Ang):
   XX=            -13.1398   YY=            -12.1301   ZZ=            -10.2000
   XY=              0.0000   XZ=              0.0000   YZ=              0.0000

 Normal termination of Gaussian 16 at Fri Sep 17 10:53:21 2021.
