 Gaussian 16, Revision A.03,
 Gaussian 16:  ES64L-G16RevA.03 25-Dec-2016

 --------------------------------------------------------------------
 #p B3LYP/6-311+G** #p TD=(singlets,nstates=30)IOp(6/8=3) IOp(9/40=4)
 --------------------------------------------------------------------

 -------------------------------
 Scan Step 51, Bond Length 0.755
 -------------------------------
 Symbolic Z-matrix:
 Charge =  0 Multiplicity = 1

                         Standard orientation:
 ---------------------------------------------------------------------
 Center     Atomic      Atomic             Coordinates (Angstroms)
 Number     Number       Type             X           Y           Z
 ---------------------------------------------------------------------
      1          6           0        0.000000   -0.000000   -0.303581
      2          1           0        0.000000    0.937260   -0.894931
      3          1           0       -0.000000   -0.937260   -0.894931
      4          8           0        0.000000    0.000000    0.451419
 ---------------------------------------------------------------------

 SCF Done:  E(RB3LYP) =  -113.547581353     A.U. after    9 cycles

 Excitation energies and oscillator strengths:

 Excited State   1:      Singlet-B2     5.2322 eV  236.96 nm  f=0.1093  <S**2>=0.000
       3 -> 11         0.00077
       3 -> 16         0.00046
       3 -> 19         0.00082
       3 -> 23         0.00024
       3 -> 24        -0.00101
       3 -> 29        -0.00022
       3 -> 32        -0.00012
       3 -> 40         0.00013
       3 -> 43         0.00019
       3 -> 50        -0.00013
       3 -> 53         0.00013
       4 ->  9        -0.00282
       4 -> 12         0.00424
       4 -> 14         0.00411
       4 -> 15         0.00162
       4 -> 18         0.00334
       4 -> 20         0.00181
       4 -> 21         0.00201
       4 -> 25         0.00151
       4 -> 26        -0.00082
       4 -> 30        -0.00094
       4 -> 31         0.00146
       4 -> 34         0.00043
       4 -> 38         0.00076
       4 -> 41        -0.00052
       4 -> 44        -0.00036
       4 -> 46        -0.00073
       4 -> 49         0.00028
       5 -> 28         0.00151
       5 -> 35         0.00062
       5 -> 45         0.00085
       6 -> 11        -0.00693
       6 -> 16         0.00215
       6 -> 19         0.00049
       6 -> 23        -0.00161
       6 -> 24        -0.00445
       6 -> 29        -0.00088
       6 -> 32        -0.00103
       6 -> 36         0.00064
       6 -> 43         0.00033
       6 -> 47         0.00014
       7 -> 11         0.00481
       7 -> 16         0.00402
       7 -> 19         0.00290
       7 -> 23        -0.00085
       7 -> 24        -0.00197
       7 -> 29         0.00058
       7 -> 32         0.00039
       7 -> 36        -0.00053
       7 -> 43        -0.00040
       7 -> 47         0.00046
       7 -> 50         0.00046
       7 -> 53        -0.00012
       8 ->  9         0.70582
       8 -> 12        -0.00058
       8 -> 14         0.03725
       8 -> 15        -0.00913
       8 -> 18        -0.02151
       8 -> 20         0.00611
       8 -> 21         0.00943
       8 -> 25        -0.00034
       8 -> 30        -0.00137
       8 -> 31        -0.00315
       8 -> 34        -0.00123
       8 -> 38         0.00108
       8 -> 39         0.00031
       8 -> 41        -0.00068
       8 -> 44         0.00019
       8 -> 46         0.00091
       8 -> 49        -0.00033
       8 -> 51         0.00011
       8 -> 54         0.00010
       3 <- 11         0.00029
       3 <- 16         0.00013
       3 <- 19         0.00053
       3 <- 23         0.00016
       3 <- 24        -0.00076
       3 <- 29        -0.00020
       3 <- 32        -0.00013
       3 <- 40         0.00014
       3 <- 43         0.00017
       3 <- 53         0.00014
       4 <-  9        -0.00158
       4 <- 12        -0.00023
       4 <- 14         0.00335
       4 <- 15         0.00189
       4 <- 18         0.00079
       4 <- 20         0.00091
       4 <- 21         0.00144
       4 <- 25         0.00146
       4 <- 26        -0.00127
       4 <- 30        -0.00029
       4 <- 31         0.00055
       4 <- 34         0.00027
       4 <- 38         0.00048
       4 <- 39         0.00016
       4 <- 41        -0.00044
       4 <- 44        -0.00028
       4 <- 46        -0.00065
       4 <- 49         0.00022
       5 <- 28         0.00123
       5 <- 35         0.00049
       5 <- 45         0.00072
       6 <- 11        -0.00074
       6 <- 16         0.00221
       6 <- 19         0.00148
       6 <- 23        -0.00072
       6 <- 24        -0.00341
       6 <- 29        -0.00062
       6 <- 32        -0.00084
       6 <- 36         0.00055
       6 <- 43         0.00018
       6 <- 47         0.00010
       7 <- 11         0.00099
       7 <- 16         0.00222
       7 <- 19         0.00050
       7 <- 23        -0.00031
       7 <- 24        -0.00081
       7 <- 29         0.00117
       7 <- 32         0.00026
       7 <- 36        -0.00024
       7 <- 43        -0.00030
       7 <- 47         0.00047
       7 <- 50         0.00053
       8 <-  9        -0.00646
       8 <- 12        -0.00395
       8 <- 14         0.01707
       8 <- 15         0.00454
       8 <- 18         0.00143
       8 <- 20         0.00010
       8 <- 21         0.00479
       8 <- 25         0.00316
       8 <- 26         0.00044
       8 <- 30        -0.00100
       8 <- 31        -0.00188
       8 <- 34        -0.00147
       8 <- 38         0.00104
       8 <- 39         0.00026
       8 <- 41        -0.00053
       8 <- 46         0.00074
       8 <- 49        -0.00027
 This state for optimization and/or second-order correction.
 Total Energy, E(TD-HF/TD-DFT) =  -113.355301165
 Copying the excited state density for this state as the 1-particle RhoCI density.

 Excited State   2:      Singlet-A2     5.4364 eV  228.06 nm  f=0.0000  <S**2>=0.000
       3 -> 28        -0.00211
       3 -> 35        -0.00146
       3 -> 45        -0.00061
       4 -> 10        -0.00174
       4 -> 13        -0.00346
       4 -> 17        -0.00476
       4 -> 22         0.00255
       4 -> 27        -0.00246
       4 -> 33        -0.00044
       4 -> 37        -0.00210
       4 -> 42        -0.00026
       4 -> 48        -0.00012
       4 -> 52        -0.00040
       5 -> 11         0.00039
       5 -> 19         0.00038
       5 -> 23        -0.00122
       5 -> 24        -0.00010
       5 -> 32        -0.00016
       5 -> 36        -0.00039
       5 -> 43        -0.00043
       5 -> 47        -0.00047
       5 -> 50         0.00019
       5 -> 53        -0.00014
       6 -> 28        -0.00368
       6 -> 35         0.00056
       6 -> 45         0.00026
       7 -> 45        -0.00064
       8 -> 10         0.70404
       8 -> 13         0.05892
       8 -> 17         0.02970
       8 -> 22         0.00055
       8 -> 27         0.00284
       8 -> 33         0.00317
       8 -> 37        -0.00222
       8 -> 48         0.00011
       8 -> 52         0.00051
       3 <- 28        -0.00168
       3 <- 35        -0.00126
       3 <- 45        -0.00060
       4 <- 10        -0.00018
       4 <- 13        -0.00096
       4 <- 17        -0.00059
       4 <- 27        -0.00024
       4 <- 33         0.00087
       4 <- 37        -0.00107
       4 <- 42        -0.00032
       5 <- 11         0.00075
       5 <- 16        -0.00076
       5 <- 19         0.00207
       5 <- 23        -0.00220
       5 <- 24        -0.00153
       5 <- 29        -0.00141
       5 <- 32         0.00040
       5 <- 36        -0.00107
       5 <- 43        -0.00054
       5 <- 47        -0.00042
       5 <- 53        -0.00038
       6 <- 28        -0.00374
       6 <- 35         0.00065
       6 <- 45         0.00027
       7 <- 45        -0.00059
       8 <- 10        -0.00105
       8 <- 13        -0.00717
       8 <- 17        -0.00519
       8 <- 22         0.00023
       8 <- 27        -0.00041
       8 <- 33         0.00302
       8 <- 37        -0.00183
       8 <- 42         0.00012
       8 <- 52         0.00017

 Excited State   3:      Singlet-B2     6.0861 eV  203.72 nm  f=0.0289  <S**2>=0.000
       3 -> 11        -0.00011
       3 -> 16         0.00053
       3 -> 19        -0.00021
       3 -> 23         0.00025
       3 -> 24        -0.00042
       3 -> 29         0.00060
       3 -> 32         0.00013
       3 -> 36        -0.00025
       3 -> 43        -0.00025
       3 -> 47         0.00017
       3 -> 50         0.00015
       3 -> 53        -0.00014
       4 ->  9         0.00288
       4 -> 12         0.00034
       4 -> 14         0.00174
       4 -> 15         0.00324
       4 -> 18        -0.00206
       4 -> 20        -0.00022
       4 -> 21         0.00139
       4 -> 25         0.00082
       4 -> 26         0.00088
       4 -> 30        -0.00149
       4 -> 31        -0.00180
       4 -> 34        -0.00017
       4 -> 38        -0.00012
       4 -> 39        -0.00094
       4 -> 41         0.00041
       4 -> 46         0.00060
       4 -> 49        -0.00022
       4 -> 51        -0.00013
       5 -> 28        -0.00097
       5 -> 35        -0.00130
       5 -> 45        -0.00082
       6 -> 11         0.00109
       6 -> 16         0.00496
       6 -> 19        -0.00043
       6 -> 23        -0.00061
       6 -> 24        -0.00343
       6 -> 29        -0.00168
       6 -> 32         0.00051
       6 -> 36         0.00029
       6 -> 40        -0.00035
       6 -> 43         0.00019
       7 -> 11        -0.00274
       7 -> 16        -0.00204
       7 -> 19        -0.00213
       7 -> 23         0.00109
       7 -> 24         0.00180
       7 -> 29         0.00010
       7 -> 32        -0.00028
       7 -> 36         0.00091
       7 -> 40        -0.00023
       7 -> 43         0.00041
       7 -> 47        -0.00066
       7 -> 50        -0.00045
       7 -> 53         0.00018
       8 ->  9         0.00011
       8 -> 12         0.70592
       8 -> 14         0.02491
       8 -> 15         0.02637
       8 -> 18         0.01190
       8 -> 20         0.01579
       8 -> 21         0.00460
       8 -> 25        -0.00070
       8 -> 26         0.00132
       8 -> 30        -0.00216
       8 -> 31        -0.00051
       8 -> 34        -0.00031
       8 -> 39         0.00127
       8 -> 41        -0.00093
       8 -> 46        -0.00061
       8 -> 49         0.00026
       8 -> 54        -0.00015
       3 <- 11         0.00013
       3 <- 16         0.00053
       3 <- 24        -0.00047
       3 <- 29         0.00040
       3 <- 32         0.00014
       3 <- 36        -0.00026
       3 <- 43        -0.00022
       3 <- 47         0.00013
       3 <- 53        -0.00022
       4 <-  9        -0.00131
       4 <- 14         0.00152
       4 <- 15         0.00069
       4 <- 18         0.00064
       4 <- 20        -0.00042
       4 <- 21         0.00095
       4 <- 25         0.00094
       4 <- 26         0.00084
       4 <- 30        -0.00120
       4 <- 31        -0.00074
       4 <- 34        -0.00070
       4 <- 39        -0.00071
       4 <- 41         0.00041
       4 <- 46         0.00059
       4 <- 49        -0.00012
       4 <- 51        -0.00012
       5 <- 28        -0.00054
       5 <- 35        -0.00110
       5 <- 45        -0.00072
       6 <- 16         0.00115
       6 <- 19         0.00078
       6 <- 23        -0.00097
       6 <- 24        -0.00212
       6 <- 29        -0.00099
       6 <- 32         0.00062
       6 <- 36         0.00045
       6 <- 40        -0.00033
       6 <- 43         0.00010
       7 <- 11        -0.00031
       7 <- 16        -0.00083
       7 <- 19        -0.00037
       7 <- 23         0.00037
       7 <- 24         0.00074
       7 <- 29        -0.00038
       7 <- 32        -0.00012
       7 <- 36         0.00054
       7 <- 40        -0.00017
       7 <- 43         0.00029
       7 <- 47        -0.00058
       7 <- 50        -0.00048
       8 <-  9        -0.00364
       8 <- 12         0.00134
       8 <- 14         0.00928
       8 <- 15         0.00313
       8 <- 18        -0.00133
       8 <- 20        -0.00265
       8 <- 21         0.00319
       8 <- 25         0.00062
       8 <- 26        -0.00033
       8 <- 30        -0.00187
       8 <- 31        -0.00070
       8 <- 38        -0.00011
       8 <- 39         0.00103
       8 <- 41        -0.00080
       8 <- 46        -0.00050
       8 <- 49         0.00012

 Excited State   4:      Singlet-A1     6.2347 eV  198.86 nm  f=0.0217  <S**2>=0.000
       3 ->  9         0.00121
       3 -> 12        -0.00060
       3 -> 14         0.00012
       3 -> 15        -0.00064
       3 -> 18        -0.00139
       3 -> 21         0.00059
       3 -> 25        -0.00044
       3 -> 26        -0.00020
       3 -> 30         0.00098
       3 -> 31        -0.00020
       3 -> 34         0.00030
       3 -> 38        -0.00031
       3 -> 39         0.00031
       3 -> 46        -0.00010
       3 -> 51         0.00022
       3 -> 54        -0.00017
       4 -> 11        -0.00667
       4 -> 16        -0.00752
       4 -> 19        -0.00483
       4 -> 23        -0.00188
       4 -> 24         0.00348
       4 -> 29        -0.00066
       4 -> 32         0.00012
       4 -> 36        -0.00103
       4 -> 43         0.00028
       4 -> 50         0.00029
       5 -> 10        -0.00489
       5 -> 13         0.00276
       5 -> 17        -0.00427
       5 -> 22        -0.00344
       5 -> 27        -0.00102
       5 -> 33        -0.00093
       5 -> 37        -0.00057
       5 -> 42        -0.00027
       5 -> 48         0.00031
       6 ->  9         0.00813
       6 -> 12         0.01013
       6 -> 14        -0.00563
       6 -> 15        -0.00405
       6 -> 18        -0.00374
       6 -> 20         0.00667
       6 -> 21        -0.00032
       6 -> 25        -0.00661
       6 -> 26         0.00123
       6 -> 30        -0.00076
       6 -> 31         0.00128
       6 -> 34         0.00155
       6 -> 38        -0.00085
       6 -> 39        -0.00123
       6 -> 44         0.00046
       6 -> 46         0.00012
       6 -> 49         0.00042
       7 ->  9         0.01089
       7 -> 12        -0.00823
       7 -> 14        -0.00033
       7 -> 15         0.00205
       7 -> 18        -0.00862
       7 -> 20        -0.00063
       7 -> 21         0.00011
       7 -> 25        -0.00031
       7 -> 26        -0.00138
       7 -> 30         0.00023
       7 -> 31        -0.00124
       7 -> 34         0.00076
       7 -> 44        -0.00011
       7 -> 49         0.00016
       7 -> 51        -0.00026
       8 -> 11         0.70509
       8 -> 16         0.04788
       8 -> 19        -0.01451
       8 -> 23         0.00083
       8 -> 24        -0.00366
       8 -> 29         0.00414
       8 -> 32         0.00174
       8 -> 36        -0.00295
       8 -> 40         0.00025
       8 -> 43         0.00171
       8 -> 47        -0.00067
       3 <-  9         0.00059
       3 <- 12        -0.00028
       3 <- 15        -0.00037
       3 <- 18        -0.00085
       3 <- 21         0.00034
       3 <- 25        -0.00038
       3 <- 26        -0.00017
       3 <- 30         0.00065
       3 <- 34         0.00027
       3 <- 38        -0.00022
       3 <- 39         0.00027
       3 <- 46        -0.00015
       3 <- 51         0.00019
       3 <- 54        -0.00015
       4 <- 11        -0.00250
       4 <- 16        -0.00282
       4 <- 19        -0.00264
       4 <- 23        -0.00143
       4 <- 24         0.00185
       4 <- 29        -0.00031
       4 <- 32         0.00022
       4 <- 36        -0.00087
       4 <- 43         0.00025
       4 <- 50         0.00025
       5 <- 10        -0.00234
       5 <- 13         0.00139
       5 <- 17        -0.00235
       5 <- 22        -0.00225
       5 <- 27        -0.00071
       5 <- 33        -0.00074
       5 <- 37        -0.00048
       5 <- 42        -0.00023
       5 <- 48         0.00028
       6 <-  9         0.00723
       6 <- 12         0.00439
       6 <- 14        -0.00438
       6 <- 15        -0.00340
       6 <- 18        -0.00218
       6 <- 20         0.00375
       6 <- 21         0.00064
       6 <- 25        -0.00428
       6 <- 26         0.00067
       6 <- 30        -0.00011
       6 <- 31         0.00119
       6 <- 34         0.00113
       6 <- 38        -0.00091
       6 <- 39        -0.00097
       6 <- 44         0.00048
       6 <- 46         0.00013
       6 <- 49         0.00034
       7 <-  9         0.00319
       7 <- 12        -0.00287
       7 <- 14         0.00026
       7 <- 15         0.00129
       7 <- 18        -0.00403
       7 <- 20        -0.00013
       7 <- 25        -0.00018
       7 <- 26        -0.00081
       7 <- 30         0.00016
       7 <- 31        -0.00096
       7 <- 34         0.00052
       7 <- 44        -0.00012
       7 <- 46         0.00012
       7 <- 49         0.00010
       7 <- 51        -0.00024
       8 <- 11        -0.00657
       8 <- 16         0.00473
       8 <- 19        -0.01380
       8 <- 23        -0.00290
       8 <- 29         0.00263
       8 <- 32         0.00149
       8 <- 36        -0.00226
       8 <- 43         0.00137
       8 <- 47        -0.00070

 Excited State   5:      Singlet-A2     7.8041 eV  158.87 nm  f=0.0000  <S**2>=0.000
       3 -> 28        -0.00261
       3 -> 35        -0.00190
       3 -> 45        -0.00076
       4 -> 10        -0.00307
       4 -> 13        -0.00972
       4 -> 17        -0.00065
       4 -> 22         0.00333
       4 -> 27        -0.00076
       4 -> 33        -0.00172
       4 -> 37        -0.00308
       4 -> 42        -0.00021
       4 -> 52        -0.00047
       5 -> 16         0.00121
       5 -> 19         0.00038
       5 -> 23        -0.00170
       5 -> 24        -0.00035
       5 -> 29         0.00026
       5 -> 32        -0.00012
       5 -> 36        -0.00051
       5 -> 43        -0.00061
       5 -> 47        -0.00054
       5 -> 50         0.00010
       5 -> 53        -0.00019
       6 -> 28        -0.00268
       6 -> 35         0.00085
       7 -> 35        -0.00013
       7 -> 45        -0.00081
       8 -> 10        -0.06032
       8 -> 13         0.70324
       8 -> 17         0.03500
       8 -> 22        -0.02305
       8 -> 27         0.00307
       8 -> 33         0.00254
       8 -> 37        -0.00252
       8 -> 52         0.00052
       3 <- 28        -0.00175
       3 <- 35        -0.00157
       3 <- 45        -0.00084
       4 <- 10        -0.00034
       4 <- 13        -0.00081
       4 <- 33         0.00062
       4 <- 37        -0.00113
       4 <- 42        -0.00036
       4 <- 52        -0.00015
       5 <- 11        -0.00028
       5 <- 16         0.00036
       5 <- 19         0.00093
       5 <- 23        -0.00262
       5 <- 24        -0.00154
       5 <- 29        -0.00039
       5 <- 32         0.00075
       5 <- 36        -0.00148
       5 <- 43        -0.00085
       5 <- 47        -0.00025
       5 <- 53        -0.00042
       6 <- 28        -0.00310
       6 <- 35         0.00041
       6 <- 45         0.00024
       7 <- 35         0.00015
       7 <- 45        -0.00048
       8 <- 10        -0.00686
       8 <- 13        -0.00421
       8 <- 17        -0.00285
       8 <- 22         0.00072
       8 <- 27        -0.00043
       8 <- 33         0.00262
       8 <- 37        -0.00171
       8 <- 42         0.00014
       8 <- 52         0.00020

 Excited State   6:      Singlet-B2     9.3428 eV  132.71 nm  f=0.1024  <S**2>=0.000
       3 -> 11         0.00037
       3 -> 16        -0.00075
       3 -> 19         0.00077
       3 -> 23        -0.00038
       3 -> 24         0.00025
       3 -> 29        -0.00066
       3 -> 32         0.00054
       3 -> 36         0.00010
       3 -> 40        -0.00039
       3 -> 43        -0.00029
       3 -> 47        -0.00021
       4 ->  9         0.00410
       4 -> 12        -0.00480
       4 -> 14        -0.01012

 The electronic state is 1-A1.
 Alpha  occ. eigenvalues --  -19.15666 -10.25934  -1.32689  -0.70742  -0.67096
 Alpha  occ. eigenvalues --   -0.57839  -0.54732  -0.21752
 Alpha virt. eigenvalues --    0.01172   0.02743   0.04438   0.04569   0.12525
 Alpha virt. eigenvalues --    0.14429   0.17651   0.19367   0.21700   0.24592
 Alpha virt. eigenvalues --    0.25506   0.36548   0.50601   0.55527   0.56402

 Mulliken charges:
               1
     1  C    0.332885
     2  H   -0.061083
     3  H   -0.061083
     4  O   -0.210718
 Sum of Mulliken charges =   0.00000

 Dipole moment (field-independent basis, Debye):
    X=              0.0000    Y=              0.0000    Z=              0.5269  Tot=              0.5269
 Quadrupole moment (field-independent basis, Debye-Ang):
   XX=            -10.4182   YY=            -13.0659   ZZ=            -13.5031
   XY=             -0.0000   XZ=             -0.0000   YZ=              0.0000

 Normal termination of Gaussian 16 at Fri Sep 17 10:52:23 2021.
