 Gaussian 16, Revision C.01,
 Gaussian 16:  ES64L-G16RevC.01  3-Jul-2019

 ----------------------------------------
 #P wB97XD/6-311+G* NoSymm #P Field=Z-116
 ----------------------------------------

 -------
 TitleMe
 -------
 Symbolic Z-matrix:
 Charge =  1 Multiplicity = 1

                          Input orientation:
 ---------------------------------------------------------------------
 Center     Atomic      Atomic             Coordinates (Angstroms)
 Number     Number       Type             X           Y           Z
 ---------------------------------------------------------------------
      1          6           0        0.519300    1.233000   -0.031900
      2          6           0        1.944500    1.269200   -0.036700
      3          6           0        2.620400    0.092800   -0.025000
      4          6           0       -0.196000    0.030100    0.001000
      5          1           0       -0.020700    2.174200   -0.043400
      6          1           0        2.482800    2.208900   -0.036100
      7          1           0       -1.277700    0.039900    0.011700
      8          7           0        4.092100    0.095900    0.036600
      9          8           0        4.639300   -1.021700    0.144600
     10          8           0        4.664900    1.198400   -0.023300
     11          6           0        0.494300   -1.167100    0.021000
     12          1           0       -0.032500   -2.114900    0.054500
     13          6           0        1.962900   -1.216500   -0.021100
     14          1           0        2.443600   -1.963100    0.615100
     15         35           0        2.173000   -1.949100   -1.906200
 ---------------------------------------------------------------------

 SCF Done:  E(RwB97XD) =  -3010.53322284     A.U. after   19 cycles

 Alpha  occ. eigenvalues -- -483.33039 -62.88087 -56.67747 -56.67222 -56.67216
 Alpha  occ. eigenvalues --  -19.46509 -19.46470 -14.85946 -10.59832 -10.59074
 Alpha  occ. eigenvalues --  -10.57940 -10.57720 -10.53980 -10.53309  -9.03910
 Alpha  occ. eigenvalues --   -6.86501  -6.84767  -6.84748  -2.96426  -2.95966
 Alpha  occ. eigenvalues --   -2.95949  -2.94561  -2.94560  -1.50183  -1.33134
 Alpha  occ. eigenvalues --   -1.23169  -1.13795  -1.13120  -1.06094  -1.01019
 Alpha  occ. eigenvalues --   -0.96034  -0.91169  -0.85361  -0.81367  -0.80667
 Alpha  occ. eigenvalues --   -0.80437  -0.78461  -0.76556  -0.76178  -0.72966
 Alpha  occ. eigenvalues --   -0.69169  -0.68192  -0.64385  -0.61070  -0.58531
 Alpha  occ. eigenvalues --   -0.57679  -0.57164  -0.56221  -0.55723
 Alpha virt. eigenvalues --   -0.30983  -0.20837  -0.17210  -0.13587  -0.11708
 Alpha virt. eigenvalues --   -0.08749  -0.07782  -0.06940  -0.05907  -0.04620
 Alpha virt. eigenvalues --   -0.04163  -0.02939  -0.02157  -0.01641  -0.01162

 Mulliken charges:
               1
     1  C   -0.079505
     2  C    0.135875
     3  C   -0.090686
     4  C   -0.344487
     5  H    0.348576
     6  H    0.353537
     7  H    0.335269
     8  N   -0.217565
     9  O    0.089917
    10  O    0.072300
    11  C   -0.169398
    12  H    0.361364
    13  C   -0.312385
    14  H    0.448578
    15  Br   0.068610
 Sum of Mulliken charges =   1.00000

 Dipole moment (field-independent basis, Debye):
    X=              2.6236    Y=             -0.4492    Z=              1.3285  Tot=              2.9749
 Quadrupole moment (field-independent basis, Debye-Ang):
   XX=            -67.8122   YY=            -51.8819   ZZ=            -64.9532
   XY=             -2.0606   XZ=              1.7253   YZ=              0.4232

 Normal termination of Gaussian 16 at Thu May  2 14:19:07 2024.
