 Gaussian 16, Revision C.01,
 Gaussian 16:  ES64L-G16RevC.01  3-Jul-2019

 ----------------------------------------
 #P wB97XD/6-311+G* NoSymm #P Field=X+126
 ----------------------------------------

 -------
 TitleMe
 -------
 Symbolic Z-matrix:
 Charge =  1 Multiplicity = 1

                          Input orientation:
 ---------------------------------------------------------------------
 Center     Atomic      Atomic             Coordinates (Angstroms)
 Number     Number       Type             X           Y           Z
 ---------------------------------------------------------------------
      1          6           0        0.029500    1.339700    0.068200
      2          6           0        1.434800    1.286700    0.006400
      3          6           0        2.111800    0.051100   -0.005400
      4          6           0        1.445100   -1.137200    0.031200
      5          6           0       -0.687900    0.168200    0.110000
      6          1           0       -0.471300    2.298400    0.078100
      7          1           0        2.027300    2.196500   -0.032200
      8          1           0        1.989700   -2.076400    0.023200
      9          1           0       -1.771600    0.180400    0.158200
     10          7           0        3.586400    0.051000   -0.067500
     11          8           0        4.147100   -1.059700   -0.088100
     12          8           0        4.145000    1.163900   -0.090100
     13          6           0       -0.023600   -1.145800    0.083500
     14          1           0       -0.436700   -1.872500    0.788900
     15         35           0       -0.535900   -1.869700   -1.740800
 ---------------------------------------------------------------------

 SCF Done:  E(RwB97XD) =  -3010.54883156     A.U. after   19 cycles

 Alpha  occ. eigenvalues -- -483.32019 -62.87024 -56.66734 -56.66140 -56.66134
 Alpha  occ. eigenvalues --  -19.52160 -19.52079 -14.91468 -10.60100 -10.59408
 Alpha  occ. eigenvalues --  -10.59385 -10.59191 -10.57896 -10.54027  -9.02815
 Alpha  occ. eigenvalues --   -6.85538  -6.83598  -6.83572  -2.95431  -2.94920
 Alpha  occ. eigenvalues --   -2.94898  -2.93346  -2.93346  -1.55891  -1.38940
 Alpha  occ. eigenvalues --   -1.24672  -1.16315  -1.13428  -1.05812  -1.04138
 Alpha  occ. eigenvalues --   -0.97111  -0.93343  -0.89497  -0.85860  -0.84428
 Alpha  occ. eigenvalues --   -0.83835  -0.80709  -0.79668  -0.77551  -0.73925
 Alpha  occ. eigenvalues --   -0.70569  -0.69074  -0.65458  -0.63421  -0.63024
 Alpha  occ. eigenvalues --   -0.62110  -0.61386  -0.56840  -0.56106
 Alpha virt. eigenvalues --   -0.31033  -0.26253  -0.17112  -0.15569  -0.11706
 Alpha virt. eigenvalues --   -0.09002  -0.08500  -0.07139  -0.06990  -0.05232
 Alpha virt. eigenvalues --   -0.03779  -0.03604  -0.03159  -0.01620  -0.01320

 Mulliken charges:
               1
     1  C   -0.607763
     2  C    0.557110
     3  C   -0.744652
     4  C    0.218432
     5  C    0.046432
     6  H    0.360054
     7  H    0.343185
     8  H    0.355420
     9  H    0.404965
    10  N   -0.103636
    11  O   -0.025403
    12  O   -0.028608
    13  C   -0.446608
    14  H    0.424926
    15  Br   0.246147
 Sum of Mulliken charges =   1.00000

 Dipole moment (field-independent basis, Debye):
    X=             -4.6338    Y=             -1.0263    Z=             -0.3371  Tot=              4.7580
 Quadrupole moment (field-independent basis, Debye-Ang):
   XX=            -80.3949   YY=            -51.6061   ZZ=            -61.7171
   XY=              1.8751   XZ=              2.0846   YZ=              2.5537

 Normal termination of Gaussian 16 at Wed May  1 14:46:44 2024.
