 Gaussian 16, Revision C.01,
 Gaussian 16:  ES64L-G16RevC.01  3-Jul-2019

 ---------------------------------------
 #P wB97XD/6-311+G* NoSymm #P Field=Z-68
 ---------------------------------------

 -------
 TitleMe
 -------
 Symbolic Z-matrix:
 Charge =  1 Multiplicity = 1

                          Input orientation:
 ---------------------------------------------------------------------
 Center     Atomic      Atomic             Coordinates (Angstroms)
 Number     Number       Type             X           Y           Z
 ---------------------------------------------------------------------
      1          6           0        0.519300    1.233000   -0.031900
      2          6           0        1.944500    1.269200   -0.036700
      3          6           0        2.620400    0.092800   -0.025000
      4          6           0       -0.196000    0.030100    0.001000
      5          1           0       -0.020700    2.174200   -0.043400
      6          1           0        2.482800    2.208900   -0.036100
      7          1           0       -1.277700    0.039900    0.011700
      8          7           0        4.092100    0.095900    0.036600
      9          8           0        4.639300   -1.021700    0.144600
     10          8           0        4.664900    1.198400   -0.023300
     11          6           0        0.494300   -1.167100    0.021000
     12          1           0       -0.032500   -2.114900    0.054500
     13          6           0        1.962900   -1.216500   -0.021100
     14          1           0        2.443600   -1.963100    0.615100
     15         35           0        2.173000   -1.949100   -1.906200
 ---------------------------------------------------------------------

 SCF Done:  E(RwB97XD) =  -3010.53152692     A.U. after   19 cycles

 Alpha  occ. eigenvalues -- -483.32180 -62.87217 -56.66892 -56.66348 -56.66339
 Alpha  occ. eigenvalues --  -19.46361 -19.46333 -14.85793 -10.59530 -10.58577
 Alpha  occ. eigenvalues --  -10.57623 -10.57356 -10.53681 -10.53024  -9.03033
 Alpha  occ. eigenvalues --   -6.85664  -6.83870  -6.83846  -2.95579  -2.95105
 Alpha  occ. eigenvalues --   -2.95085  -2.93649  -2.93649  -1.50041  -1.32995
 Alpha  occ. eigenvalues --   -1.22807  -1.13316  -1.12814  -1.05482  -1.00682
 Alpha  occ. eigenvalues --   -0.95699  -0.90874  -0.85148  -0.81130  -0.80405
 Alpha  occ. eigenvalues --   -0.80244  -0.78186  -0.76367  -0.75888  -0.72494
 Alpha  occ. eigenvalues --   -0.68853  -0.67884  -0.63903  -0.60453  -0.57641
 Alpha  occ. eigenvalues --   -0.57447  -0.56844  -0.56064  -0.55276
 Alpha virt. eigenvalues --   -0.30550  -0.20599  -0.16446  -0.13316  -0.09560
 Alpha virt. eigenvalues --   -0.07009  -0.06564  -0.05953  -0.04508  -0.03626
 Alpha virt. eigenvalues --   -0.03243  -0.02547  -0.01909  -0.01404  -0.00893

 Mulliken charges:
               1
     1  C   -0.091809
     2  C    0.156453
     3  C   -0.085114
     4  C   -0.338594
     5  H    0.347047
     6  H    0.351939
     7  H    0.333098
     8  N   -0.226539
     9  O    0.089099
    10  O    0.071011
    11  C   -0.183639
    12  H    0.359248
    13  C   -0.331657
    14  H    0.433147
    15  Br   0.116309
 Sum of Mulliken charges =   1.00000

 Dipole moment (field-independent basis, Debye):
    X=              2.6873    Y=             -0.6363    Z=              0.4679  Tot=              2.8009
 Quadrupole moment (field-independent basis, Debye-Ang):
   XX=            -67.8293   YY=            -51.5734   ZZ=            -63.7677
   XY=             -2.4318   XZ=             -0.0481   YZ=              1.2661

 Normal termination of Gaussian 16 at Thu May  2 14:18:46 2024.
