 Gaussian 16, Revision C.01,
 Gaussian 16:  ES64L-G16RevC.01  3-Jul-2019

 ----------------------------------------
 #P wB97XD/6-311+G* NoSymm #P Field=Y-272
 ----------------------------------------

 -------
 TitleMe
 -------
 Symbolic Z-matrix:
 Charge =  1 Multiplicity = 1

                          Input orientation:
 ---------------------------------------------------------------------
 Center     Atomic      Atomic             Coordinates (Angstroms)
 Number     Number       Type             X           Y           Z
 ---------------------------------------------------------------------
      1          6           0        0.029500    1.339700    0.068200
      2          6           0        1.434800    1.286700    0.006400
      3          6           0        2.111800    0.051100   -0.005400
      4          6           0        1.445100   -1.137200    0.031200
      5          6           0       -0.687900    0.168200    0.110000
      6          1           0       -0.471300    2.298400    0.078100
      7          1           0        2.027300    2.196500   -0.032200
      8          1           0        1.989700   -2.076400    0.023200
      9          1           0       -1.771600    0.180400    0.158200
     10          7           0        3.586400    0.051000   -0.067500
     11          8           0        4.147100   -1.059700   -0.088100
     12          8           0        4.145000    1.163900   -0.090100
     13          6           0       -0.023600   -1.145800    0.083500
     14          1           0       -0.436700   -1.872500    0.788900
     15         35           0       -0.535900   -1.869700   -1.740800
 ---------------------------------------------------------------------

 SCF Done:  E(RwB97XD) =  -3010.57099083     A.U. after   21 cycles

 Alpha  occ. eigenvalues -- -483.35943 -62.91007 -56.70633 -56.70159 -56.70151
 Alpha  occ. eigenvalues --  -19.47143 -19.46536 -14.86124 -10.62161 -10.58808
 Alpha  occ. eigenvalues --  -10.58723 -10.57311 -10.56830 -10.51882  -9.06843
 Alpha  occ. eigenvalues --   -6.89331  -6.87759  -6.87734  -2.99280  -2.98861
 Alpha  occ. eigenvalues --   -2.98841  -2.97581  -2.97581  -1.50490  -1.33456
 Alpha  occ. eigenvalues --   -1.24277  -1.16425  -1.12257  -1.07893  -1.01864
 Alpha  occ. eigenvalues --   -0.96878  -0.91936  -0.86280  -0.82034  -0.81458
 Alpha  occ. eigenvalues --   -0.80916  -0.80041  -0.76826  -0.76296  -0.74530
 Alpha  occ. eigenvalues --   -0.69549  -0.67265  -0.64904  -0.63307  -0.61833
 Alpha  occ. eigenvalues --   -0.58169  -0.57813  -0.56936  -0.56148
 Alpha virt. eigenvalues --   -0.31402  -0.22593  -0.22005  -0.19784  -0.17134
 Alpha virt. eigenvalues --   -0.16039  -0.13828  -0.11507  -0.10546  -0.09811
 Alpha virt. eigenvalues --   -0.07751  -0.06201  -0.05595  -0.04021  -0.03012

 Mulliken charges:
               1
     1  C   -0.509806
     2  C    0.407397
     3  C   -0.605635
     4  C    0.296368
     5  C    0.064081
     6  H    0.436842
     7  H    0.456858
     8  H    0.276295
     9  H    0.359902
    10  N   -0.110234
    11  O   -0.102162
    12  O    0.186855
    13  C   -0.486470
    14  H    0.333574
    15  Br  -0.003866
 Sum of Mulliken charges =   1.00000

 Dipole moment (field-independent basis, Debye):
    X=              0.1909    Y=              7.2846    Z=              0.9664  Tot=              7.3509
 Quadrupole moment (field-independent basis, Debye-Ang):
   XX=            -69.5471   YY=            -56.6801   ZZ=            -65.0669
   XY=             10.0594   XZ=              0.2483   YZ=             -1.9807

 Normal termination of Gaussian 16 at Wed May  1 14:49:37 2024.
