 Gaussian 16, Revision A.03,
 Gaussian 16:  ES64L-G16RevA.03 25-Dec-2016

 --------------------------------------------------------------------
 #p B3LYP/6-311+G** #p TD=(singlets,nstates=30)IOp(6/8=3) IOp(9/40=4)
 --------------------------------------------------------------------

 -------------------------------
 Scan Step 21, Bond Length 0.605
 -------------------------------
 Symbolic Z-matrix:
 Charge =  0 Multiplicity = 1

                         Standard orientation:
 ---------------------------------------------------------------------
 Center     Atomic      Atomic             Coordinates (Angstroms)
 Number     Number       Type             X           Y           Z
 ---------------------------------------------------------------------
      1          6           0        0.000000   -0.000000   -0.228581
      2          1           0        0.000000    0.937260   -0.819931
      3          1           0       -0.000000   -0.937260   -0.819931
      4          8           0        0.000000    0.000000    0.376419
 ---------------------------------------------------------------------

 SCF Done:  E(RB3LYP) =  -111.665168922     A.U. after   11 cycles

 Excitation energies and oscillator strengths:

 Excited State   1:      Singlet-B2     4.5401 eV  273.09 nm  f=0.1386  <S**2>=0.000
       3 -> 11         0.00075
       3 -> 15         0.00090
       3 -> 19         0.00075
       3 -> 22         0.00075
       3 -> 25         0.00116
       3 -> 29         0.00014
       3 -> 31        -0.00026
       3 -> 40        -0.00036
       3 -> 43         0.00023
       3 -> 54         0.00016
       4 ->  9        -0.00264
       4 -> 12         0.00215
       4 -> 13         0.00313
       4 -> 16         0.00135
       4 -> 18         0.00217
       4 -> 20         0.00210
       4 -> 21         0.00158
       4 -> 24         0.00129
       4 -> 26        -0.00076
       4 -> 30         0.00125
       4 -> 32         0.00125
       4 -> 38        -0.00057
       4 -> 42         0.00046
       4 -> 44        -0.00026
       4 -> 47         0.00073
       4 -> 49        -0.00011
       4 -> 53        -0.00016
       5 -> 28         0.00203
       5 -> 35         0.00092
       5 -> 45         0.00072
       6 -> 11        -0.00626
       6 -> 15         0.00319
       6 -> 19        -0.00040
       6 -> 22        -0.00020
       6 -> 25         0.00434
       6 -> 29         0.00079
       6 -> 31        -0.00066
       6 -> 40        -0.00015
       6 -> 43         0.00016
       6 -> 46         0.00032
       7 -> 11         0.00898
       7 -> 15         0.00403
       7 -> 19         0.00360
       7 -> 22         0.00043
       7 -> 25         0.00115
       7 -> 29        -0.00116
       7 -> 31         0.00099
       7 -> 37        -0.00066
       7 -> 43        -0.00036
       7 -> 46         0.00042
       7 -> 50         0.00042
       7 -> 54        -0.00012
       8 ->  9         0.70472
       8 -> 12        -0.00282
       8 -> 13         0.05751
       8 -> 16        -0.00511
       8 -> 18        -0.02299
       8 -> 20         0.00551
       8 -> 21         0.01100
       8 -> 24        -0.00032
       8 -> 26        -0.00078
       8 -> 30        -0.00341
       8 -> 32        -0.00199
       8 -> 33        -0.00066
       8 -> 38        -0.00106
       8 -> 39        -0.00011
       8 -> 42         0.00075
       8 -> 44         0.00045
       8 -> 47        -0.00064
       8 -> 49         0.00026
       3 <- 11         0.00036
       3 <- 15         0.00054
       3 <- 19         0.00047
       3 <- 22         0.00063
       3 <- 25         0.00088
       3 <- 31        -0.00027
       3 <- 40        -0.00036
       3 <- 43         0.00023
       3 <- 54         0.00017
       4 <-  9        -0.00106
       4 <- 12        -0.00017
       4 <- 13         0.00257
       4 <- 16         0.00156
       4 <- 18         0.00028
       4 <- 20         0.00133
       4 <- 21         0.00129
       4 <- 24         0.00088
       4 <- 26        -0.00131
       4 <- 30         0.00095
       4 <- 32         0.00055
       4 <- 38        -0.00037
       4 <- 39         0.00014
       4 <- 42         0.00037
       4 <- 44        -0.00022
       4 <- 47         0.00066
       5 <- 28         0.00173
       5 <- 35         0.00075
       5 <- 45         0.00061
       6 <- 11        -0.00171
       6 <- 15         0.00304
       6 <- 22         0.00034
       6 <- 25         0.00328
       6 <- 29         0.00034
       6 <- 31        -0.00059
       6 <- 37         0.00013
       6 <- 40        -0.00013
       6 <- 43         0.00013
       6 <- 46         0.00030
       6 <- 50         0.00012
       7 <- 11         0.00217
       7 <- 15         0.00176
       7 <- 19         0.00075
       7 <- 22         0.00015
       7 <- 25         0.00046
       7 <- 29        -0.00173
       7 <- 31         0.00084
       7 <- 37        -0.00041
       7 <- 43        -0.00024
       7 <- 46         0.00045
       7 <- 50         0.00050
       8 <-  9        -0.01144
       8 <- 12        -0.00667
       8 <- 13         0.02361
       8 <- 16         0.00731
       8 <- 18         0.00071
       8 <- 20         0.00107
       8 <- 21         0.00576
       8 <- 24         0.00289
       8 <- 26        -0.00052
       8 <- 30        -0.00230
       8 <- 32        -0.00154
       8 <- 33        -0.00111
       8 <- 38        -0.00102
       8 <- 39        -0.00014
       8 <- 42         0.00068
       8 <- 44         0.00016
       8 <- 47        -0.00056
       8 <- 49         0.00017
 This state for optimization and/or second-order correction.
 Total Energy, E(TD-HF/TD-DFT) =  -111.498323663
 Copying the excited state density for this state as the 1-particle RhoCI density.

 Excited State   2:      Singlet-A2     4.9094 eV  252.54 nm  f=0.0000  <S**2>=0.000
       3 -> 28        -0.00188
       3 -> 35        -0.00104
       3 -> 45        -0.00033
       4 -> 10        -0.00078
       4 -> 14        -0.00037
       4 -> 17         0.00268
       4 -> 23        -0.00094
       4 -> 27        -0.00202
       4 -> 34         0.00020
       4 -> 36        -0.00116
       4 -> 48        -0.00014
       4 -> 52        -0.00022
       5 -> 11         0.00021
       5 -> 15        -0.00019
       5 -> 19         0.00032
       5 -> 22        -0.00074
       5 -> 25         0.00025
       5 -> 29         0.00032
       5 -> 37        -0.00031
       5 -> 40         0.00014
       5 -> 43        -0.00036
       5 -> 46        -0.00029
       5 -> 50         0.00017
       6 -> 28        -0.00311
       6 -> 35         0.00059
       6 -> 45         0.00012
       7 -> 28         0.00165
       7 -> 35        -0.00033
       7 -> 45        -0.00033
       8 -> 10         0.70657
       8 -> 14        -0.01015
       8 -> 17        -0.02640
       8 -> 23        -0.00364
       8 -> 27         0.00055
       8 -> 34         0.00337
       8 -> 36        -0.00162
       8 -> 41         0.00048
       8 -> 48         0.00015
       8 -> 52         0.00030
       3 <- 28        -0.00157
       3 <- 35        -0.00090
       3 <- 45        -0.00032
       4 <- 10        -0.00020
       4 <- 14         0.00042
       4 <- 17         0.00081
       4 <- 23        -0.00014
       4 <- 27        -0.00046
       4 <- 34         0.00067
       4 <- 36        -0.00068
       4 <- 41        -0.00015
       5 <- 11         0.00049
       5 <- 15        -0.00049
       5 <- 19         0.00116
       5 <- 22        -0.00095
       5 <- 25         0.00083
       5 <- 29         0.00124
       5 <- 31         0.00014
       5 <- 37        -0.00060
       5 <- 43        -0.00040
       5 <- 46        -0.00031
       5 <- 54        -0.00019
       6 <- 28        -0.00301
       6 <- 35         0.00072
       7 <- 28         0.00168
       7 <- 35        -0.00045
       7 <- 45        -0.00035
       8 <- 10         0.00253
       8 <- 14         0.00324
       8 <- 17         0.00712
       8 <- 23        -0.00017
       8 <- 27        -0.00071
       8 <- 34         0.00322
       8 <- 36        -0.00129
       8 <- 41         0.00028
       8 <- 52         0.00012

 Excited State   3:      Singlet-B2     5.5773 eV  222.30 nm  f=0.0373  <S**2>=0.000
       3 -> 11        -0.00021
       3 -> 15         0.00042
       3 -> 19        -0.00039
       3 -> 22         0.00028
       3 -> 25         0.00019
       3 -> 29        -0.00023
       3 -> 31         0.00012
       3 -> 37        -0.00017
       3 -> 40         0.00016
       3 -> 43        -0.00019
       3 -> 54        -0.00019
       4 ->  9         0.00111
       4 -> 12         0.00021
       4 -> 13         0.00098
       4 -> 16         0.00191
       4 -> 18        -0.00094
       4 -> 20        -0.00058
       4 -> 21         0.00102
       4 -> 24         0.00088
       4 -> 26         0.00030
       4 -> 30        -0.00210
       4 -> 32        -0.00020
       4 -> 38         0.00038
       4 -> 39        -0.00093
       4 -> 42        -0.00030
       4 -> 47        -0.00043
       5 -> 28        -0.00100
       5 -> 35        -0.00114
       5 -> 45        -0.00061
       6 -> 11        -0.00082
       6 -> 15         0.00368
       6 -> 19        -0.00199
       6 -> 22        -0.00018
       6 -> 25         0.00155
       6 -> 29         0.00204
       6 -> 31         0.00045
       6 -> 37         0.00056
       6 -> 40         0.00042
       6 -> 43         0.00028
       6 -> 46        -0.00028
       6 -> 50        -0.00023
       6 -> 54         0.00015
       7 -> 11        -0.00136
       7 -> 15        -0.00425
       7 -> 19        -0.00100
       7 -> 22         0.00016
       7 -> 25        -0.00308
       7 -> 29        -0.00115
       7 -> 31        -0.00048
       7 -> 37         0.00049
       7 -> 46        -0.00056
       7 -> 50        -0.00026
       7 -> 54         0.00015
       8 ->  9         0.00047
       8 -> 12         0.70551
       8 -> 13         0.03795
       8 -> 16         0.02606
       8 -> 18         0.00508
       8 -> 20         0.01568
       8 -> 21         0.00546
       8 -> 24        -0.00097
       8 -> 26         0.00199
       8 -> 30        -0.00293
       8 -> 32         0.00053
       8 -> 33        -0.00017
       8 -> 38        -0.00068
       8 -> 39         0.00139
       8 -> 42         0.00090
       8 -> 44        -0.00014
       8 -> 47         0.00028
       8 -> 53        -0.00017
       3 <- 15         0.00037
       3 <- 19        -0.00014
       3 <- 22         0.00014
       3 <- 25         0.00027
       3 <- 31         0.00014
       3 <- 37        -0.00019
       3 <- 40         0.00014
       3 <- 43        -0.00018
       3 <- 54        -0.00023
       4 <-  9        -0.00107
       4 <- 12        -0.00019
       4 <- 13         0.00107
       4 <- 16         0.00066
       4 <- 18         0.00054
       4 <- 20        -0.00040
       4 <- 21         0.00070
       4 <- 24         0.00096
       4 <- 26         0.00040
       4 <- 30        -0.00142
       4 <- 33        -0.00054
       4 <- 38         0.00025
       4 <- 39        -0.00068
       4 <- 42        -0.00032
       4 <- 47        -0.00040
       5 <- 28        -0.00063
       5 <- 35        -0.00100
       5 <- 45        -0.00055
       6 <- 11        -0.00063
       6 <- 15         0.00075
       6 <- 19         0.00015
       6 <- 22        -0.00056
       6 <- 25         0.00145
       6 <- 29         0.00159
       6 <- 31         0.00063
       6 <- 37         0.00052
       6 <- 40         0.00034
       6 <- 43         0.00021
       6 <- 46        -0.00023
       6 <- 50        -0.00018
       6 <- 54         0.00011
       7 <- 11         0.00026
       7 <- 15        -0.00140
       7 <- 19        -0.00056
       7 <- 22         0.00012
       7 <- 25        -0.00188
       7 <- 29        -0.00032
       7 <- 31        -0.00039
       7 <- 37         0.00016
       7 <- 46        -0.00049
       7 <- 50        -0.00034
       8 <-  9        -0.00612
       8 <- 12         0.00078
       8 <- 13         0.01220
       8 <- 16         0.00480
       8 <- 18        -0.00139
       8 <- 20        -0.00322
       8 <- 21         0.00327
       8 <- 24         0.00060
       8 <- 30        -0.00237
       8 <- 32         0.00054
       8 <- 33        -0.00017
       8 <- 38        -0.00051
       8 <- 39         0.00126
       8 <- 42         0.00078
       8 <- 44        -0.00010
       8 <- 47         0.00024

 Excited State   4:      Singlet-A1     5.7901 eV  214.13 nm  f=0.0018  <S**2>=0.000
       3 ->  9         0.00145
       3 -> 12        -0.00039
       3 -> 13         0.00020
       3 -> 16        -0.00088
       3 -> 18        -0.00169
       3 -> 20        -0.00015
       3 -> 21         0.00095
       3 -> 24        -0.00091
       3 -> 26        -0.00035
       3 -> 30         0.00065
       3 -> 32        -0.00080
       3 -> 33         0.00061
       3 -> 38         0.00046
       3 -> 39         0.00033
       3 -> 44        -0.00016
       3 -> 47         0.00010
       3 -> 51         0.00020
       4 -> 11        -0.00569
       4 -> 15        -0.00536
       4 -> 19        -0.00476
       4 -> 22        -0.00266
       4 -> 25        -0.00323
       4 -> 29        -0.00036
       4 -> 37        -0.00095
       4 -> 40        -0.00014
       4 -> 43         0.00021
       4 -> 46        -0.00011
       4 -> 50         0.00011
       5 -> 10        -0.00261
       5 -> 14        -0.00393
       5 -> 17         0.00134
       5 -> 23         0.00363
       5 -> 27        -0.00055
       5 -> 34        -0.00077
       5 -> 36        -0.00058
       5 -> 48         0.00014
       6 ->  9         0.01129
       6 -> 12         0.00662
       6 -> 13        -0.00348
       6 -> 16        -0.00534
       6 -> 18        -0.00675
       6 -> 20         0.00390
       6 -> 21         0.00215
       6 -> 24        -0.00532
       6 -> 26         0.00133
       6 -> 30        -0.00041
       6 -> 32         0.00238
       6 -> 33         0.00189
       6 -> 38         0.00153
       6 -> 39        -0.00110
       6 -> 42        -0.00024
       6 -> 44         0.00078
       6 -> 47         0.00016
       6 -> 49        -0.00040
       6 -> 51         0.00010
       7 ->  9         0.00824
       7 -> 12        -0.01229
       7 -> 16         0.00612
       7 -> 18        -0.00812
       7 -> 20        -0.00368
       7 -> 21        -0.00165
       7 -> 24         0.00087
       7 -> 26        -0.00381
       7 -> 30        -0.00089
       7 -> 32        -0.00165
       7 -> 33         0.00040
       7 -> 38        -0.00096
       7 -> 39         0.00048
       7 -> 42         0.00017
       7 -> 44        -0.00033
       7 -> 51        -0.00017
       8 -> 11         0.70446
       8 -> 15         0.05577
       8 -> 19        -0.02198
       8 -> 22        -0.00118
       8 -> 25         0.00908
       8 -> 29        -0.00309
       8 -> 31         0.00215
       8 -> 37        -0.00351
       8 -> 40        -0.00060
       8 -> 43         0.00189
       8 -> 46        -0.00108
       8 -> 50         0.00023
       3 <-  9         0.00086
       3 <- 12        -0.00018
       3 <- 13         0.00017
       3 <- 16        -0.00059
       3 <- 18        -0.00110
       3 <- 20        -0.00010
       3 <- 21         0.00068
       3 <- 24        -0.00069
       3 <- 26        -0.00028
       3 <- 30         0.00052
       3 <- 32        -0.00057
       3 <- 33         0.00050
       3 <- 38         0.00036
       3 <- 39         0.00027
       3 <- 44        -0.00014
       3 <- 47         0.00012
       3 <- 51         0.00017
       4 <- 11        -0.00249
       4 <- 15        -0.00229
       4 <- 19        -0.00282
       4 <- 22        -0.00188
       4 <- 25        -0.00184
       4 <- 29        -0.00028
       4 <- 37        -0.00079
       4 <- 40        -0.00013
       4 <- 43         0.00020
       4 <- 50         0.00011
       5 <- 10        -0.00154
       5 <- 14        -0.00242
       5 <- 17         0.00086
       5 <- 23         0.00261
       5 <- 27        -0.00040
       5 <- 34        -0.00065
       5 <- 36        -0.00050
       5 <- 48         0.00012
       6 <-  9         0.00820
       6 <- 12         0.00341
       6 <- 13        -0.00286
       6 <- 16        -0.00408
       6 <- 18        -0.00360
       6 <- 20         0.00208
       6 <- 21         0.00232
       6 <- 24        -0.00363
       6 <- 26         0.00092
       6 <- 32         0.00178
       6 <- 33         0.00135
       6 <- 38         0.00146
       6 <- 39        -0.00081
       6 <- 42        -0.00023
       6 <- 44         0.00075
       6 <- 49        -0.00034
       6 <- 51         0.00011
       7 <-  9         0.00032
       7 <- 12        -0.00504
       7 <- 13         0.00110
       7 <- 16         0.00412
       7 <- 18        -0.00389
       7 <- 20        -0.00166
       7 <- 21        -0.00151
       7 <- 24         0.00069
       7 <- 26        -0.00259
       7 <- 30        -0.00082
       7 <- 32        -0.00126
       7 <- 33         0.00031
       7 <- 38        -0.00085
       7 <- 39         0.00025
       7 <- 44        -0.00033
       7 <- 47        -0.00011
       7 <- 51        -0.00015
       8 <- 11        -0.01292
       8 <- 15         0.00518
       8 <- 19        -0.01648
       8 <- 22        -0.00446
       8 <- 25         0.00470
       8 <- 29        -0.00237
       8 <- 31         0.00196
       8 <- 37        -0.00282
       8 <- 40        -0.00028
       8 <- 43         0.00153
       8 <- 46        -0.00101
       8 <- 50         0.00023

 Excited State   5:      Singlet-A2     8.3865 eV  147.84 nm  f=0.0000  <S**2>=0.000
       3 -> 28         0.00230
       3 -> 35         0.00134
       3 -> 45         0.00039
       4 -> 10        -0.00058
       4 -> 14        -0.00531
       4 -> 17        -0.00178
       4 -> 23         0.00293
       4 -> 27         0.00044
       4 -> 34         0.00052
       4 -> 36         0.00197
       4 -> 41        -0.00020
       4 -> 52         0.00020
       5 -> 15        -0.00013
       5 -> 19        -0.00045
       5 -> 22         0.00105
       5 -> 25        -0.00071
       5 -> 29        -0.00014
       5 -> 37         0.00037
       5 -> 40        -0.00017
       5 -> 43         0.00053
       5 -> 46         0.00034
       5 -> 50        -0.00012
       6 -> 28         0.00245
       6 -> 35        -0.00064
       7 -> 28        -0.00146
       7 -> 35         0.00028
       7 -> 45         0.00032
       8 -> 10         0.01272
       8 -> 14         0.70298
       8 -> 17         0.07313
       8 -> 23        -0.01743
       8 -> 27        -0.00185
       8 -> 34        -0.00266
       8 -> 36         0.00264
       8 -> 41        -0.00023
       8 -> 52        -0.00031
       3 <- 28         0.00161
       3 <- 35         0.00108
       3 <- 45         0.00042
       4 <- 10         0.00030
       4 <- 14        -0.00044
       4 <- 17        -0.00064
       4 <- 23         0.00023
       4 <- 27         0.00031
       4 <- 34        -0.00055
       4 <- 36         0.00077
       4 <- 41         0.00018
       5 <- 11         0.00042
       5 <- 15        -0.00010
       5 <- 19        -0.00019
       5 <- 22         0.00118
       5 <- 25        -0.00127
       5 <- 29        -0.00029
       5 <- 31        -0.00043
       5 <- 37         0.00087
       5 <- 43         0.00056
       5 <- 54         0.00019
       6 <- 28         0.00254
       6 <- 35        -0.00060
       6 <- 45        -0.00015
       7 <- 28        -0.00128
       7 <- 45         0.00015
       8 <- 10         0.00381
       8 <- 14        -0.00130
       8 <- 17        -0.00469
       8 <- 23         0.00081
       8 <- 27         0.00040
       8 <- 34        -0.00293
       8 <- 36         0.00131
       8 <- 41        -0.00024
       8 <- 52        -0.00013

 The electronic state is 1-A1.
 Alpha  occ. eigenvalues --  -19.26842 -10.42962  -1.26839  -0.87512  -0.84822
 Alpha  occ. eigenvalues --   -0.58183  -0.52481  -0.19733
 Alpha virt. eigenvalues --    0.00315   0.02584   0.04425   0.04707   0.14217
 Alpha virt. eigenvalues --    0.16046   0.17747   0.18039   0.21895   0.22262
 Alpha virt. eigenvalues --    0.28300   0.36626   0.50669   0.57537   0.60933

 Mulliken charges:
               1
     1  C    0.219382
     2  H   -0.124581
     3  H   -0.124581
     4  O    0.029781
 Sum of Mulliken charges =   0.00000

 Dipole moment (field-independent basis, Debye):
    X=              0.0000    Y=              0.0000    Z=              1.5450  Tot=              1.5450
 Quadrupole moment (field-independent basis, Debye-Ang):
   XX=            -10.0724   YY=            -14.1378   ZZ=            -13.7126
   XY=             -0.0000   XZ=             -0.0000   YZ=              0.0000

 Normal termination of Gaussian 16 at Fri Sep 17 10:52:19 2021.
