 Gaussian 16, Revision A.03,
 Gaussian 16:  ES64L-G16RevA.03 25-Dec-2016

 --------------------------------------------------------------------
 #p B3LYP/6-311+G** #p TD=(singlets,nstates=30)IOp(6/8=3) IOp(9/40=4)
 --------------------------------------------------------------------

 -------------------------------
 Scan Step 25, Bond Length 0.625
 -------------------------------
 Symbolic Z-matrix:
 Charge =  0 Multiplicity = 1

                         Standard orientation:
 ---------------------------------------------------------------------
 Center     Atomic      Atomic             Coordinates (Angstroms)
 Number     Number       Type             X           Y           Z
 ---------------------------------------------------------------------
      1          6           0        0.000000    0.000000   -0.238581
      2          1           0        0.000000    0.937260   -0.829931
      3          1           0       -0.000000   -0.937260   -0.829931
      4          8           0        0.000000   -0.000000    0.386419
 ---------------------------------------------------------------------

 SCF Done:  E(RB3LYP) =  -112.030347314     A.U. after   10 cycles

 Excitation energies and oscillator strengths:

 Excited State   1:      Singlet-B2     4.6185 eV  268.45 nm  f=0.1343  <S**2>=0.000
       3 -> 11         0.00075
       3 -> 16         0.00080
       3 -> 19         0.00075
       3 -> 22         0.00065
       3 -> 24         0.00109
       3 -> 29         0.00016
       3 -> 32        -0.00023
       3 -> 40        -0.00031
       3 -> 43         0.00022
       3 -> 54         0.00016
       4 ->  9        -0.00272
       4 -> 12         0.00237
       4 -> 13         0.00324
       4 -> 15         0.00141
       4 -> 18         0.00236
       4 -> 20         0.00210
       4 -> 21         0.00160
       4 -> 25         0.00135
       4 -> 26        -0.00077
       4 -> 30         0.00111
       4 -> 31         0.00134
       4 -> 38        -0.00060
       4 -> 42         0.00047
       4 -> 44        -0.00027
       4 -> 47         0.00075
       4 -> 49        -0.00012
       4 -> 53        -0.00012
       5 -> 28         0.00197
       5 -> 35         0.00089
       5 -> 45         0.00075
       6 -> 11        -0.00568
       6 -> 16         0.00340
       6 -> 22        -0.00034
       6 -> 24         0.00448
       6 -> 29         0.00073
       6 -> 32        -0.00066
       6 -> 40        -0.00013
       6 -> 43         0.00015
       6 -> 46         0.00034
       7 -> 11         0.00889
       7 -> 16         0.00375
       7 -> 19         0.00339
       7 -> 22         0.00032
       7 -> 24         0.00083
       7 -> 29        -0.00118
       7 -> 32         0.00097
       7 -> 37        -0.00068
       7 -> 43        -0.00038
       7 -> 46         0.00041
       7 -> 50         0.00042
       7 -> 54        -0.00012
       8 ->  9         0.70490
       8 -> 12        -0.00166
       8 -> 13         0.05482
       8 -> 15        -0.00530
       8 -> 18        -0.02269
       8 -> 20         0.00542
       8 -> 21         0.01078
       8 -> 25        -0.00027
       8 -> 26        -0.00066
       8 -> 30        -0.00334
       8 -> 31        -0.00195
       8 -> 33        -0.00083
       8 -> 38        -0.00108
       8 -> 42         0.00076
       8 -> 44         0.00041
       8 -> 47        -0.00068
       8 -> 49         0.00027
       3 <- 11         0.00035
       3 <- 16         0.00045
       3 <- 19         0.00048
       3 <- 22         0.00054
       3 <- 24         0.00082
       3 <- 29         0.00010
       3 <- 32        -0.00025
       3 <- 40        -0.00031
       3 <- 43         0.00022
       3 <- 54         0.00017
       4 <-  9        -0.00112
       4 <- 12        -0.00019
       4 <- 13         0.00266
       4 <- 15         0.00164
       4 <- 18         0.00037
       4 <- 20         0.00129
       4 <- 21         0.00130
       4 <- 25         0.00098
       4 <- 26        -0.00133
       4 <- 30         0.00084
       4 <- 31         0.00058
       4 <- 33         0.00015
       4 <- 38        -0.00039
       4 <- 39         0.00015
       4 <- 42         0.00038
       4 <- 44        -0.00022
       4 <- 47         0.00067
       5 <- 28         0.00167
       5 <- 35         0.00072
       5 <- 45         0.00063
       6 <- 11        -0.00140
       6 <- 16         0.00311
       6 <- 19         0.00032
       6 <- 22         0.00024
       6 <- 24         0.00334
       6 <- 29         0.00026
       6 <- 32        -0.00059
       6 <- 37         0.00016
       6 <- 40        -0.00011
       6 <- 43         0.00012
       6 <- 46         0.00032
       6 <- 50         0.00015
       7 <- 11         0.00208
       7 <- 16         0.00157
       7 <- 19         0.00060
       7 <- 24         0.00017
       7 <- 29        -0.00171
       7 <- 32         0.00081
       7 <- 37        -0.00042
       7 <- 43        -0.00026
       7 <- 46         0.00044
       7 <- 50         0.00049
       8 <-  9        -0.01052
       8 <- 12        -0.00628
       8 <- 13         0.02256
       8 <- 15         0.00703
       8 <- 18         0.00099
       8 <- 20         0.00090
       8 <- 21         0.00559
       8 <- 25         0.00296
       8 <- 26        -0.00036
       8 <- 30        -0.00224
       8 <- 31        -0.00144
       8 <- 33        -0.00124
       8 <- 38        -0.00105
       8 <- 42         0.00066
       8 <- 44         0.00013
       8 <- 47        -0.00059
       8 <- 49         0.00017
 This state for optimization and/or second-order correction.
 Total Energy, E(TD-HF/TD-DFT) =  -111.860619542
 Copying the excited state density for this state as the 1-particle RhoCI density.

 Excited State   2:      Singlet-A2     4.9769 eV  249.12 nm  f=0.0000  <S**2>=0.000
       3 -> 28        -0.00185
       3 -> 35        -0.00106
       3 -> 45        -0.00035
       4 -> 10        -0.00079
       4 -> 17         0.00295
       4 -> 23        -0.00113
       4 -> 27        -0.00208
       4 -> 34         0.00016
       4 -> 36        -0.00124
       4 -> 41        -0.00010
       4 -> 48        -0.00014
       4 -> 52        -0.00023
       5 -> 11         0.00023
       5 -> 16        -0.00018
       5 -> 19         0.00033
       5 -> 22        -0.00079
       5 -> 24         0.00025
       5 -> 29         0.00029
       5 -> 37        -0.00031
       5 -> 40         0.00013
       5 -> 43        -0.00037
       5 -> 46        -0.00031
       5 -> 50         0.00018
       6 -> 28        -0.00311
       6 -> 35         0.00053
       7 -> 28         0.00168
       7 -> 35        -0.00035
       7 -> 45        -0.00037
       8 -> 10         0.70648
       8 -> 14        -0.01440
       8 -> 17        -0.02694
       8 -> 23        -0.00355
       8 -> 27         0.00084
       8 -> 34         0.00332
       8 -> 36        -0.00171
       8 -> 41         0.00041
       8 -> 48         0.00014
       8 -> 52         0.00032
       3 <- 28        -0.00154
       3 <- 35        -0.00092
       3 <- 45        -0.00034
       4 <- 10        -0.00019
       4 <- 14         0.00050
       4 <- 17         0.00080
       4 <- 23        -0.00014
       4 <- 27        -0.00044
       4 <- 34         0.00069
       4 <- 36        -0.00072
       4 <- 41        -0.00017
       5 <- 11         0.00053
       5 <- 16        -0.00051
       5 <- 19         0.00125
       5 <- 22        -0.00105
       5 <- 24         0.00092
       5 <- 29         0.00126
       5 <- 32         0.00016
       5 <- 37        -0.00064
       5 <- 43        -0.00041
       5 <- 46        -0.00033
       5 <- 54        -0.00021
       6 <- 28        -0.00301
       6 <- 35         0.00067
       7 <- 28         0.00172
       7 <- 35        -0.00047
       7 <- 45        -0.00038
       8 <- 10         0.00226
       8 <- 14         0.00385
       8 <- 17         0.00686
       8 <- 23        -0.00018
       8 <- 27        -0.00065
       8 <- 34         0.00317
       8 <- 36        -0.00136
       8 <- 41         0.00024
       8 <- 52         0.00012

 Excited State   3:      Singlet-B2     5.6249 eV  220.42 nm  f=0.0363  <S**2>=0.000
       3 -> 11        -0.00019
       3 -> 16         0.00043
       3 -> 19        -0.00036
       3 -> 22         0.00029
       3 -> 24         0.00024
       3 -> 29        -0.00028
       3 -> 32         0.00012
       3 -> 37        -0.00018
       3 -> 40         0.00014
       3 -> 43        -0.00019
       3 -> 46         0.00012
       3 -> 54        -0.00018
       4 ->  9         0.00129
       4 -> 12         0.00025
       4 -> 13         0.00105
       4 -> 15         0.00207
       4 -> 18        -0.00104
       4 -> 20        -0.00057
       4 -> 21         0.00108
       4 -> 25         0.00088
       4 -> 26         0.00039
       4 -> 30        -0.00214
       4 -> 31        -0.00027
       4 -> 38         0.00034
       4 -> 39        -0.00094
       4 -> 42        -0.00030
       4 -> 47        -0.00046
       5 -> 28        -0.00100
       5 -> 35        -0.00117
       5 -> 45        -0.00063
       6 -> 11        -0.00076
       6 -> 16         0.00358
       6 -> 19        -0.00194
       6 -> 22        -0.00011
       6 -> 24         0.00159
       6 -> 29         0.00195
       6 -> 32         0.00042
       6 -> 37         0.00059
       6 -> 40         0.00042
       6 -> 43         0.00029
       6 -> 46        -0.00030
       6 -> 50        -0.00024
       6 -> 54         0.00015
       7 -> 11        -0.00156
       7 -> 16        -0.00436
       7 -> 19        -0.00101
       7 -> 22         0.00032
       7 -> 24        -0.00316
       7 -> 29        -0.00115
       7 -> 32        -0.00049
       7 -> 37         0.00049
       7 -> 43         0.00010
       7 -> 46        -0.00055
       7 -> 50        -0.00026
       7 -> 54         0.00014
       8 ->  9        -0.00039
       8 -> 12         0.70558
       8 -> 13         0.03602
       8 -> 15         0.02658
       8 -> 18         0.00617
       8 -> 20         0.01572
       8 -> 21         0.00546
       8 -> 25        -0.00094
       8 -> 26         0.00194
       8 -> 30        -0.00281
       8 -> 31         0.00054
       8 -> 33        -0.00018
       8 -> 38        -0.00059
       8 -> 39         0.00141
       8 -> 42         0.00088
       8 -> 44        -0.00012
       8 -> 47         0.00033
       8 -> 53        -0.00016
       3 <- 16         0.00040
       3 <- 19        -0.00012
       3 <- 22         0.00015
       3 <- 24         0.00031
       3 <- 29        -0.00013
       3 <- 32         0.00013
       3 <- 37        -0.00020
       3 <- 40         0.00012
       3 <- 43        -0.00018
       3 <- 54        -0.00023
       4 <-  9        -0.00111
       4 <- 12        -0.00018
       4 <- 13         0.00114
       4 <- 15         0.00067
       4 <- 18         0.00057
       4 <- 20        -0.00041
       4 <- 21         0.00074
       4 <- 25         0.00097
       4 <- 26         0.00047
       4 <- 30        -0.00143
       4 <- 33        -0.00055
       4 <- 38         0.00023
       4 <- 39        -0.00069
       4 <- 42        -0.00032
       4 <- 47        -0.00042
       5 <- 28        -0.00062
       5 <- 35        -0.00102
       5 <- 45        -0.00057
       6 <- 11        -0.00056
       6 <- 16         0.00073
       6 <- 19         0.00019
       6 <- 22        -0.00056
       6 <- 24         0.00145
       6 <- 29         0.00152
       6 <- 32         0.00060
       6 <- 37         0.00054
       6 <- 40         0.00035
       6 <- 43         0.00021
       6 <- 46        -0.00025
       6 <- 50        -0.00019
       6 <- 54         0.00011
       7 <- 11         0.00019
       7 <- 16        -0.00142
       7 <- 19        -0.00057
       7 <- 22         0.00024
       7 <- 24        -0.00190
       7 <- 29        -0.00032
       7 <- 32        -0.00040
       7 <- 37         0.00016
       7 <- 46        -0.00049
       7 <- 50        -0.00035
       8 <-  9        -0.00576
       8 <- 12         0.00086
       8 <- 13         0.01187
       8 <- 15         0.00470
       8 <- 18        -0.00126
       8 <- 20        -0.00317
       8 <- 21         0.00329
       8 <- 25         0.00062
       8 <- 30        -0.00231
       8 <- 31         0.00054
       8 <- 33        -0.00014
       8 <- 38        -0.00042
       8 <- 39         0.00127
       8 <- 42         0.00077
       8 <- 47         0.00027

 Excited State   4:      Singlet-A1     5.8225 eV  212.94 nm  f=0.0034  <S**2>=0.000
       3 ->  9         0.00137
       3 -> 12        -0.00043
       3 -> 13         0.00021
       3 -> 15        -0.00081
       3 -> 18        -0.00162
       3 -> 20        -0.00015
       3 -> 21         0.00090
       3 -> 25        -0.00080
       3 -> 26        -0.00033
       3 -> 30         0.00066
       3 -> 31        -0.00081
       3 -> 33         0.00052
       3 -> 38         0.00042
       3 -> 39         0.00033
       3 -> 44        -0.00013
       3 -> 47         0.00011
       3 -> 51         0.00019
       4 -> 11        -0.00583
       4 -> 16        -0.00567
       4 -> 19        -0.00472
       4 -> 22        -0.00259
       4 -> 24        -0.00324
       4 -> 29        -0.00014
       4 -> 37        -0.00098
       4 -> 40        -0.00014
       4 -> 43         0.00023
       4 -> 46        -0.00010
       4 -> 50         0.00014
       5 -> 10        -0.00287
       5 -> 14        -0.00383
       5 -> 17         0.00186
       5 -> 23         0.00356
       5 -> 27        -0.00070
       5 -> 34        -0.00082
       5 -> 36        -0.00059
       5 -> 48         0.00016
       6 ->  9         0.01148
       6 -> 12         0.00620
       6 -> 13        -0.00365
       6 -> 15        -0.00482
       6 -> 18        -0.00714
       6 -> 20         0.00403
       6 -> 21         0.00184
       6 -> 25        -0.00544
       6 -> 26         0.00107
       6 -> 30        -0.00039
       6 -> 31         0.00197
       6 -> 33         0.00200
       6 -> 38         0.00141
       6 -> 39        -0.00110
       6 -> 42        -0.00020
       6 -> 44         0.00071
       6 -> 47         0.00013
       6 -> 49        -0.00041
       7 ->  9         0.00736
       7 -> 12        -0.01240
       7 -> 13         0.00062
       7 -> 15         0.00593
       7 -> 18        -0.00748
       7 -> 20        -0.00386
       7 -> 21        -0.00132
       7 -> 25         0.00135
       7 -> 26        -0.00357
       7 -> 30        -0.00082
       7 -> 31        -0.00178
       7 -> 33         0.00021
       7 -> 38        -0.00090
       7 -> 39         0.00054
       7 -> 42         0.00017
       7 -> 44        -0.00037
       7 -> 51        -0.00016
       8 -> 11         0.70455
       8 -> 16         0.05478
       8 -> 19        -0.02106
       8 -> 22        -0.00100
       8 -> 24         0.00833
       8 -> 29        -0.00341
       8 -> 32         0.00209
       8 -> 37        -0.00343
       8 -> 40        -0.00051
       8 -> 43         0.00188
       8 -> 46        -0.00103
       8 -> 50         0.00022
       3 <-  9         0.00079
       3 <- 12        -0.00020
       3 <- 13         0.00017
       3 <- 15        -0.00053
       3 <- 18        -0.00105
       3 <- 20        -0.00011
       3 <- 21         0.00062
       3 <- 25        -0.00061
       3 <- 26        -0.00026
       3 <- 30         0.00052
       3 <- 31        -0.00057
       3 <- 33         0.00044
       3 <- 38         0.00033
       3 <- 39         0.00027
       3 <- 44        -0.00012
       3 <- 47         0.00013
       3 <- 51         0.00016
       4 <- 11        -0.00249
       4 <- 16        -0.00239
       4 <- 19        -0.00276
       4 <- 22        -0.00183
       4 <- 24        -0.00181
       4 <- 29        -0.00014
       4 <- 37        -0.00082
       4 <- 40        -0.00013
       4 <- 43         0.00021
       4 <- 50         0.00013
       5 <- 10        -0.00166
       5 <- 14        -0.00231
       5 <- 17         0.00117
       5 <- 23         0.00252
       5 <- 27        -0.00051
       5 <- 34        -0.00068
       5 <- 36        -0.00050
       5 <- 48         0.00015
       6 <-  9         0.00817
       6 <- 12         0.00320
       6 <- 13        -0.00293
       6 <- 15        -0.00377
       6 <- 18        -0.00384
       6 <- 20         0.00221
       6 <- 21         0.00207
       6 <- 25        -0.00369
       6 <- 26         0.00071
       6 <- 31         0.00147
       6 <- 33         0.00144
       6 <- 38         0.00136
       6 <- 39        -0.00083
       6 <- 42        -0.00019
       6 <- 44         0.00069
       6 <- 49        -0.00035
       7 <- 12        -0.00512
       7 <- 13         0.00140
       7 <- 15         0.00406
       7 <- 18        -0.00355
       7 <- 20        -0.00179
       7 <- 21        -0.00132
       7 <- 25         0.00099
       7 <- 26        -0.00240
       7 <- 30        -0.00079
       7 <- 31        -0.00136
       7 <- 33         0.00016
       7 <- 38        -0.00081
       7 <- 39         0.00030
       7 <- 44        -0.00036
       7 <- 47        -0.00011
       7 <- 51        -0.00015
       8 <- 11        -0.01187
       8 <- 16         0.00517
       8 <- 19        -0.01614
       8 <- 22        -0.00433
       8 <- 24         0.00406
       8 <- 29        -0.00255
       8 <- 32         0.00190
       8 <- 37        -0.00275
       8 <- 40        -0.00021
       8 <- 43         0.00152
       8 <- 46        -0.00097
       8 <- 50         0.00022

 Excited State   5:      Singlet-A2     8.3155 eV  149.10 nm  f=0.0000  <S**2>=0.000
       3 -> 28         0.00244
       3 -> 35         0.00148
       3 -> 45         0.00046
       4 -> 10        -0.00030
       4 -> 14        -0.00598
       4 -> 17        -0.00177
       4 -> 23         0.00312
       4 -> 27         0.00054
       4 -> 34         0.00066
       4 -> 36         0.00221
       4 -> 41        -0.00014
       4 -> 52         0.00025
       5 -> 16        -0.00024
       5 -> 19        -0.00047
       5 -> 22         0.00118
       5 -> 24        -0.00073
       5 -> 29        -0.00010
       5 -> 37         0.00040
       5 -> 40        -0.00017
       5 -> 43         0.00057
       5 -> 46         0.00039
       5 -> 50        -0.00013
       5 -> 54         0.00011
       6 -> 28         0.00260
       6 -> 35        -0.00064
       7 -> 28        -0.00152
       7 -> 35         0.00036
       7 -> 45         0.00039
       8 -> 10         0.01691
       8 -> 14         0.70313
       8 -> 17         0.07051
       8 -> 23        -0.01836
       8 -> 27        -0.00215
       8 -> 34        -0.00276
       8 -> 36         0.00275
       8 -> 41        -0.00019
       8 -> 52        -0.00034
       3 <- 28         0.00170
       3 <- 35         0.00120
       3 <- 45         0.00050
       4 <- 10         0.00031
       4 <- 14        -0.00055
       4 <- 17        -0.00062
       4 <- 23         0.00023
       4 <- 27         0.00030
       4 <- 34        -0.00059
       4 <- 36         0.00086
       4 <- 41         0.00022
       5 <- 11         0.00040
       5 <- 16        -0.00014
       5 <- 19        -0.00031
       5 <- 22         0.00138
       5 <- 24        -0.00139
       5 <- 29        -0.00035
       5 <- 32        -0.00048
       5 <- 37         0.00098
       5 <- 43         0.00062
       5 <- 46         0.00013
       5 <- 54         0.00023
       6 <- 28         0.00271
       6 <- 35        -0.00059
       6 <- 45        -0.00013
       7 <- 28        -0.00141
       7 <- 45         0.00022
       8 <- 10         0.00436
       8 <- 14        -0.00206
       8 <- 17        -0.00462
       8 <- 23         0.00080
       8 <- 27         0.00044
       8 <- 34        -0.00304
       8 <- 36         0.00144
       8 <- 41        -0.00024
       8 <- 52        -0.00014

 The electronic state is 1-A1.
 Alpha  occ. eigenvalues --  -19.24171 -10.38980  -1.28684  -0.84771  -0.81974
 Alpha  occ. eigenvalues --   -0.58260  -0.53255  -0.19916
 Alpha virt. eigenvalues --    0.00471   0.02662   0.04426   0.04701   0.14280
 Alpha virt. eigenvalues --    0.15716   0.17951   0.17980   0.21811   0.22588
 Alpha virt. eigenvalues --    0.27942   0.36604   0.50693   0.57546   0.60122

 Mulliken charges:
               1
     1  C    0.250697
     2  H   -0.117511
     3  H   -0.117511
     4  O   -0.015674
 Sum of Mulliken charges =  -0.00000

 Dipole moment (field-independent basis, Debye):
    X=              0.0000    Y=              0.0000    Z=              1.4379  Tot=              1.4379
 Quadrupole moment (field-independent basis, Debye-Ang):
   XX=            -10.1159   YY=            -13.9936   ZZ=            -13.6928
   XY=             -0.0000   XZ=             -0.0000   YZ=             -0.0000

 Normal termination of Gaussian 16 at Fri Sep 17 10:52:24 2021.
