 Gaussian 16, Revision A.03,
 Gaussian 16:  ES64L-G16RevA.03 25-Dec-2016

 --------------------------------------------------------------------
 #p B3LYP/6-311+G** #p TD=(singlets,nstates=30)IOp(6/8=3) IOp(9/40=4)
 --------------------------------------------------------------------

 -------------------------------
 Scan Step 264, Bond Length 1.82
 -------------------------------
 Symbolic Z-matrix:
 Charge =  0 Multiplicity = 1

                         Standard orientation:
 ---------------------------------------------------------------------
 Center     Atomic      Atomic             Coordinates (Angstroms)
 Number     Number       Type             X           Y           Z
 ---------------------------------------------------------------------
      1          6           0        0.000000   -0.000000   -0.836081
      2          1           0        0.000000    0.937260   -1.427431
      3          1           0       -0.000000   -0.937260   -1.427431
      4          8           0        0.000000    0.000000    0.983919
 ---------------------------------------------------------------------

 SCF Done:  E(RB3LYP) =  -114.350011728     A.U. after   11 cycles

 Excitation energies and oscillator strengths:

 Excited State   1:      Singlet-A2     1.3187 eV  940.16 nm  f=0.0000  <S**2>=0.000
       3 -> 27         0.00074
       3 -> 38         0.00047
       3 -> 46         0.00335
       4 -> 27         0.00040
       4 -> 46        -0.00098
       5 ->  9         0.00195
       5 -> 13         0.00111
       5 -> 18         0.00176
       5 -> 23         0.00139
       5 -> 28         0.00137
       5 -> 37         0.00077
       5 -> 44         0.00021
       5 -> 52         0.00018
       6 -> 27        -0.00058
       6 -> 38        -0.00058
       6 -> 46         0.00096
       7 -> 12        -0.00126
       7 -> 16         0.00528
       7 -> 19        -0.00465
       7 -> 22        -0.00111
       7 -> 25        -0.00059
       7 -> 29        -0.00189
       7 -> 33         0.00028
       7 -> 49         0.00013
       7 -> 53         0.00039
       8 ->  9         0.71068
       8 -> 13        -0.00710
       8 -> 18         0.02087
       8 -> 23        -0.00107
       8 -> 28         0.01035
       8 -> 31         0.00160
       8 -> 37         0.00050
       8 -> 48        -0.00030
       8 -> 52         0.00186
       3 <- 27         0.00021
       3 <- 38         0.00024
       3 <- 46         0.00337
       4 <- 27         0.00074
       4 <- 38         0.00019
       4 <- 46        -0.00077
       5 <-  9         0.00032
       5 <- 13        -0.00035
       5 <- 18        -0.00040
       5 <- 23         0.00017
       5 <- 28        -0.00029
       5 <- 31         0.00023
       5 <- 37         0.00045
       6 <- 38        -0.00044
       6 <- 46         0.00071
       7 <- 12         0.00174
       7 <- 16        -0.01054
       7 <- 19         0.00548
       7 <- 22         0.00581
       7 <- 25        -0.00063
       7 <- 29         0.00561
       7 <- 33        -0.00035
       7 <- 35         0.00019
       7 <- 40        -0.00013
       7 <- 42        -0.00012
       7 <- 49        -0.00048
       7 <- 53         0.00145
       8 <-  9        -0.07387
       8 <- 13        -0.00039
       8 <- 18        -0.00767
       8 <- 23        -0.00030
       8 <- 28        -0.00274
       8 <- 31        -0.00080
       8 <- 37        -0.00021
       8 <- 48         0.00013
       8 <- 52         0.00045
 This state for optimization and/or second-order correction.
 Total Energy, E(TD-HF/TD-DFT) =  -114.301548573
 Copying the excited state density for this state as the 1-particle RhoCI density.

 Excited State   2:      Singlet-A1     3.4696 eV  357.35 nm  f=0.0330  <S**2>=0.000
       3 -> 10        -0.01510
       3 -> 11        -0.00341
       3 -> 14         0.00176
       3 -> 15         0.00056
       3 -> 17        -0.00310
       3 -> 20        -0.00360
       3 -> 21         0.00039
       3 -> 24         0.00062
       3 -> 26         0.00147
       3 -> 30        -0.00070
       3 -> 32         0.00277
       3 -> 34        -0.00112
       3 -> 36        -0.00101
       3 -> 39         0.00044
       3 -> 43         0.00053
       3 -> 45        -0.00093
       3 -> 47         0.00231
       3 -> 50         0.00153
       4 -> 10        -0.00197
       4 -> 11         0.01073
       4 -> 14         0.00202
       4 -> 15        -0.00792
       4 -> 17         0.00229
       4 -> 20         0.00230
       4 -> 21         0.00029
       4 -> 24        -0.00386
       4 -> 26         0.00343
       4 -> 30         0.00040
       4 -> 32        -0.00125
       4 -> 34         0.00083
       4 -> 36         0.00016
       4 -> 39         0.00019
       4 -> 43        -0.00048
       4 -> 45         0.00078
       4 -> 47        -0.00080
       4 -> 50        -0.00028
       4 -> 54         0.00015
       5 -> 12         0.01008
       5 -> 16         0.00309
       5 -> 19         0.00119
       5 -> 22         0.00692
       5 -> 25        -0.00483
       5 -> 29         0.00033
       5 -> 33        -0.00246
       5 -> 35         0.00274
       5 -> 40        -0.00103
       5 -> 42        -0.00097
       5 -> 49         0.00016
       5 -> 51        -0.00084
       6 -> 10         0.24697
       6 -> 11         0.04017
       6 -> 14        -0.04545
       6 -> 15        -0.02456
       6 -> 17        -0.01607
       6 -> 20        -0.00200
       6 -> 21         0.00592
       6 -> 24        -0.00830
       6 -> 26        -0.00340
       6 -> 30        -0.00450
       6 -> 32         0.00378
       6 -> 34        -0.00139
       6 -> 36         0.00043
       6 -> 39         0.00132
       6 -> 41        -0.00013
       6 -> 43         0.00083
       6 -> 45        -0.00087
       6 -> 47         0.00081
       6 -> 50         0.00058
       6 -> 54        -0.00095
       7 ->  9         0.67654
       7 -> 13        -0.00658
       7 -> 18        -0.01088
       7 -> 23        -0.00250
       7 -> 28         0.00111
       7 -> 31        -0.00328
       7 -> 37         0.00131
       7 -> 44        -0.00097
       7 -> 52         0.00106
       8 -> 12        -0.00760
       8 -> 16         0.03840
       8 -> 19        -0.01890
       8 -> 22        -0.01339
       8 -> 29        -0.00825
       8 -> 33         0.00102
       8 -> 35        -0.00080
       8 -> 40         0.00032
       8 -> 42         0.00027
       8 -> 49         0.00014
       8 -> 51         0.00015
       8 -> 53        -0.00052
       3 <- 10        -0.01177
       3 <- 11        -0.00301
       3 <- 14         0.00147
       3 <- 17        -0.00177
       3 <- 20        -0.00307
       3 <- 24         0.00010
       3 <- 26         0.00052
       3 <- 30        -0.00026
       3 <- 32         0.00243
       3 <- 34        -0.00059
       3 <- 36        -0.00100
       3 <- 39         0.00040
       3 <- 43         0.00058
       3 <- 45        -0.00107
       3 <- 47         0.00232
       3 <- 50         0.00153
       4 <- 10        -0.00014
       4 <- 11         0.00778
       4 <- 14         0.00152
       4 <- 15        -0.00539
       4 <- 17         0.00137
       4 <- 20         0.00271
       4 <- 21         0.00012
       4 <- 24        -0.00293
       4 <- 26         0.00301
       4 <- 30        -0.00020
       4 <- 32        -0.00134
       4 <- 34         0.00070
       4 <- 36         0.00044
       4 <- 39         0.00020
       4 <- 43        -0.00043
       4 <- 45         0.00073
       4 <- 47        -0.00049
       4 <- 50        -0.00015
       4 <- 54         0.00012
       5 <- 12         0.00597
       5 <- 16         0.00202
       5 <- 19         0.00095
       5 <- 22         0.00495
       5 <- 25        -0.00375
       5 <- 29         0.00035
       5 <- 33        -0.00204
       5 <- 35         0.00236
       5 <- 40        -0.00093
       5 <- 42        -0.00085
       5 <- 49         0.00016
       5 <- 51        -0.00079
       6 <- 10         0.08400
       6 <- 11         0.01648
       6 <- 14        -0.02180
       6 <- 15        -0.01297
       6 <- 17        -0.00960
       6 <- 20        -0.00254
       6 <- 21         0.00409
       6 <- 24        -0.00548
       6 <- 26        -0.00177
       6 <- 30        -0.00301
       6 <- 32         0.00373
       6 <- 34        -0.00156
       6 <- 39         0.00120
       6 <- 41        -0.00012
       6 <- 43         0.00068
       6 <- 45        -0.00064
       6 <- 47         0.00047
       6 <- 50         0.00044
       6 <- 54        -0.00087
       7 <-  9        -0.13093
       7 <- 13         0.00363
       7 <- 18        -0.01152
       7 <- 23         0.00095
       7 <- 28        -0.00183
       7 <- 31        -0.00159
       7 <- 37         0.00062
       7 <- 44        -0.00077
       7 <- 48        -0.00041
       7 <- 52         0.00097
       8 <- 12        -0.00304
       8 <- 16         0.01893
       8 <- 19        -0.01077
       8 <- 22        -0.00878
       8 <- 25         0.00012
       8 <- 29        -0.00658
       8 <- 33         0.00081
       8 <- 35        -0.00063
       8 <- 40         0.00025
       8 <- 42         0.00022
       8 <- 51         0.00013
       8 <- 53        -0.00048

 Excited State   3:      Singlet-B2     3.8402 eV  322.86 nm  f=0.0028  <S**2>=0.000
       3 -> 12        -0.00125
       3 -> 16         0.00138
       3 -> 19        -0.00403
       3 -> 22         0.00104
       3 -> 25        -0.00086
       3 -> 29        -0.00269
       3 -> 33         0.00019
       3 -> 35         0.00151
       3 -> 40        -0.00136
       3 -> 42        -0.00052
       3 -> 49        -0.00380
       3 -> 51         0.00018
       3 -> 53         0.00028
       4 -> 12         0.00041
       4 -> 16        -0.00158
       4 -> 19         0.00039
       4 -> 22         0.00188
       4 -> 25         0.00071
       4 -> 29         0.00097
       4 -> 33        -0.00035
       4 -> 35         0.00044
       4 -> 40         0.00031
       4 -> 42         0.00012
       4 -> 49         0.00072
       4 -> 51        -0.00010
       5 -> 10         0.01038
       5 -> 11         0.00150
       5 -> 14        -0.00391
       5 -> 15         0.00338
       5 -> 17        -0.00049
       5 -> 20         0.00201
       5 -> 21         0.00335
       5 -> 24         0.00148
       5 -> 26        -0.00063
       5 -> 30        -0.00208
       5 -> 32        -0.00146
       5 -> 34         0.00033
       5 -> 39        -0.00071
       5 -> 41         0.00044
       5 -> 47        -0.00044
       5 -> 50         0.00028
       5 -> 54        -0.00020
       6 -> 12         0.00252
       6 -> 16        -0.00269
       6 -> 19         0.00408
       6 -> 22        -0.00060
       6 -> 25         0.00112
       6 -> 35        -0.00133
       6 -> 40         0.00092
       6 -> 42         0.00067
       6 -> 49         0.00130
       6 -> 53        -0.00045
       7 -> 27        -0.00056
       7 -> 38         0.00038
       7 -> 46         0.00317
       8 -> 10         0.70167
       8 -> 11         0.06696
       8 -> 14        -0.06110
       8 -> 15        -0.02437
       8 -> 17        -0.01648
       8 -> 20         0.00431
       8 -> 21         0.00633
       8 -> 24        -0.00604
       8 -> 26        -0.00464
       8 -> 30        -0.01279
       8 -> 32        -0.00207
       8 -> 34         0.00129
       8 -> 36         0.00129
       8 -> 39        -0.00058
       8 -> 41        -0.00015
       8 -> 45        -0.00087
       8 -> 47        -0.00392
       8 -> 50         0.00156
       8 -> 54        -0.00240
       3 <- 12        -0.00044
       3 <- 16         0.00047
       3 <- 19        -0.00198
       3 <- 22         0.00094
       3 <- 25        -0.00077
       3 <- 29        -0.00109
       3 <- 33         0.00020
       3 <- 35         0.00103
       3 <- 40        -0.00118
       3 <- 42        -0.00038
       3 <- 49        -0.00386
       3 <- 51         0.00017
       3 <- 53         0.00076
       4 <- 16        -0.00176
       4 <- 19         0.00018
       4 <- 22         0.00217
       4 <- 25         0.00041
       4 <- 29         0.00116
       4 <- 33        -0.00037
       4 <- 35         0.00064
       4 <- 40         0.00013
       4 <- 49         0.00051
       5 <- 10        -0.00090
       5 <- 11        -0.00073
       5 <- 14        -0.00051
       5 <- 15         0.00264
       5 <- 17         0.00020
       5 <- 20         0.00077
       5 <- 21         0.00171
       5 <- 24         0.00171
       5 <- 26        -0.00015
       5 <- 30        -0.00044
       5 <- 32        -0.00031
       5 <- 39        -0.00031
       5 <- 41         0.00047
       5 <- 45        -0.00024
       5 <- 47        -0.00044
       5 <- 50         0.00015
       6 <- 12        -0.00068
       6 <- 16         0.00757
       6 <- 19        -0.00398
       6 <- 22        -0.00512
       6 <- 25         0.00116
       6 <- 29        -0.00600
       6 <- 33         0.00025
       6 <- 35        -0.00119
       6 <- 40         0.00093
       6 <- 42         0.00070
       6 <- 49         0.00176
       6 <- 53        -0.00140
       7 <- 27        -0.00056
       7 <- 38         0.00031
       7 <- 46         0.00273
       8 <- 10        -0.04029
       8 <- 11        -0.00769
       8 <- 14         0.00806
       8 <- 15         0.00229
       8 <- 17         0.00177
       8 <- 20        -0.00316
       8 <- 21        -0.00145
       8 <- 24         0.00156
       8 <- 26         0.00131
       8 <- 30         0.00127
       8 <- 32         0.00296
       8 <- 34        -0.00089
       8 <- 36        -0.00075
       8 <- 39         0.00117
       8 <- 41         0.00024
       8 <- 43         0.00045
       8 <- 45        -0.00163
       8 <- 47        -0.00322
       8 <- 50         0.00122
       8 <- 54        -0.00065

 Excited State   4:      Singlet-B1     3.9388 eV  314.77 nm  f=0.0004  <S**2>=0.000
       3 ->  9        -0.02345
       3 -> 13         0.00090
       3 -> 18        -0.00377
       3 -> 23         0.00125
       3 -> 28        -0.00094
       3 -> 31        -0.00074
       3 -> 37         0.00015
       3 -> 44         0.00033
       3 -> 48         0.00037
       3 -> 52         0.00073
       4 ->  9         0.00696
       4 -> 13        -0.00164
       4 -> 18         0.00015
       4 -> 23        -0.00148
       4 -> 28         0.00053
       4 -> 31        -0.00120
       4 -> 37        -0.00025
       4 -> 48        -0.00051
       4 -> 52        -0.00031
       5 -> 27        -0.00028
       5 -> 38         0.00149
       5 -> 46         0.00047
       6 ->  9         0.66124
       6 -> 13        -0.01670
       6 -> 18         0.01406
       6 -> 23        -0.01001
       6 -> 28         0.00361
       6 -> 31         0.00210
       6 -> 37        -0.00142
       6 -> 44        -0.00178
       6 -> 48         0.00334
       6 -> 52         0.00095
       7 -> 10         0.25368
       7 -> 11         0.02772
       7 -> 14        -0.02654
       7 -> 15        -0.00922
       7 -> 17        -0.01016
       7 -> 20         0.00380
       7 -> 21         0.00180
       7 -> 24        -0.00309
       7 -> 26        -0.00308
       7 -> 30        -0.00507
       7 -> 32         0.00021
       7 -> 34        -0.00046
       7 -> 36         0.00139
       7 -> 39         0.00017
       7 -> 41        -0.00019
       7 -> 43         0.00048
       7 -> 45        -0.00063
       7 -> 47         0.00358
       7 -> 50         0.00121
       7 -> 54        -0.00023
       8 -> 27         0.00012
       8 -> 46         0.00439
       3 <-  9        -0.00786
       3 <- 13        -0.00081
       3 <- 18        -0.00252
       3 <- 23        -0.00051
       3 <- 28        -0.00053
       3 <- 31        -0.00077
       3 <- 37         0.00016
       3 <- 48         0.00047
       3 <- 52         0.00070
       4 <-  9         0.00462
       4 <- 13        -0.00026
       4 <- 18         0.00142
       4 <- 23        -0.00056
       4 <- 28         0.00143
       4 <- 31        -0.00085
       4 <- 37        -0.00015
       4 <- 44        -0.00016
       4 <- 48        -0.00047
       4 <- 52        -0.00016
       5 <- 27        -0.00067
       5 <- 38         0.00130
       5 <- 46         0.00041
       6 <-  9        -0.04137
       6 <- 13         0.00215
       6 <- 18        -0.00494
       6 <- 23         0.00020
       6 <- 28        -0.00403
       6 <- 31        -0.00011
       6 <- 37        -0.00112
       6 <- 44        -0.00047
       6 <- 48         0.00303
       7 <- 10        -0.04804
       7 <- 11        -0.00924
       7 <- 14         0.01326
       7 <- 15         0.00827
       7 <- 17         0.00306
       7 <- 20         0.00266
       7 <- 21        -0.00336
       7 <- 24         0.00402
       7 <- 26         0.00178
       7 <- 30         0.00208
       7 <- 32         0.00031
       7 <- 34        -0.00089
       7 <- 36         0.00126
       7 <- 39         0.00059
       7 <- 41         0.00017
       7 <- 43         0.00027
       7 <- 45        -0.00037
       7 <- 47         0.00332
       7 <- 50         0.00133
       7 <- 54         0.00078
       8 <- 27         0.00056
       8 <- 38         0.00011
       8 <- 46         0.00409

 Excited State   5:      Singlet-B1     4.6333 eV  267.59 nm  f=0.0069  <S**2>=0.000
       3 ->  9        -0.00464
       3 -> 13         0.00017
       3 -> 18        -0.00198
       3 -> 23         0.00041
       3 -> 28        -0.00256
       3 -> 31        -0.00141
       3 -> 37         0.00010
       3 -> 44         0.00014
       3 -> 48        -0.00309
       3 -> 52        -0.00020
       4 ->  9        -0.03047
       4 -> 13         0.00601
       4 -> 18         0.00091
       4 -> 23         0.00465
       4 -> 28         0.00109
       4 -> 31         0.00033
       4 -> 37         0.00033
       4 -> 44        -0.00043
       4 -> 48         0.00086
       4 -> 52         0.00017
       5 -> 27        -0.00640
       5 -> 38        -0.00345
       5 -> 46         0.00019
       6 ->  9        -0.25324
       6 -> 13         0.00242
       6 -> 23         0.00196
       6 -> 28         0.00276
       6 -> 31        -0.00392
       6 -> 37         0.00240
       6 -> 44         0.00080
       6 -> 48        -0.00038
       6 -> 52        -0.00082
       7 -> 10         0.65524
       7 -> 11         0.05395
       7 -> 14        -0.05212
       7 -> 15        -0.02982
       7 -> 17        -0.00874
       7 -> 20        -0.00244
       7 -> 21         0.00320
       7 -> 24        -0.00914
       7 -> 26        -0.00568
       7 -> 30        -0.00726
       7 -> 32        -0.00143
       7 -> 34         0.00366
       7 -> 36        -0.00138
       7 -> 39        -0.00063
       7 -> 43         0.00052
       7 -> 45        -0.00092
       7 -> 47         0.00077
       7 -> 50         0.00034
       7 -> 54        -0.00167
       8 -> 27         0.00063
       8 -> 38         0.00020
       8 -> 46         0.00094
       3 <-  9        -0.00085
       3 <- 13         0.00073
       3 <- 18        -0.00069
       3 <- 23         0.00062
       3 <- 28        -0.00175
       3 <- 31        -0.00014
       3 <- 37        -0.00024
       3 <- 48        -0.00321
       3 <- 52         0.00023
       4 <-  9        -0.01361
       4 <- 13         0.00281
       4 <- 18         0.00018
       4 <- 23         0.00278
       4 <- 28         0.00103
       4 <- 31         0.00016
       4 <- 37         0.00036
       4 <- 44        -0.00062
       4 <- 48         0.00045
       4 <- 52         0.00014
       5 <- 27        -0.00460
       5 <- 38        -0.00282
       5 <- 46         0.00021
       6 <-  9        -0.02724
       6 <- 13        -0.00024
       6 <- 18        -0.00336
       6 <- 23         0.00062
       6 <- 28        -0.00010
       6 <- 31        -0.00469
       6 <- 37         0.00226

 The electronic state is 1-A1.
 Alpha  occ. eigenvalues --  -19.17723 -10.33901  -0.89341  -0.71367  -0.49220
 Alpha  occ. eigenvalues --   -0.39011  -0.30804  -0.28717
 Alpha virt. eigenvalues --   -0.17078  -0.07011  -0.00024   0.04047   0.06093
 Alpha virt. eigenvalues --    0.06475   0.11798   0.13362   0.18741   0.21027
 Alpha virt. eigenvalues --    0.23953   0.30401   0.38534   0.39636   0.50640

 Mulliken charges:
               1
     1  C   -0.096350
     2  H    0.191940
     3  H    0.191940
     4  O   -0.287530
 Sum of Mulliken charges =  -0.00000

 Dipole moment (field-independent basis, Debye):
    X=             -0.0000    Y=              0.0000    Z=             -4.1637  Tot=              4.1637
 Quadrupole moment (field-independent basis, Debye-Ang):
   XX=            -13.0303   YY=            -12.0345   ZZ=            -10.6645
   XY=              0.0000   XZ=              0.0000   YZ=             -0.0000

 Normal termination of Gaussian 16 at Fri Sep 17 10:53:09 2021.
