 Gaussian 16, Revision A.03,
 Gaussian 16:  ES64L-G16RevA.03 25-Dec-2016

 --------------------------------------------------------------------
 #p B3LYP/6-311+G** #p TD=(singlets,nstates=30)IOp(6/8=3) IOp(9/40=4)
 --------------------------------------------------------------------

 --------------------------------
 Scan Step 241, Bond Length 1.705
 --------------------------------
 Symbolic Z-matrix:
 Charge =  0 Multiplicity = 1

                         Standard orientation:
 ---------------------------------------------------------------------
 Center     Atomic      Atomic             Coordinates (Angstroms)
 Number     Number       Type             X           Y           Z
 ---------------------------------------------------------------------
      1          6           0        0.000000    0.000000   -0.778581
      2          1           0        0.000000    0.937260   -1.369931
      3          1           0       -0.000000   -0.937260   -1.369931
      4          8           0        0.000000   -0.000000    0.926419
 ---------------------------------------------------------------------

 SCF Done:  E(RB3LYP) =  -114.389332287     A.U. after   11 cycles

 Excitation energies and oscillator strengths:

 Excited State   1:      Singlet-A2     1.6291 eV  761.08 nm  f=0.0000  <S**2>=0.000
       3 -> 27         0.00094
       3 -> 38         0.00065
       3 -> 46         0.00335
       4 -> 27         0.00054
       4 -> 46        -0.00116
       5 ->  9         0.00439
       5 -> 13         0.00109
       5 -> 18         0.00228
       5 -> 23         0.00155
       5 -> 28         0.00190
       5 -> 37         0.00104
       5 -> 44         0.00027
       5 -> 52         0.00026
       6 -> 27        -0.00062
       6 -> 38        -0.00068
       6 -> 46         0.00115
       7 -> 12        -0.00107
       7 -> 16         0.00505
       7 -> 19        -0.00433
       7 -> 22        -0.00098
       7 -> 25         0.00076
       7 -> 29        -0.00172
       7 -> 33         0.00032
       7 -> 49         0.00012
       7 -> 50         0.00012
       7 -> 53         0.00042
       8 ->  9         0.70947
       8 -> 13        -0.00982
       8 -> 18         0.02130
       8 -> 23        -0.00212
       8 -> 28         0.01079
       8 -> 31         0.00142
       8 -> 37         0.00057
       8 -> 48        -0.00031
       8 -> 52         0.00191
       3 <- 27         0.00036
       3 <- 38         0.00040
       3 <- 46         0.00339
       4 <- 27         0.00096
       4 <- 38         0.00022
       4 <- 46        -0.00092
       5 <- 13        -0.00043
       5 <- 18        -0.00053
       5 <- 23         0.00022
       5 <- 28        -0.00037
       5 <- 31         0.00028
       5 <- 37         0.00060
       6 <- 38        -0.00054
       6 <- 46         0.00087
       7 <- 12         0.00118
       7 <- 16        -0.01039
       7 <- 19         0.00461
       7 <- 22         0.00643
       7 <- 25         0.00060
       7 <- 29         0.00547
       7 <- 33        -0.00041
       7 <- 35         0.00046
       7 <- 40        -0.00030
       7 <- 42         0.00016
       7 <- 49        -0.00046
       7 <- 53         0.00146
       8 <-  9        -0.06201
       8 <- 18        -0.00716
       8 <- 28        -0.00259
       8 <- 31        -0.00072
       8 <- 37        -0.00032
       8 <- 48         0.00012
       8 <- 52         0.00048
 This state for optimization and/or second-order correction.
 Total Energy, E(TD-HF/TD-DFT) =  -114.329465640
 Copying the excited state density for this state as the 1-particle RhoCI density.

 Excited State   2:      Singlet-A1     4.2496 eV  291.75 nm  f=0.0516  <S**2>=0.000
       3 -> 10        -0.01792
       3 -> 11        -0.00701
       3 -> 14         0.00561
       3 -> 15         0.00210
       3 -> 17        -0.00334
       3 -> 20        -0.00394
       3 -> 21        -0.00022
       3 -> 24         0.00145
       3 -> 26         0.00260
       3 -> 30        -0.00127
       3 -> 32         0.00276
       3 -> 34         0.00161
       3 -> 36        -0.00118
       3 -> 39         0.00063
       3 -> 43         0.00050
       3 -> 45         0.00054
       3 -> 47         0.00229
       3 -> 51         0.00131
       4 -> 10        -0.00549
       4 -> 11         0.01267
       4 -> 14         0.00335
       4 -> 15        -0.00913
       4 -> 17         0.00276
       4 -> 20         0.00364
       4 -> 21         0.00037
       4 -> 24        -0.00438
       4 -> 26         0.00429
       4 -> 30         0.00085
       4 -> 32        -0.00136
       4 -> 34        -0.00119
       4 -> 36         0.00036
       4 -> 41         0.00011
       4 -> 43        -0.00051
       4 -> 45        -0.00082
       4 -> 47        -0.00099
       4 -> 51        -0.00032
       4 -> 54         0.00014
       5 -> 12         0.01340
       5 -> 16         0.00644
       5 -> 19         0.00137
       5 -> 22         0.00747
       5 -> 25         0.00650
       5 -> 29         0.00016
       5 -> 33        -0.00276
       5 -> 35         0.00278
       5 -> 40        -0.00130
       5 -> 42         0.00079
       5 -> 49         0.00032
       5 -> 50        -0.00076
       6 -> 10         0.21085
       6 -> 11         0.06790
       6 -> 14        -0.07235
       6 -> 15        -0.03831
       6 -> 17        -0.01827
       6 -> 20        -0.00575
       6 -> 21         0.00941
       6 -> 24        -0.01097
       6 -> 26        -0.00499
       6 -> 30        -0.00661
       6 -> 32         0.00200
       6 -> 34         0.00141
       6 -> 39         0.00107
       6 -> 41        -0.00025
       6 -> 43         0.00086
       6 -> 45         0.00083
       6 -> 47         0.00100
       6 -> 51         0.00073
       6 -> 54        -0.00083
       7 ->  9         0.68068
       7 -> 13        -0.00362
       7 -> 18        -0.01452
       7 -> 23        -0.00143
       7 -> 31        -0.00320
       7 -> 37         0.00114
       7 -> 44        -0.00101
       7 -> 48         0.00025
       7 -> 52         0.00106
       8 -> 12        -0.00791
       8 -> 16         0.05253
       8 -> 19        -0.02175
       8 -> 22        -0.01947
       8 -> 25         0.00020
       8 -> 29        -0.01015
       8 -> 33         0.00152
       8 -> 35        -0.00159
       8 -> 40         0.00075
       8 -> 42        -0.00036
       8 -> 49         0.00039
       8 -> 50         0.00019
       8 -> 53        -0.00060
       3 <- 10        -0.01300
       3 <- 11        -0.00547
       3 <- 14         0.00442
       3 <- 15         0.00121
       3 <- 17        -0.00181
       3 <- 20        -0.00310
       3 <- 21        -0.00066
       3 <- 24         0.00075
       3 <- 26         0.00137
       3 <- 30        -0.00075
       3 <- 32         0.00249
       3 <- 34         0.00094
       3 <- 36        -0.00106
       3 <- 39         0.00059
       3 <- 43         0.00059
       3 <- 45         0.00071
       3 <- 47         0.00234
       3 <- 51         0.00129
       3 <- 54         0.00018
       4 <- 10        -0.00226
       4 <- 11         0.00849
       4 <- 14         0.00200
       4 <- 15        -0.00578
       4 <- 17         0.00152
       4 <- 20         0.00356
       4 <- 21         0.00023
       4 <- 24        -0.00315
       4 <- 26         0.00357
       4 <- 30         0.00015
       4 <- 32        -0.00159
       4 <- 34        -0.00102
       4 <- 36         0.00064
       4 <- 43        -0.00048
       4 <- 45        -0.00083
       4 <- 47        -0.00063
       4 <- 51        -0.00018
       4 <- 54         0.00010
       5 <- 12         0.00693
       5 <- 16         0.00371
       5 <- 19         0.00102
       5 <- 22         0.00498
       5 <- 25         0.00472
       5 <- 29         0.00024
       5 <- 33        -0.00222
       5 <- 35         0.00233
       5 <- 40        -0.00116
       5 <- 42         0.00067
       5 <- 49         0.00029
       5 <- 50        -0.00071
       6 <- 10         0.06790
       6 <- 11         0.02440
       6 <- 14        -0.03113
       6 <- 15        -0.01813
       6 <- 17        -0.00986
       6 <- 20        -0.00453
       6 <- 21         0.00592
       6 <- 24        -0.00696
       6 <- 26        -0.00283
       6 <- 30        -0.00463
       6 <- 32         0.00231
       6 <- 34         0.00165
       6 <- 36        -0.00052
       6 <- 39         0.00105
       6 <- 41        -0.00019
       6 <- 43         0.00072
       6 <- 45         0.00066
       6 <- 47         0.00060
       6 <- 51         0.00058
       6 <- 54        -0.00073
       7 <-  9        -0.12897
       7 <- 13         0.00552
       7 <- 18        -0.01282
       7 <- 23         0.00217
       7 <- 28        -0.00284
       7 <- 31        -0.00155
       7 <- 37         0.00050
       7 <- 44        -0.00069
       7 <- 48        -0.00030
       7 <- 52         0.00095
       8 <- 12        -0.00246
       8 <- 16         0.02205
       8 <- 19        -0.01081
       8 <- 22        -0.01162
       8 <- 29        -0.00771
       8 <- 33         0.00117
       8 <- 35        -0.00124
       8 <- 40         0.00061
       8 <- 42        -0.00029
       8 <- 49         0.00023
       8 <- 50         0.00016
       8 <- 53        -0.00056

 Excited State   3:      Singlet-B1     4.6805 eV  264.90 nm  f=0.0011  <S**2>=0.000
       3 ->  9        -0.02627
       3 -> 13         0.00127
       3 -> 18        -0.00411
       3 -> 23         0.00146
       3 -> 28        -0.00078
       3 -> 31        -0.00052
       3 -> 44         0.00025
       3 -> 48         0.00095
       3 -> 52         0.00087
       4 ->  9         0.01180
       4 -> 13        -0.00249
       4 -> 18         0.00015
       4 -> 23        -0.00223
       4 -> 28         0.00033
       4 -> 31        -0.00138
       4 -> 37        -0.00036
       4 -> 44         0.00012
       4 -> 48        -0.00087
       4 -> 52        -0.00046
       5 -> 27         0.00015
       5 -> 38         0.00196
       5 -> 46         0.00066
       6 ->  9         0.69982
       6 -> 13        -0.01843
       6 -> 18         0.01547
       6 -> 23        -0.01059
       6 -> 28         0.00377
       6 -> 31         0.00285
       6 -> 37        -0.00192
       6 -> 44        -0.00241
       6 -> 48         0.00380
       6 -> 52         0.00126
       7 -> 10         0.09917
       7 -> 11         0.02564
       7 -> 14        -0.02136
       7 -> 15        -0.00617
       7 -> 17        -0.00897
       7 -> 20         0.00335
       7 -> 21         0.00086
       7 -> 24        -0.00133
       7 -> 26        -0.00204
       7 -> 30        -0.00391
       7 -> 32        -0.00029
       7 -> 34         0.00092
       7 -> 36         0.00163
       7 -> 39         0.00017
       7 -> 41        -0.00034
       7 -> 43         0.00050
       7 -> 45         0.00018
       7 -> 47         0.00391
       7 -> 51         0.00121
       7 -> 54         0.00022
       8 -> 27         0.00025
       8 -> 46         0.00484
       3 <-  9        -0.00887
       3 <- 13        -0.00080
       3 <- 18        -0.00270
       3 <- 23        -0.00061
       3 <- 28        -0.00045
       3 <- 31        -0.00072
       3 <- 37         0.00013
       3 <- 44        -0.00016
       3 <- 48         0.00109
       3 <- 52         0.00073
       4 <-  9         0.00652
       4 <- 13        -0.00041
       4 <- 18         0.00169
       4 <- 23        -0.00074
       4 <- 28         0.00147
       4 <- 31        -0.00093
       4 <- 37        -0.00022
       4 <- 48        -0.00076
       4 <- 52        -0.00026
       5 <- 27        -0.00042
       5 <- 38         0.00164
       5 <- 46         0.00058
       6 <-  9        -0.02974
       6 <- 13         0.00181
       6 <- 18        -0.00375
       6 <- 23        -0.00016
       6 <- 28        -0.00364
       6 <- 31         0.00080
       6 <- 37        -0.00163
       6 <- 44        -0.00110
       6 <- 48         0.00340
       6 <- 52         0.00033
       7 <- 10        -0.02999
       7 <- 11        -0.01070
       7 <- 14         0.01468
       7 <- 15         0.00989
       7 <- 17         0.00219
       7 <- 20         0.00419
       7 <- 21        -0.00378
       7 <- 24         0.00433
       7 <- 26         0.00169
       7 <- 30         0.00153
       7 <- 32         0.00026
       7 <- 34         0.00109
       7 <- 36         0.00215
       7 <- 39         0.00052
       7 <- 43         0.00031
       7 <- 47         0.00361
       7 <- 51         0.00119
       7 <- 54         0.00099
       8 <- 27         0.00073
       8 <- 38         0.00018
       8 <- 46         0.00453

 Excited State   4:      Singlet-B2     4.9872 eV  248.61 nm  f=0.0064  <S**2>=0.000
       3 -> 12        -0.00143
       3 -> 16         0.00185
       3 -> 19        -0.00454
       3 -> 22         0.00081
       3 -> 25         0.00073
       3 -> 29        -0.00318
       3 -> 35         0.00197
       3 -> 40        -0.00172
       3 -> 42         0.00042
       3 -> 49        -0.00334
       3 -> 50         0.00021
       3 -> 53         0.00031
       4 -> 12         0.00046
       4 -> 16        -0.00217
       4 -> 19         0.00041
       4 -> 22         0.00248
       4 -> 25        -0.00121
       4 -> 29         0.00130
       4 -> 33        -0.00043
       4 -> 35         0.00051
       4 -> 40         0.00044
       4 -> 49         0.00062
       4 -> 50        -0.00012
       5 -> 10         0.01077
       5 -> 11         0.00328
       5 -> 14        -0.00736
       5 -> 15         0.00422
       5 -> 17        -0.00018
       5 -> 20         0.00215
       5 -> 21         0.00476
       5 -> 24         0.00173
       5 -> 26        -0.00118
       5 -> 30        -0.00197
       5 -> 32        -0.00195
       5 -> 34        -0.00076
       5 -> 36        -0.00018
       5 -> 39        -0.00094
       5 -> 41         0.00059
       5 -> 45         0.00010
       5 -> 47        -0.00067
       5 -> 51         0.00041
       5 -> 54        -0.00024
       6 -> 12         0.00283
       6 -> 16        -0.00228
       6 -> 19         0.00370
       6 -> 22        -0.00044
       6 -> 25        -0.00099
       6 -> 29        -0.00030
       6 -> 33         0.00010
       6 -> 35        -0.00179
       6 -> 40         0.00143
       6 -> 42        -0.00060
       6 -> 49         0.00157
       6 -> 53        -0.00042
       7 -> 27        -0.00066
       7 -> 38         0.00060
       7 -> 46         0.00364
       8 -> 10         0.68597
       8 -> 11         0.13690
       8 -> 14        -0.09733
       8 -> 15        -0.03851
       8 -> 17        -0.01599
       8 -> 20         0.00145
       8 -> 21         0.00749
       8 -> 24        -0.00683
       8 -> 26        -0.00537
       8 -> 30        -0.01140
       8 -> 32        -0.00372
       8 -> 34        -0.00181
       8 -> 36         0.00048
       8 -> 39        -0.00075
       8 -> 43        -0.00018
       8 -> 45         0.00121
       8 -> 47        -0.00448
       8 -> 51         0.00203
       8 -> 54        -0.00212
       3 <- 12        -0.00052
       3 <- 16         0.00056
       3 <- 19        -0.00217
       3 <- 22         0.00096
       3 <- 25         0.00065
       3 <- 29        -0.00126
       3 <- 35         0.00144
       3 <- 40        -0.00150
       3 <- 42         0.00034
       3 <- 49        -0.00342
       3 <- 50         0.00019
       3 <- 53         0.00085
       4 <- 16        -0.00208
       4 <- 22         0.00252
       4 <- 25        -0.00075
       4 <- 29         0.00132
       4 <- 33        -0.00048
       4 <- 35         0.00073
       4 <- 40         0.00016
       4 <- 49         0.00045
       5 <- 10        -0.00062
       5 <- 11        -0.00120
       5 <- 14        -0.00081
       5 <- 15         0.00336
       5 <- 17         0.00020
       5 <- 20         0.00072
       5 <- 21         0.00199
       5 <- 24         0.00214
       5 <- 26        -0.00031
       5 <- 30        -0.00045
       5 <- 32        -0.00026
       5 <- 34        -0.00014
       5 <- 39        -0.00036
       5 <- 41         0.00062
       5 <- 43         0.00010
       5 <- 45         0.00034
       5 <- 47        -0.00061
       5 <- 51         0.00022
       6 <- 12        -0.00027
       6 <- 16         0.00664
       6 <- 19        -0.00315
       6 <- 22        -0.00474
       6 <- 25        -0.00084
       6 <- 29        -0.00551
       6 <- 33         0.00042
       6 <- 35        -0.00173
       6 <- 40         0.00146
       6 <- 42        -0.00067
       6 <- 49         0.00188
       6 <- 53        -0.00126
       7 <- 27        -0.00064
       7 <- 38         0.00048
       7 <- 46         0.00306
       8 <- 10        -0.02704
       8 <- 11        -0.00989
       8 <- 14         0.01034
       8 <- 15         0.00296
       8 <- 17         0.00093
       8 <- 20        -0.00280
       8 <- 21        -0.00197
       8 <- 24         0.00160
       8 <- 26         0.00172
       8 <- 30        -0.00021
       8 <- 32         0.00295
       8 <- 34         0.00115
       8 <- 36        -0.00052
       8 <- 39         0.00146
       8 <- 41         0.00040
       8 <- 43         0.00048
       8 <- 45         0.00198
       8 <- 47        -0.00352
       8 <- 51         0.00136
       8 <- 54        -0.00056

 Excited State   5:      Singlet-B1     5.9513 eV  208.33 nm  f=0.0079  <S**2>=0.000
       3 ->  9        -0.01249
       3 -> 13         0.00070
       3 -> 18        -0.00299
       3 -> 23         0.00087
       3 -> 28        -0.00324
       3 -> 31        -0.00161
       3 -> 44         0.00045
       3 -> 48        -0.00246
       4 ->  9        -0.03341
       4 -> 13         0.00629
       4 -> 18         0.00133
       4 -> 23         0.00463
       4 -> 28         0.00178
       4 -> 37         0.00034
       4 -> 44        -0.00047
       4 -> 48         0.00063
       4 -> 52         0.00012
       5 -> 27        -0.00715
       5 -> 38        -0.00317
       5 -> 46         0.00045
       6 ->  9        -0.10218
       6 -> 13        -0.00228
       6 -> 18         0.00210
       6 -> 23        -0.00062
       6 -> 28         0.00333
       6 -> 31        -0.00366
       6 -> 37         0.00199
       6 -> 44         0.00019
       6 -> 48         0.00069
       6 -> 52        -0.00057
       7 -> 10         0.68250
       7 -> 11         0.11743
       7 -> 14        -0.08733
       7 -> 15        -0.04370
       7 -> 17        -0.00983
       7 -> 20        -0.00427
       7 -> 21         0.00382
       7 -> 24        -0.00996
       7 -> 26        -0.00724
       7 -> 30        -0.00686
       7 -> 32        -0.00193
       7 -> 34        -0.00399
       7 -> 36        -0.00175
       7 -> 39        -0.00066
       7 -> 43         0.00062
       7 -> 45         0.00092
       7 -> 47         0.00182
       7 -> 51         0.00092
       7 -> 54        -0.00144
       8 -> 27         0.00101
       8 -> 38         0.00028
       8 -> 46         0.00215
       3 <-  9        -0.00268
       3 <- 13         0.00065
       3 <- 18        -0.00121
       3 <- 23         0.00060
       3 <- 28        -0.00204
       3 <- 31        -0.00031
       3 <- 37        -0.00020
       3 <- 44         0.00019
       3 <- 48        -0.00264
       3 <- 52         0.00040
       4 <-  9        -0.01151
       4 <- 13         0.00251
       4 <- 18         0.00050
       4 <- 23         0.00240
       4 <- 28         0.00165
       4 <- 31        -0.00022
       4 <- 37         0.00041
       4 <- 44        -0.00068
       4 <- 48         0.00021
       4 <- 52         0.00011
       5 <- 27        -0.00482
       5 <- 38        -0.00245
       5 <- 46         0.00043
       6 <-  9        -0.02612
       6 <- 18        -0.00372
       6 <- 23         0.00035
       6 <- 28        -0.00062
       6 <- 31        -0.00424
       6 <- 37         0.00174

 The electronic state is 1-A1.
 Alpha  occ. eigenvalues --  -19.17509 -10.33325  -0.90919  -0.70559  -0.48996
 Alpha  occ. eigenvalues --   -0.40353  -0.31866  -0.28863
 Alpha virt. eigenvalues --   -0.15863  -0.03685   0.00400   0.04068   0.06107
 Alpha virt. eigenvalues --    0.07325   0.12230   0.13890   0.18863   0.21221
 Alpha virt. eigenvalues --    0.23986   0.30296   0.38740   0.40327   0.50829

 Mulliken charges:
               1
     1  C   -0.079119
     2  H    0.186652
     3  H    0.186652
     4  O   -0.294185
 Sum of Mulliken charges =  -0.00000

 Dipole moment (field-independent basis, Debye):
    X=             -0.0000    Y=             -0.0000    Z=             -3.9626  Tot=              3.9626
 Quadrupole moment (field-independent basis, Debye-Ang):
   XX=            -12.8960   YY=            -11.9589   ZZ=            -11.0031
   XY=              0.0000   XZ=              0.0000   YZ=             -0.0000

 Normal termination of Gaussian 16 at Fri Sep 17 10:53:05 2021.
