 Gaussian 16, Revision C.01,
 Gaussian 16:  ES64L-G16RevC.01  3-Jul-2019

 ----------------------------------------
 #P wB97XD/6-311+G* NoSymm #P Field=Z+165
 ----------------------------------------

 -------
 TitleMe
 -------
 Symbolic Z-matrix:
 Charge =  1 Multiplicity = 1

                          Input orientation:
 ---------------------------------------------------------------------
 Center     Atomic      Atomic             Coordinates (Angstroms)
 Number     Number       Type             X           Y           Z
 ---------------------------------------------------------------------
      1          6           0        0.029500    1.339700    0.068200
      2          6           0        1.434800    1.286700    0.006400
      3          6           0        2.111800    0.051100   -0.005400
      4          6           0        1.445100   -1.137200    0.031200
      5          6           0       -0.687900    0.168200    0.110000
      6          1           0       -0.471300    2.298400    0.078100
      7          1           0        2.027300    2.196500   -0.032200
      8          1           0        1.989700   -2.076400    0.023200
      9          1           0       -1.771600    0.180400    0.158200
     10          7           0        3.586400    0.051000   -0.067500
     11          8           0        4.147100   -1.059700   -0.088100
     12          8           0        4.145000    1.163900   -0.090100
     13          6           0       -0.023600   -1.145800    0.083500
     14          1           0       -0.436700   -1.872500    0.788900
     15         35           0       -0.535900   -1.869700   -1.740800
 ---------------------------------------------------------------------

 SCF Done:  E(RwB97XD) =  -3010.54478657     A.U. after   18 cycles

 Alpha  occ. eigenvalues -- -483.28721 -62.83704 -56.63441 -56.62807 -56.62805
 Alpha  occ. eigenvalues --  -19.45063 -19.45004 -14.84561 -10.56934 -10.56426
 Alpha  occ. eigenvalues --  -10.56248 -10.56023 -10.55834 -10.52114  -8.99479
 Alpha  occ. eigenvalues --   -6.82275  -6.80213  -6.80201  -2.92151  -2.91605
 Alpha  occ. eigenvalues --   -2.91594  -2.89946  -2.89946  -1.48826  -1.31806
 Alpha  occ. eigenvalues --   -1.21585  -1.12789  -1.10713  -1.02228  -1.00144
 Alpha  occ. eigenvalues --   -0.94350  -0.90005  -0.84443  -0.79937  -0.79694
 Alpha  occ. eigenvalues --   -0.79125  -0.77476  -0.75248  -0.75007  -0.70901
 Alpha  occ. eigenvalues --   -0.68367  -0.66619  -0.62129  -0.58753  -0.56252
 Alpha  occ. eigenvalues --   -0.55346  -0.54808  -0.53330  -0.52634
 Alpha virt. eigenvalues --   -0.28348  -0.20515  -0.14406  -0.12822  -0.10874
 Alpha virt. eigenvalues --   -0.08577  -0.08096  -0.05904  -0.04498  -0.04012
 Alpha virt. eigenvalues --   -0.02418  -0.01160  -0.00422   0.00853   0.01372

 Mulliken charges:
               1
     1  C   -0.548961
     2  C    0.454096
     3  C   -0.694869
     4  C    0.261476
     5  C   -0.052275
     6  H    0.330715
     7  H    0.367022
     8  H    0.370850
     9  H    0.346309
    10  N   -0.112052
    11  O    0.032894
    12  O    0.030384
    13  C   -0.458491
    14  H    0.345739
    15  Br   0.327163
 Sum of Mulliken charges =   1.00000

 Dipole moment (field-independent basis, Debye):
    X=             -1.2340    Y=             -1.2264    Z=             -2.8997  Tot=              3.3816
 Quadrupole moment (field-independent basis, Debye-Ang):
   XX=            -71.8376   YY=            -51.1512   ZZ=            -59.7674
   XY=              1.7722   XZ=             -0.2199   YZ=              4.1013

 Normal termination of Gaussian 16 at Wed May  1 15:25:54 2024.
