 Gaussian 16, Revision A.03,
 Gaussian 16:  ES64L-G16RevA.03 25-Dec-2016

 --------------------------------------------------------------------
 #p B3LYP/6-311+G** #p TD=(singlets,nstates=30)IOp(6/8=3) IOp(9/40=4)
 --------------------------------------------------------------------

 --------------------------------
 Scan Step 133, Bond Length 1.165
 --------------------------------
 Symbolic Z-matrix:
 Charge =  0 Multiplicity = 1

                         Standard orientation:
 ---------------------------------------------------------------------
 Center     Atomic      Atomic             Coordinates (Angstroms)
 Number     Number       Type             X           Y           Z
 ---------------------------------------------------------------------
      1          6           0        0.000000    0.000000   -0.508581
      2          1           0        0.000000    0.937260   -1.099931
      3          1           0       -0.000000   -0.937260   -1.099931
      4          8           0        0.000000    0.000000    0.656419
 ---------------------------------------------------------------------

 SCF Done:  E(RB3LYP) =  -114.539489422     A.U. after    9 cycles

 Excitation energies and oscillator strengths:

 Excited State   1:      Singlet-A2     4.1790 eV  296.68 nm  f=0.0000  <S**2>=0.000
       3 -> 27         0.00263
       3 -> 38         0.00222
       3 -> 45         0.00233
       4 -> 27         0.00214
       4 -> 38        -0.00061
       4 -> 45        -0.00123
       5 ->  9         0.02128
       5 -> 13        -0.00431
       5 -> 17         0.00587
       5 -> 23        -0.00077
       5 -> 29         0.00428
       5 -> 31         0.00261
       5 -> 37         0.00365
       5 -> 44         0.00065
       5 -> 47         0.00014
       5 -> 52         0.00081
       6 -> 38        -0.00079
       6 -> 45         0.00176
       7 -> 12        -0.00062
       7 -> 15         0.00252
       7 -> 18        -0.00255
       7 -> 22         0.00095
       7 -> 24         0.00140
       7 -> 30        -0.00086
       7 -> 33         0.00042
       7 -> 35        -0.00034
       7 -> 40        -0.00030
       7 -> 49         0.00043
       7 -> 50         0.00029
       7 -> 53         0.00045
       8 ->  9         0.70472
       8 -> 13        -0.05176
       8 -> 17         0.02353
       8 -> 23        -0.01103
       8 -> 29         0.00847
       8 -> 31         0.00299
       8 -> 37        -0.00045
       8 -> 44        -0.00016
       8 -> 47        -0.00023
       8 -> 52         0.00160
       3 <- 27         0.00174
       3 <- 38         0.00186
       3 <- 45         0.00242
       4 <- 27         0.00296
       4 <- 45        -0.00107
       5 <-  9        -0.00029
       5 <- 13        -0.00086
       5 <- 17        -0.00092
       5 <- 23         0.00055
       5 <- 29        -0.00061
       5 <- 31        -0.00098
       5 <- 37         0.00171
       5 <- 44         0.00029
       5 <- 47         0.00017
       5 <- 52         0.00021
       6 <- 27         0.00057
       6 <- 38        -0.00072
       6 <- 45         0.00137
       7 <- 12        -0.00087
       7 <- 15        -0.00667
       7 <- 18        -0.00020
       7 <- 22         0.00715
       7 <- 24        -0.00032
       7 <- 30         0.00308
       7 <- 33        -0.00134
       7 <- 35        -0.00249
       7 <- 40        -0.00101
       7 <- 42         0.00015
       7 <- 49         0.00025
       7 <- 50         0.00018
       7 <- 53         0.00123
       8 <-  9        -0.02191
       8 <- 13         0.00363
       8 <- 17        -0.00413
       8 <- 23         0.00080
       8 <- 29        -0.00080
       8 <- 31         0.00108
       8 <- 37        -0.00163
       8 <- 52         0.00046
 This state for optimization and/or second-order correction.
 Total Energy, E(TD-HF/TD-DFT) =  -114.385914433
 Copying the excited state density for this state as the 1-particle RhoCI density.

 Excited State   2:      Singlet-B2     6.7961 eV  182.43 nm  f=0.0369  <S**2>=0.000
       3 -> 12         0.00140
       3 -> 15         0.00071
       3 -> 18         0.00114
       3 -> 22        -0.00029
       3 -> 24         0.00130
       3 -> 30        -0.00011
       3 -> 33         0.00016
       3 -> 35         0.00035
       4 -> 12        -0.00358
       4 -> 15         0.00164
       4 -> 18         0.00219
       4 -> 22        -0.00336
       4 -> 24         0.00353
       4 -> 30         0.00022
       4 -> 33        -0.00061
       4 -> 35        -0.00069
       4 -> 40        -0.00048
       5 -> 10        -0.00550
       5 -> 11        -0.00914
       5 -> 14         0.00698
       5 -> 16        -0.00099
       5 -> 19         0.00144
       5 -> 20         0.00148
       5 -> 21         0.00551
       5 -> 26         0.00263
       5 -> 28         0.00147
       5 -> 32         0.00067
       5 -> 34        -0.00102
       5 -> 36        -0.00024
       5 -> 39        -0.00031
       5 -> 41        -0.00026
       5 -> 43        -0.00056
       5 -> 46        -0.00041
       5 -> 54         0.00011
       6 -> 12         0.00048
       6 -> 15         0.00146
       6 -> 18         0.00262
       6 -> 22        -0.00264
       6 -> 24         0.00134
       6 -> 30        -0.00046
       6 -> 33        -0.00019
       6 -> 35        -0.00025
       6 -> 40         0.00019
       6 -> 42        -0.00022
       6 -> 49         0.00045
       6 -> 50        -0.00039
       7 -> 27         0.00027
       7 -> 38        -0.00047
       7 -> 45         0.00054
       8 -> 10         0.70361
       8 -> 11        -0.06515
       8 -> 14         0.00981
       8 -> 16        -0.00737
       8 -> 19         0.01406
       8 -> 20         0.01287
       8 -> 21        -0.00360
       8 -> 25         0.00040
       8 -> 26         0.00208
       8 -> 28         0.00065
       8 -> 32        -0.00085
       8 -> 34         0.00166
       8 -> 36         0.00044
       8 -> 39         0.00043
       8 -> 41        -0.00016
       8 -> 43         0.00065
       8 -> 46        -0.00072
       8 -> 48        -0.00012
       8 -> 54         0.00018
       3 <- 12         0.00035
       3 <- 15         0.00054
       3 <- 18         0.00045
       3 <- 22        -0.00041
       3 <- 24         0.00079
       3 <- 30        -0.00011
       3 <- 33         0.00014
       3 <- 35         0.00032
       4 <- 12         0.00070
       4 <- 15         0.00183
       4 <- 18         0.00215
       4 <- 22        -0.00205
       4 <- 24         0.00245
       4 <- 30         0.00016
       4 <- 33        -0.00038
       4 <- 35        -0.00042
       4 <- 40        -0.00016
       4 <- 42        -0.00022
       4 <- 49        -0.00010
       4 <- 50        -0.00010
       5 <- 10         0.00244
       5 <- 11        -0.00025
       5 <- 14         0.00493
       5 <- 16        -0.00088
       5 <- 19         0.00032
       5 <- 20         0.00068
       5 <- 21         0.00225
       5 <- 25         0.00178
       5 <- 26         0.00158
       5 <- 28         0.00028
       5 <- 32         0.00041
       5 <- 34        -0.00100
       5 <- 36        -0.00031
       5 <- 39        -0.00017
       5 <- 43        -0.00041
       5 <- 46        -0.00036
       5 <- 51         0.00010
       6 <- 12         0.00019
       6 <- 18         0.00135
       6 <- 22        -0.00082
       6 <- 24         0.00048
       6 <- 30         0.00031
       6 <- 33        -0.00025
       6 <- 35        -0.00039
       6 <- 40         0.00018
       6 <- 42        -0.00020
       6 <- 49         0.00037
       6 <- 50        -0.00040
       6 <- 53         0.00013
       7 <- 27         0.00022
       7 <- 38        -0.00035
       7 <- 45         0.00047
       8 <- 10        -0.00205
       8 <- 11        -0.00055
       8 <- 14        -0.00634
       8 <- 16        -0.00025
       8 <- 19        -0.00028
       8 <- 20        -0.00048
       8 <- 21        -0.00227
       8 <- 25        -0.00251
       8 <- 26        -0.00049
       8 <- 28        -0.00064
       8 <- 32        -0.00110
       8 <- 34         0.00063
       8 <- 36         0.00041
       8 <- 39         0.00035
       8 <- 43         0.00046
       8 <- 46        -0.00048

 Excited State   3:      Singlet-B2     7.5884 eV  163.39 nm  f=0.0239  <S**2>=0.000
       3 -> 12        -0.00028
       3 -> 15        -0.00073
       3 -> 18         0.00075
       3 -> 22         0.00036
       3 -> 24         0.00021
       3 -> 30         0.00192
       3 -> 33         0.00013
       3 -> 35         0.00042
       3 -> 40         0.00039
       3 -> 49         0.00039
       3 -> 50        -0.00025
       4 -> 12         0.00289
       4 -> 15        -0.00020
       4 -> 18         0.00271
       4 -> 22        -0.00151
       4 -> 24         0.00310
       4 -> 30        -0.00117
       4 -> 33         0.00051
       4 -> 35         0.00050
       4 -> 42        -0.00015
       4 -> 49         0.00023
       5 -> 10        -0.00753
       5 -> 14         0.00772
       5 -> 16        -0.00709
       5 -> 19        -0.00298
       5 -> 20        -0.00408
       5 -> 21         0.00121
       5 -> 25         0.00128
       5 -> 26         0.00052
       5 -> 28         0.00163
       5 -> 32         0.00011
       5 -> 34        -0.00133
       5 -> 36        -0.00019
       5 -> 39         0.00041
       5 -> 41        -0.00078
       5 -> 46         0.00086
       5 -> 51        -0.00042
       6 -> 12        -0.00317
       6 -> 15        -0.00186
       6 -> 18        -0.00105
       6 -> 22         0.00137
       6 -> 24         0.00013
       6 -> 30         0.00087
       6 -> 33        -0.00051
       6 -> 35        -0.00149
       6 -> 40        -0.00100
       6 -> 49        -0.00101
       6 -> 50         0.00054
       6 -> 53         0.00011
       7 -> 27        -0.00016
       7 -> 38        -0.00100
       7 -> 45        -0.00165
       8 -> 10         0.06567
       8 -> 11         0.70314
       8 -> 14        -0.00811
       8 -> 16         0.01248
       8 -> 19        -0.02791
       8 -> 20         0.00893
       8 -> 21        -0.00260
       8 -> 25         0.00057
       8 -> 26        -0.00155
       8 -> 28         0.00054
       8 -> 32        -0.00030
       8 -> 34        -0.00015
       8 -> 39        -0.00017
       8 -> 41        -0.00129
       8 -> 43         0.00026
       8 -> 46         0.00171
       8 -> 51        -0.00092
       8 -> 54        -0.00014
       3 <- 12         0.00034
       3 <- 15        -0.00024
       3 <- 18         0.00086
       3 <- 24         0.00034
       3 <- 30         0.00111
       3 <- 33         0.00023
       3 <- 35         0.00047
       3 <- 40         0.00036
       3 <- 49         0.00032
       3 <- 50        -0.00016
       3 <- 53        -0.00026
       4 <- 12         0.00035
       4 <- 15         0.00068
       4 <- 18         0.00069
       4 <- 22        -0.00115
       4 <- 24         0.00128
       4 <- 30        -0.00054
       4 <- 33         0.00047
       4 <- 35         0.00015
       4 <- 42        -0.00016
       4 <- 49         0.00017
       4 <- 50        -0.00015
       5 <- 10         0.00128
       5 <- 11        -0.00108
       5 <- 14         0.00249
       5 <- 16        -0.00044
       5 <- 19         0.00096
       5 <- 20        -0.00039
       5 <- 21         0.00078
       5 <- 25         0.00129
       5 <- 26        -0.00020
       5 <- 28         0.00075
       5 <- 32         0.00106
       5 <- 34        -0.00036
       5 <- 36         0.00017
       5 <- 39         0.00013
       5 <- 41        -0.00081
       5 <- 46         0.00080
       5 <- 48         0.00012
       5 <- 51        -0.00032
       6 <- 12        -0.00033
       6 <- 15        -0.00056
       6 <- 22         0.00063
       6 <- 30         0.00057
       6 <- 33        -0.00035
       6 <- 35        -0.00118
       6 <- 40        -0.00074
       6 <- 49        -0.00083
       6 <- 50         0.00044
       7 <- 27         0.00012
       7 <- 38        -0.00080
       7 <- 45        -0.00139
       8 <- 10        -0.00070
       8 <- 11        -0.00048
       8 <- 14        -0.00385
       8 <- 16         0.00049
       8 <- 19         0.00377
       8 <- 20        -0.00116
       8 <- 21        -0.00205
       8 <- 25         0.00030
       8 <- 26        -0.00168
       8 <- 28         0.00012
       8 <- 32         0.00113
       8 <- 34         0.00115
       8 <- 39        -0.00047
       8 <- 41        -0.00112
       8 <- 43         0.00013
       8 <- 46         0.00136
       8 <- 48         0.00017
       8 <- 51        -0.00064

 Excited State   4:      Singlet-A1     7.7666 eV  159.64 nm  f=0.0513  <S**2>=0.000
       3 -> 10         0.00186
       3 -> 11        -0.00091
       3 -> 14         0.00081
       3 -> 16        -0.00019
       3 -> 19         0.00014
       3 -> 20         0.00170
       3 -> 21         0.00073
       3 -> 25        -0.00058
       3 -> 26         0.00115
       3 -> 28         0.00100
       3 -> 32        -0.00011
       3 -> 34        -0.00059
       3 -> 36        -0.00022
       3 -> 41        -0.00021
       3 -> 46         0.00013
       3 -> 48         0.00029
       3 -> 51        -0.00024
       3 -> 54        -0.00020
       4 -> 10         0.00495
       4 -> 11         0.00622
       4 -> 14         0.00506
       4 -> 16         0.00031
       4 -> 19         0.00031
       4 -> 20         0.00433
       4 -> 21         0.00109
       4 -> 25         0.00718
       4 -> 26         0.00153
       4 -> 28        -0.00041
       4 -> 32         0.00064
       4 -> 34        -0.00016
       4 -> 39        -0.00011
       4 -> 41         0.00011
       4 -> 43         0.00016
       4 -> 46        -0.00021
       4 -> 51        -0.00015
       5 -> 12         0.00661
       5 -> 15         0.00188
       5 -> 18         0.01081
       5 -> 22        -0.00203
       5 -> 24         0.00533
       5 -> 30        -0.00010
       5 -> 33        -0.00016
       5 -> 35        -0.00078
       5 -> 50         0.00026
       5 -> 53        -0.00014
       6 -> 10         0.01254
       6 -> 11        -0.00290
       6 -> 14         0.00441
       6 -> 16         0.00110
       6 -> 19         0.00279
       6 -> 20         0.00422
       6 -> 21         0.00099
       6 -> 25         0.00335
       6 -> 28        -0.00171
       6 -> 32         0.00050
       6 -> 43         0.00013
       6 -> 48        -0.00064
       6 -> 51         0.00023
       7 ->  9         0.01699
       7 -> 13         0.00997
       7 -> 17         0.00298
       7 -> 23         0.00524
       7 -> 29        -0.00045
       7 -> 31         0.00088
       7 -> 37         0.00057
       7 -> 44         0.00065
       7 -> 47        -0.00034
       7 -> 52        -0.00011
       8 -> 12         0.70576
       8 -> 15        -0.01046
       8 -> 18         0.03012
       8 -> 22         0.00460
       8 -> 24         0.00342
       8 -> 30         0.00043
       8 -> 33         0.00156
       8 -> 35         0.00200
       8 -> 40        -0.00064
       8 -> 42         0.00025
       8 -> 49        -0.00041
       8 -> 50         0.00030
       8 -> 53        -0.00023
       3 <- 10         0.00061
       3 <- 14         0.00045
       3 <- 20         0.00078
       3 <- 21         0.00052
       3 <- 26         0.00073
       3 <- 28         0.00066
       3 <- 32        -0.00020
       3 <- 34        -0.00039
       3 <- 36        -0.00017
       3 <- 41        -0.00015
       3 <- 46         0.00022
       3 <- 48         0.00023
       3 <- 51        -0.00021
       3 <- 54        -0.00018
       4 <- 10         0.00439
       4 <- 11         0.00150
       4 <- 14         0.00373
       4 <- 16        -0.00024
       4 <- 19         0.00017
       4 <- 20         0.00248
       4 <- 21         0.00037
       4 <- 25         0.00393
       4 <- 26         0.00097
       4 <- 32         0.00072
       4 <- 34        -0.00056
       4 <- 39        -0.00019
       4 <- 43         0.00011
       4 <- 46        -0.00018
       4 <- 51        -0.00014
       5 <- 12         0.00274
       5 <- 15         0.00242
       5 <- 18         0.00380
       5 <- 22        -0.00069
       5 <- 24         0.00288
       5 <- 30        -0.00013
       5 <- 33        -0.00034
       5 <- 35        -0.00071
       5 <- 50         0.00016
       5 <- 53        -0.00012
       6 <- 10         0.00317
       6 <- 11        -0.00016
       6 <- 14         0.00173
       6 <- 16         0.00033
       6 <- 19         0.00082
       6 <- 20         0.00200
       6 <- 21         0.00027
       6 <- 25         0.00167
       6 <- 26         0.00029
       6 <- 28        -0.00109
       6 <- 32         0.00045
       6 <- 34        -0.00014
       6 <- 41         0.00013
       6 <- 46        -0.00012
       6 <- 48        -0.00053
       6 <- 51         0.00027
       7 <-  9         0.00080
       7 <- 13         0.00233
       7 <- 17         0.00076
       7 <- 23         0.00266
       7 <- 29        -0.00039
       7 <- 31         0.00061
       7 <- 37         0.00045
       7 <- 44         0.00054
       7 <- 47        -0.00029
       7 <- 52        -0.00010
       8 <- 12        -0.00105
       8 <- 15        -0.00615
       8 <- 18        -0.00202
       8 <- 22         0.00076
       8 <- 24        -0.00185
       8 <- 30        -0.00046
       8 <- 33         0.00070
       8 <- 35         0.00092
       8 <- 40        -0.00062
       8 <- 42         0.00022
       8 <- 49        -0.00044
       8 <- 50         0.00021
       8 <- 53        -0.00023

 Excited State   5:      Singlet-A2     8.2697 eV  149.93 nm  f=0.0000  <S**2>=0.000
       3 -> 27        -0.00051
       3 -> 38        -0.00045
       3 -> 45        -0.00026
       4 -> 27         0.00020
       4 -> 38         0.00050
       5 ->  9        -0.00720
       5 -> 13        -0.00374
       5 -> 17         0.00648
       5 -> 23        -0.00185
       5 -> 29        -0.00011
       5 -> 31        -0.00154
       5 -> 37        -0.00102
       5 -> 44        -0.00020
       6 -> 27         0.00023
       6 -> 38         0.00029
       6 -> 45        -0.00026
       7 -> 12        -0.00038
       7 -> 15        -0.00185
       7 -> 18         0.00198
       7 -> 22        -0.00069
       7 -> 35         0.00014
       7 -> 40         0.00011
       7 -> 49        -0.00010
       8 ->  9         0.05153
       8 -> 13         0.70469
       8 -> 17         0.01830
       8 -> 23         0.01733
       8 -> 29         0.00017
       8 -> 31        -0.00151
       8 -> 37        -0.00029
       8 -> 47         0.00018
       8 -> 52        -0.00012
       3 <- 27        -0.00016
       3 <- 38        -0.00030
       3 <- 45        -0.00034
       4 <- 27        -0.00013
       5 <-  9        -0.00030
       5 <- 13        -0.00033
       5 <- 17         0.00055
       5 <- 37        -0.00021
       6 <- 38         0.00019
       7 <- 12        -0.00063
       7 <- 15        -0.00095
       7 <- 18         0.00072
       7 <- 22        -0.00102
       7 <- 24        -0.00041
       7 <- 30         0.00021
       7 <- 33         0.00039
       7 <- 35         0.00063
       7 <- 40         0.00037
       7 <- 42        -0.00010
       8 <-  9         0.00205
       8 <- 13         0.00137
       8 <- 17         0.00023
       8 <- 23        -0.00018
       8 <- 37         0.00015

 Excited State   6:      Singlet-B1     9.5440 eV  129.91 nm  f=0.0007  <S**2>=0.000
       3 ->  9        -0.03186
       3 -> 13         0.00695
       3 -> 17        -0.00759
       3 -> 23         0.00496
       3 -> 29        -0.00318
       3 -> 31        -0.00021
       3 -> 44         0.00076
       3 -> 47        -0.00013
       3 -> 52         0.00111
       4 ->  9         0.01688
       4 -> 13        -0.00285
       4 -> 17         0.00110
       4 -> 23        -0.00245
       4 -> 29        -0.00021

 The electronic state is 1-A1.
 Alpha  occ. eigenvalues --  -19.14865 -10.27283  -1.09734  -0.63965  -0.51319
 Alpha  occ. eigenvalues --   -0.47025  -0.42659  -0.27906
 Alpha virt. eigenvalues --   -0.05440   0.00890   0.04007   0.04285   0.06565
 Alpha virt. eigenvalues --    0.13101   0.18238   0.18482   0.22001   0.23066
 Alpha virt. eigenvalues --    0.27130   0.33651   0.46571   0.47257   0.50973

 Mulliken charges:
               1
     1  C    0.029359
     2  H    0.101295
     3  H    0.101295
     4  O   -0.231949
 Sum of Mulliken charges =  -0.00000

 Dipole moment (field-independent basis, Debye):
    X=             -0.0000    Y=              0.0000    Z=             -2.2982  Tot=              2.2982
 Quadrupole moment (field-independent basis, Debye-Ang):
   XX=            -11.6363   YY=            -11.7607   ZZ=            -12.5383
   XY=              0.0000   XZ=              0.0000   YZ=             -0.0000

 Normal termination of Gaussian 16 at Fri Sep 17 10:52:42 2021.
