 Gaussian 16, Revision A.03,
 Gaussian 16:  ES64L-G16RevA.03 25-Dec-2016

 --------------------------------------------------------------------
 #p B3LYP/6-311+G** #p TD=(singlets,nstates=30)IOp(6/8=3) IOp(9/40=4)
 --------------------------------------------------------------------

 --------------------------------
 Scan Step 183, Bond Length 1.415
 --------------------------------
 Symbolic Z-matrix:
 Charge =  0 Multiplicity = 1

                         Standard orientation:
 ---------------------------------------------------------------------
 Center     Atomic      Atomic             Coordinates (Angstroms)
 Number     Number       Type             X           Y           Z
 ---------------------------------------------------------------------
      1          6           0        0.000000    0.000000   -0.633581
      2          1           0        0.000000    0.937260   -1.224931
      3          1           0       -0.000000   -0.937260   -1.224931
      4          8           0        0.000000   -0.000000    0.781419
 ---------------------------------------------------------------------

 SCF Done:  E(RB3LYP) =  -114.495826200     A.U. after    9 cycles

 Excitation energies and oscillator strengths:

 Excited State   1:      Singlet-A2     2.7872 eV  444.83 nm  f=0.0000  <S**2>=0.000
       3 -> 27         0.00174
       3 -> 38         0.00141
       3 -> 46         0.00303
       4 -> 27         0.00114
       4 -> 38        -0.00029
       4 -> 46        -0.00141
       5 ->  9         0.01447
       5 -> 18         0.00419
       5 -> 23         0.00130
       5 -> 28         0.00372
       5 -> 31        -0.00076
       5 -> 37         0.00225
       5 -> 44         0.00046
       5 -> 48         0.00011
       5 -> 52         0.00054
       6 -> 27        -0.00052
       6 -> 38        -0.00088
       6 -> 46         0.00163
       7 -> 12        -0.00069
       7 -> 15         0.00399
       7 -> 19        -0.00351
       7 -> 22        -0.00021
       7 -> 25         0.00125
       7 -> 30        -0.00122
       7 -> 33         0.00044
       7 -> 42        -0.00011
       7 -> 49         0.00016
       7 -> 50         0.00025
       7 -> 53         0.00047
       8 ->  9         0.70717
       8 -> 13        -0.02261
       8 -> 18         0.02216
       8 -> 23        -0.00649
       8 -> 28         0.01081
       8 -> 31        -0.00028
       8 -> 37         0.00058
       8 -> 48        -0.00029
       8 -> 52         0.00190
       3 <- 27         0.00099
       3 <- 38         0.00110
       3 <- 46         0.00310
       4 <- 27         0.00183
       4 <- 38         0.00020
       4 <- 46        -0.00116
       5 <-  9        -0.00055
       5 <- 13        -0.00068
       5 <- 18        -0.00092
       5 <- 23         0.00040
       5 <- 28        -0.00065
       5 <- 31         0.00054
       5 <- 37         0.00118
       5 <- 44         0.00016
       5 <- 52         0.00014
       6 <- 27         0.00010
       6 <- 38        -0.00074
       6 <- 46         0.00127
       7 <- 12        -0.00019
       7 <- 15        -0.00901
       7 <- 19         0.00211
       7 <- 22         0.00742
       7 <- 25         0.00032
       7 <- 30         0.00461
       7 <- 33        -0.00091
       7 <- 35         0.00163
       7 <- 40         0.00076
       7 <- 49        -0.00019
       7 <- 50         0.00017
       7 <- 53         0.00142
       8 <-  9        -0.03645
       8 <- 13         0.00145
       8 <- 18        -0.00550
       8 <- 23         0.00057
       8 <- 28        -0.00179
       8 <- 31        -0.00053
       8 <- 37        -0.00083
       8 <- 52         0.00052
 This state for optimization and/or second-order correction.
 Total Energy, E(TD-HF/TD-DFT) =  -114.393397497
 Copying the excited state density for this state as the 1-particle RhoCI density.

 Excited State   2:      Singlet-B1     6.9080 eV  179.48 nm  f=0.0015  <S**2>=0.000
       3 ->  9        -0.03279
       3 -> 13         0.00317
       3 -> 18        -0.00601
       3 -> 23         0.00284
       3 -> 28        -0.00172
       3 -> 31        -0.00049
       3 -> 44         0.00044
       3 -> 48         0.00058
       3 -> 52         0.00109
       4 ->  9         0.01576
       4 -> 13        -0.00271
       4 -> 18         0.00066
       4 -> 23        -0.00249
       4 -> 28         0.00018
       4 -> 31        -0.00197
       4 -> 37        -0.00046
       4 -> 48        -0.00144
       4 -> 52        -0.00083
       5 -> 27        -0.00108
       5 -> 38         0.00198
       5 -> 46         0.00182
       6 ->  9         0.70586
       6 -> 13        -0.02607
       6 -> 18         0.01986
       6 -> 23        -0.01188
       6 -> 28         0.00598
       6 -> 31         0.00394
       6 -> 37        -0.00253
       6 -> 44        -0.00340
       6 -> 48         0.00496
       6 -> 52         0.00177
       7 -> 10        -0.00246
       7 -> 11        -0.00343
       7 -> 14        -0.00318
       7 -> 16        -0.01135
       7 -> 17         0.00116
       7 -> 20         0.00195
       7 -> 21        -0.00164
       7 -> 24         0.00080
       7 -> 26        -0.00010
       7 -> 29        -0.00456
       7 -> 32        -0.00114
       7 -> 34         0.00023
       7 -> 36        -0.00167
       7 -> 39         0.00013
       7 -> 41        -0.00133
       7 -> 43         0.00081
       7 -> 45         0.00404
       7 -> 47         0.00302
       7 -> 51         0.00114
       7 -> 54         0.00056
       8 -> 27         0.00158
       8 -> 38         0.00052
       8 -> 46         0.00636
       3 <-  9        -0.01057
       3 <- 18        -0.00326
       3 <- 28        -0.00112
       3 <- 31        -0.00047
       3 <- 44        -0.00022
       3 <- 48         0.00082
       3 <- 52         0.00087
       4 <-  9         0.00622
       4 <- 18         0.00237
       4 <- 23        -0.00032
       4 <- 28         0.00212
       4 <- 31        -0.00160
       4 <- 44         0.00019
       4 <- 48        -0.00125
       4 <- 52        -0.00046
       5 <- 27        -0.00137
       5 <- 38         0.00153
       5 <- 46         0.00162
       6 <-  9        -0.02233
       6 <- 13         0.00216
       6 <- 18        -0.00301
       6 <- 28        -0.00279
       6 <- 31         0.00227
       6 <- 37        -0.00238
       6 <- 44        -0.00206
       6 <- 48         0.00439
       6 <- 52         0.00065
       7 <- 10         0.00331
       7 <- 11         0.00567
       7 <- 14         0.00312
       7 <- 16         0.00590
       7 <- 17         0.01423
       7 <- 20         0.00669
       7 <- 21        -0.00606
       7 <- 24         0.00544
       7 <- 26         0.00270
       7 <- 29         0.00056
       7 <- 32        -0.00095
       7 <- 34         0.00126
       7 <- 36        -0.00266
       7 <- 39         0.00038
       7 <- 41        -0.00086
       7 <- 43         0.00074
       7 <- 45         0.00372
       7 <- 47         0.00258
       7 <- 51         0.00085
       7 <- 54         0.00108
       8 <- 27         0.00175
       8 <- 38         0.00064
       8 <- 46         0.00574

 Excited State   3:      Singlet-A1     6.9161 eV  179.27 nm  f=0.1256  <S**2>=0.000
       3 -> 10         0.00674
       3 -> 11         0.01565
       3 -> 14         0.00899
       3 -> 16         0.00507
       3 -> 17         0.02275
       3 -> 20        -0.00093
       3 -> 21        -0.00469
       3 -> 24         0.00546
       3 -> 26         0.00752
       3 -> 29         0.00039
       3 -> 32         0.00295
       3 -> 34        -0.00384
       3 -> 36        -0.00130
       3 -> 39         0.00129
       3 -> 41         0.00015
       3 -> 43         0.00056
       3 -> 45         0.00169
       3 -> 47         0.00119
       3 -> 51         0.00038
       3 -> 54         0.00030
       4 -> 10         0.02397
       4 -> 11        -0.01063
       4 -> 14         0.01456
       4 -> 16         0.00032
       4 -> 17        -0.00718
       4 -> 20         0.00915
       4 -> 24        -0.00718
       4 -> 26         0.00614
       4 -> 29         0.00105
       4 -> 32        -0.00122
       4 -> 34         0.00290
       4 -> 36         0.00055
       4 -> 39        -0.00021
       4 -> 41         0.00012
       4 -> 43        -0.00016
       4 -> 45        -0.00048
       4 -> 47        -0.00165
       4 -> 51        -0.00016
       5 -> 12         0.02826
       5 -> 15         0.02636
       5 -> 19         0.00204
       5 -> 22         0.00386
       5 -> 25         0.01249
       5 -> 30        -0.00233
       5 -> 33        -0.00334
       5 -> 35         0.00205
       5 -> 40         0.00165
       5 -> 42         0.00069
       5 -> 49         0.00062
       5 -> 50        -0.00049
       5 -> 53        -0.00030
       6 -> 10        -0.04426
       6 -> 11        -0.07294
       6 -> 14        -0.03487
       6 -> 16        -0.06370
       6 -> 17        -0.09907
       6 -> 20        -0.03124
       6 -> 21         0.02647
       6 -> 24        -0.02324
       6 -> 26        -0.01204
       6 -> 29        -0.01063
       6 -> 32        -0.00013
       6 -> 34        -0.00277
       6 -> 36         0.00199
       6 -> 39         0.00026
       6 -> 41        -0.00087
       6 -> 43         0.00050
       6 -> 45         0.00046
       6 -> 47         0.00178
       6 -> 51         0.00078
       6 -> 54        -0.00032
       7 ->  9         0.68511
       7 -> 13         0.01806
       7 -> 18        -0.02631
       7 -> 23         0.00531
       7 -> 28        -0.00454
       7 -> 31        -0.00198
       7 -> 37         0.00023
       7 -> 44        -0.00094
       7 -> 48         0.00060
       7 -> 52         0.00101
       8 -> 12         0.00369
       8 -> 15         0.12096
       8 -> 19        -0.02699
       8 -> 22        -0.04408
       8 -> 25         0.00279
       8 -> 30        -0.01502
       8 -> 33         0.00494
       8 -> 35        -0.00618
       8 -> 40        -0.00255
       8 -> 42        -0.00036
       8 -> 49         0.00068
       8 -> 50         0.00036
       8 -> 53        -0.00097
       3 <- 10         0.00371
       3 <- 11         0.00947
       3 <- 14         0.00623
       3 <- 16         0.00394
       3 <- 17         0.01458
       3 <- 20        -0.00037
       3 <- 21        -0.00407
       3 <- 24         0.00372
       3 <- 26         0.00483
       3 <- 29         0.00038
       3 <- 32         0.00267
       3 <- 34        -0.00251
       3 <- 36        -0.00086
       3 <- 39         0.00100
       3 <- 41         0.00014
       3 <- 43         0.00057
       3 <- 45         0.00169
       3 <- 47         0.00145
       3 <- 51         0.00036
       3 <- 54         0.00034
       4 <- 10         0.01002
       4 <- 11        -0.00522
       4 <- 14         0.00642
       4 <- 16        -0.00036
       4 <- 17        -0.00404
       4 <- 20         0.00579
       4 <- 21         0.00019
       4 <- 24        -0.00432
       4 <- 26         0.00434
       4 <- 29         0.00016
       4 <- 32        -0.00161
       4 <- 34         0.00237
       4 <- 36         0.00028
       4 <- 39        -0.00024
       4 <- 43        -0.00016
       4 <- 47        -0.00146
       5 <- 12         0.00897
       5 <- 15         0.01042
       5 <- 19         0.00122
       5 <- 22         0.00201
       5 <- 25         0.00727
       5 <- 30        -0.00133
       5 <- 33        -0.00240
       5 <- 35         0.00163
       5 <- 40         0.00138
       5 <- 42         0.00053
       5 <- 49         0.00052
       5 <- 50        -0.00044
       5 <- 53        -0.00026
       6 <- 10        -0.00958
       6 <- 11        -0.01699
       6 <- 14        -0.01078
       6 <- 16        -0.02345
       6 <- 17        -0.03652
       6 <- 20        -0.01442
       6 <- 21         0.01308
       6 <- 24        -0.01268
       6 <- 26        -0.00701
       6 <- 29        -0.00667
       6 <- 32         0.00029
       6 <- 34        -0.00260
       6 <- 36         0.00135
       6 <- 39         0.00043
       6 <- 41        -0.00057
       6 <- 43         0.00043
       6 <- 47         0.00141
       6 <- 51         0.00058
       6 <- 54        -0.00024
       7 <-  9        -0.10537
       7 <- 13         0.01158
       7 <- 18        -0.01482
       7 <- 23         0.00667
       7 <- 28        -0.00571
       7 <- 31        -0.00046
       7 <- 37        -0.00015
       7 <- 44        -0.00041
       7 <- 52         0.00083
       8 <- 12         0.00015
       8 <- 15         0.02710
       8 <- 19        -0.00792
       8 <- 22        -0.01899
       8 <- 25         0.00088
       8 <- 30        -0.00959
       8 <- 33         0.00337
       8 <- 35        -0.00436
       8 <- 40        -0.00198
       8 <- 42        -0.00028
       8 <- 49         0.00047
       8 <- 50         0.00027
       8 <- 53        -0.00085

 Excited State   4:      Singlet-B2     6.9363 eV  178.75 nm  f=0.0130  <S**2>=0.000
       3 -> 12         0.00184
       3 -> 15         0.00027
       3 -> 19         0.00173
       3 -> 22        -0.00033
       3 -> 25         0.00098
       3 -> 30         0.00039
       3 -> 33         0.00032
       3 -> 35        -0.00081
       3 -> 40        -0.00049
       3 -> 49         0.00049
       3 -> 53        -0.00014
       4 -> 12        -0.00169
       4 -> 15         0.00231
       4 -> 19         0.00149
       4 -> 22        -0.00319
       4 -> 25         0.00286
       4 -> 30         0.00012
       4 -> 35         0.00015
       4 -> 40         0.00042
       4 -> 42        -0.00012
       4 -> 49        -0.00011
       5 -> 10        -0.00831
       5 -> 11        -0.00303
       5 -> 14         0.00871
       5 -> 16         0.00098
       5 -> 17         0.00540
       5 -> 20         0.00119
       5 -> 21        -0.00548
       5 -> 24        -0.00126
       5 -> 26         0.00180
       5 -> 29         0.00104
       5 -> 32        -0.00091
       5 -> 34        -0.00101
       5 -> 36        -0.00030
       5 -> 41        -0.00064
       5 -> 43        -0.00033
       5 -> 47         0.00016
       5 -> 54         0.00013
       6 -> 12        -0.00211
       6 -> 15         0.00108
       6 -> 22        -0.00164
       6 -> 25         0.00074
       6 -> 30        -0.00031
       6 -> 33        -0.00038
       6 -> 35         0.00108
       6 -> 40         0.00040
       6 -> 49         0.00012
       6 -> 50        -0.00012
       7 -> 38        -0.00082
       7 -> 46        -0.00050
       8 -> 10         0.70487
       8 -> 11        -0.03464
       8 -> 14         0.03257
       8 -> 16         0.00695
       8 -> 17         0.02020
       8 -> 20         0.01543
       8 -> 21         0.00130
       8 -> 24         0.00061
       8 -> 26         0.00376
       8 -> 29         0.00231
       8 -> 32         0.00087
       8 -> 34         0.00015
       8 -> 39         0.00028
       8 -> 41        -0.00037
       8 -> 43         0.00061
       8 -> 45         0.00043
       8 -> 47         0.00034
       8 -> 51        -0.00048
       8 -> 54         0.00035
       3 <- 12         0.00041
       3 <- 15         0.00038
       3 <- 19         0.00070
       3 <- 22        -0.00062
       3 <- 25         0.00048
       3 <- 33         0.00028
       3 <- 35        -0.00069
       3 <- 40        -0.00047
       3 <- 49         0.00054
       3 <- 53        -0.00019
       4 <- 12         0.00075
       4 <- 15         0.00207
       4 <- 19         0.00142
       4 <- 22        -0.00213
       4 <- 25         0.00187
       4 <- 42        -0.00021
       4 <- 50        -0.00013
       5 <- 10         0.00209
       5 <- 11        -0.00031
       5 <- 14         0.00436
       5 <- 16        -0.00038
       5 <- 20         0.00032
       5 <- 21        -0.00134
       5 <- 24        -0.00240
       5 <- 26         0.00121
       5 <- 29         0.00017
       5 <- 32        -0.00083
       5 <- 34        -0.00075
       5 <- 36        -0.00018
       5 <- 41        -0.00048
       5 <- 43        -0.00029
       6 <- 12        -0.00021
       6 <- 15        -0.00097
       6 <- 19         0.00087
       6 <- 22         0.00027
       6 <- 25         0.00024
       6 <- 30         0.00089
       6 <- 33        -0.00044
       6 <- 35         0.00105
       6 <- 40         0.00035
       6 <- 50        -0.00015
       6 <- 53         0.00027
       7 <- 38        -0.00062
       7 <- 46        -0.00037
       8 <- 10        -0.00158
       8 <- 11        -0.00175
       8 <- 14        -0.00387
       8 <- 16        -0.00131
       8 <- 17        -0.00177
       8 <- 20        -0.00045
       8 <- 21         0.00140
       8 <- 24         0.00094
       8 <- 26        -0.00109
       8 <- 29        -0.00012
       8 <- 32         0.00039
       8 <- 36         0.00037
       8 <- 41        -0.00016
       8 <- 43         0.00028
       8 <- 45         0.00051
       8 <- 51        -0.00018
       8 <- 54         0.00010

 Excited State   5:      Singlet-B2     7.5173 eV  164.93 nm  f=0.0264  <S**2>=0.000
       3 -> 12        -0.00041
       3 -> 15        -0.00164
       3 -> 19         0.00194
       3 -> 22         0.00055
       3 -> 25        -0.00036
       3 -> 30         0.00337
       3 -> 33         0.00020
       3 -> 35        -0.00111
       3 -> 40        -0.00088
       3 -> 49         0.00107
       3 -> 50        -0.00016
       4 -> 12         0.00186
       4 -> 15         0.00094
       4 -> 19         0.00062
       4 -> 22        -0.00142
       4 -> 25         0.00207
       4 -> 30        -0.00177
       4 -> 33         0.00048
       4 -> 35        -0.00065
       4 -> 40         0.00012
       4 -> 49         0.00013
       5 -> 10         0.00021
       5 -> 11         0.00101
       5 -> 14         0.01109
       5 -> 16        -0.00532
       5 -> 20        -0.00374
       5 -> 21        -0.00402
       5 -> 24        -0.00061
       5 -> 26         0.00198
       5 -> 29         0.00148
       5 -> 32         0.00067
       5 -> 34        -0.00053
       5 -> 36        -0.00072
       5 -> 39         0.00074
       5 -> 41        -0.00053
       5 -> 43         0.00030
       5 -> 45         0.00092
       5 -> 47         0.00036
       5 -> 51        -0.00050
       6 -> 12        -0.00208
       6 -> 15        -0.00051
       6 -> 19        -0.00094
       6 -> 22         0.00086
       6 -> 25         0.00015
       6 -> 30         0.00133
       6 -> 33        -0.00048
       6 -> 35         0.00151
       6 -> 40         0.00139
       6 -> 42         0.00016
       6 -> 49        -0.00165
       6 -> 50         0.00017
       6 -> 53         0.00017
       7 -> 27         0.00064
       7 -> 38        -0.00064
       7 -> 46        -0.00275
       8 -> 10         0.03219
       8 -> 11         0.70348
       8 -> 14         0.01585
       8 -> 16         0.02710
       8 -> 17         0.05349
       8 -> 20        -0.01085
       8 -> 21        -0.00038
       8 -> 24         0.00304
       8 -> 26         0.00074
       8 -> 29         0.00447
       8 -> 32         0.00029
       8 -> 34        -0.00042
       8 -> 36        -0.00077
       8 -> 39        -0.00021
       8 -> 41        -0.00077
       8 -> 43         0.00039
       8 -> 45         0.00339
       8 -> 47         0.00074
       8 -> 51        -0.00157
       8 -> 54         0.00030
       3 <- 12         0.00032
       3 <- 15        -0.00057
       3 <- 19         0.00132
       3 <- 30         0.00166
       3 <- 33         0.00028
       3 <- 35        -0.00099
       3 <- 40        -0.00081
       3 <- 49         0.00105
       3 <- 50        -0.00011
       3 <- 53        -0.00049
       4 <- 12         0.00011
       4 <- 15         0.00097
       4 <- 22        -0.00124
       4 <- 25         0.00092
       4 <- 30        -0.00109
       4 <- 33         0.00048
       4 <- 35        -0.00049

 The electronic state is 1-A1.
 Alpha  occ. eigenvalues --  -19.16394 -10.30878  -0.98160  -0.67570  -0.48972
 Alpha  occ. eigenvalues --   -0.43812  -0.36058  -0.28966
 Alpha virt. eigenvalues --   -0.11371   0.00074   0.03095   0.04151   0.06206
 Alpha virt. eigenvalues --    0.11776   0.15765   0.18851   0.19400   0.21724
 Alpha virt. eigenvalues --    0.23766   0.30112   0.40734   0.43150   0.50967

 Mulliken charges:
               1
     1  C   -0.025332
     2  H    0.156412
     3  H    0.156412
     4  O   -0.287493
 Sum of Mulliken charges =  -0.00000

 Dipole moment (field-independent basis, Debye):
    X=             -0.0000    Y=              0.0000    Z=             -3.2863  Tot=              3.2863
 Quadrupole moment (field-independent basis, Debye-Ang):
   XX=            -12.3388   YY=            -11.7724   ZZ=            -11.8533
   XY=              0.0000   XZ=              0.0000   YZ=             -0.0000

 Normal termination of Gaussian 16 at Fri Sep 17 10:52:52 2021.
