 Q-Chem 6.0, Q-Chem, Inc., Pleasanton, CA (2022)
 Q-Chem 6.0.2 for Intel X86 EM64T Linux

User input:
--------------------------------------------------------------
$molecule
1 1
C                  0.51932475    1.23303451   -0.03194925
C                  1.94454413    1.26916358   -0.03672882
C                  2.62037793    0.09283428   -0.02499003
C                 -0.19603352    0.03013062    0.00102732
H                 -0.02069420    2.17423764   -0.04336646
H                  2.48281698    2.20891057   -0.03611879
H                 -1.27770137    0.03990295    0.01166953
N                  4.09213475    0.09594076    0.03662979
O                  4.63930696   -1.02169275    0.14459220
O                  4.66489883    1.19839699   -0.02327545
C                  0.49428518   -1.16712649    0.02099746
H                 -0.03251071   -2.11492669    0.05447935
C                  1.96291176   -1.21653219   -0.02111314
H                  2.44359113   -1.96306433    0.61513886
Br                 2.17304025   -1.94912156   -1.90618750
$end

$rem
!SCF_GUESS         read
!SKIP_CIS_RPA      TRUE
METHOD             wB97XD
RPA                TRUE
BASIS              6-311+G*
CIS_N_ROOTS        100
CIS_SINGLETS       TRUE
CIS_TRIPLETS       FALSE
MAKE_CUBE_FILES    TRUE
PLOTS              TRUE
STS_MOM            TRUE
SYM_IGNORE         TRUE
SYMMETRY           FALSE
NTO_PAIRS          1
! NBO                2
$end

$plots
grid_points                    75 75 75
total_density                  0-100
transition_density             1-100
natural_transition_orbital     1-100
$end

! natural_bond_orbital           1-5 ! How many here ? Is it physical to mix these ?
! nbo_state                      0-10

--------------------------------------------------------------

             Standard Nuclear Orientation (Angstroms)
    I     Atom           X                Y                Z
 ----------------------------------------------------------------
    1      C       0.5193247500     1.2330345100    -0.0319492500
    2      C       1.9445441300     1.2691635800    -0.0367288200
    3      C       2.6203779300     0.0928342800    -0.0249900300
    4      C      -0.1960335200     0.0301306200     0.0010273200
    5      H      -0.0206942000     2.1742376400    -0.0433664600
    6      H       2.4828169800     2.2089105700    -0.0361187900
    7      H      -1.2777013700     0.0399029500     0.0116695300
    8      N       4.0921347500     0.0959407600     0.0366297900
    9      O       4.6393069600    -1.0216927500     0.1445922000
   10      O       4.6648988300     1.1983969900    -0.0232754500
   11      C       0.4942851800    -1.1671264900     0.0209974600
   12      H      -0.0325107100    -2.1149266900     0.0544793500
   13      C       1.9629117600    -1.2165321900    -0.0211131400
   14      H       2.4435911300    -1.9630643300     0.6151388600
   15      Br      2.1730402500    -1.9491215600    -1.9061875000
 ----------------------------------------------------------------

   17   -3010.5244044966      5.00e-09  Convergence criterion met
 Total energy in the final basis set =    -3010.5244044966
 Excited state 100: excitation energy (eV) =   11.5776

             TDDFT Excitation Energies
 ---------------------------------------------------

 Excited state   1: excitation energy (eV) =    2.3165
 Total energy for state  1:                 -3010.43927500 au
    Multiplicity: Singlet
    Trans. Mom.: -0.2322 X  -0.2492 Y  -0.1175 Z
    Strength   :     0.0073679476
    X: D(   49) --> V(    1) amplitude =  0.9537

 Excited state   2: excitation energy (eV) =    2.6590
 Total energy for state  2:                 -3010.42668886 au
    Multiplicity: Singlet
    Trans. Mom.:  0.1218 X  -0.2207 Y  -0.1482 Z
    Strength   :     0.0055700608
    X: D(   46) --> V(    1) amplitude = -0.2267
    X: D(   47) --> V(    1) amplitude =  0.8615
    X: D(   48) --> V(    1) amplitude =  0.3813

 Excited state   3: excitation energy (eV) =    2.7845
 Total energy for state  3:                 -3010.42207717 au
    Multiplicity: Singlet
    Trans. Mom.:  0.0318 X   0.1055 Y   0.0671 Z
    Strength   :     0.0011349685
    X: D(   47) --> V(    1) amplitude = -0.3358
    X: D(   48) --> V(    1) amplitude =  0.7930
    X: D(   48) --> V(    2) amplitude = -0.3965

 Excited state   4: excitation energy (eV) =    3.1416
 Total energy for state  4:                 -3010.40895459 au
    Multiplicity: Singlet
    Trans. Mom.: -0.1326 X  -0.0532 Y  -0.0317 Z
    Strength   :     0.0016492124
    X: D(   45) --> V(    1) amplitude =  0.8884
    X: D(   45) --> V(    2) amplitude = -0.3586

 Excited state   5: excitation energy (eV) =    3.6051
 Total energy for state  5:                 -3010.39191801 au
    Multiplicity: Singlet
    Trans. Mom.:  0.1651 X  -0.0540 Y   0.0851 Z
    Strength   :     0.0033033810
    X: D(   46) --> V(    1) amplitude =  0.8891
    X: D(   47) --> V(    1) amplitude =  0.2893

 Excited state   6: excitation energy (eV) =    3.9087
 Total energy for state  6:                 -3010.38076288 au
    Multiplicity: Singlet
    Trans. Mom.: -0.9181 X  -0.3123 Y   0.0906 Z
    Strength   :     0.0908455753
    X: D(   44) --> V(    1) amplitude =  0.9564

 Excited state   7: excitation energy (eV) =    4.4847
 Total energy for state  7:                 -3010.35959333 au
    Multiplicity: Singlet
    Trans. Mom.:  0.1772 X   0.0442 Y   0.0090 Z
    Strength   :     0.0036753385
    X: D(   48) --> V(    1) amplitude =  0.4299
    X: D(   48) --> V(    2) amplitude =  0.7069
    X: D(   48) --> V(    4) amplitude = -0.3194
    X: D(   49) --> V(    2) amplitude =  0.2699

 Excited state   8: excitation energy (eV) =    4.8403
 Total energy for state  8:                 -3010.34652664 au
    Multiplicity: Singlet
    Trans. Mom.: -0.0124 X   0.0717 Y   0.0754 Z
    Strength   :     0.0013014300
    X: D(   45) --> V(    1) amplitude =  0.3719
    X: D(   45) --> V(    2) amplitude =  0.7528
    X: D(   45) --> V(    4) amplitude = -0.3267

 Excited state   9: excitation energy (eV) =    5.0637
 Total energy for state  9:                 -3010.33831818 au
    Multiplicity: Singlet
    Trans. Mom.: -0.1239 X   0.7501 Y   0.4496 Z
    Strength   :     0.0967897367
    X: D(   43) --> V(    1) amplitude =  0.8303
    X: D(   49) --> V(    2) amplitude =  0.4433

 Excited state  10: excitation energy (eV) =    5.2936
 Total energy for state 10:                 -3010.32986807 au
    Multiplicity: Singlet
    Trans. Mom.: -0.1402 X  -0.0658 Y   0.1537 Z
    Strength   :     0.0061717952
    X: D(   42) --> V(    1) amplitude =  0.9419

 Excited state  11: excitation energy (eV) =    5.5450
 Total energy for state 11:                 -3010.32063005 au
    Multiplicity: Singlet
    Trans. Mom.:  0.5917 X  -0.4671 Y  -0.2787 Z
    Strength   :     0.0877520863
    X: D(   41) --> V(    1) amplitude =  0.3414
    X: D(   43) --> V(    1) amplitude = -0.3647
    X: D(   49) --> V(    2) amplitude =  0.7027
    X: D(   49) --> V(    3) amplitude =  0.3052

 Excited state  12: excitation energy (eV) =    5.6482
 Total energy for state 12:                 -3010.31683795 au
    Multiplicity: Singlet
    Trans. Mom.: -0.2983 X   0.1628 Y  -0.0727 Z
    Strength   :     0.0167110502
    X: D(   41) --> V(    1) amplitude =  0.8560
    X: D(   49) --> V(    3) amplitude = -0.3223

 Excited state  13: excitation energy (eV) =    5.7736
 Total energy for state 13:                 -3010.31222821 au
    Multiplicity: Singlet
    Trans. Mom.: -0.0304 X   0.2439 Y   0.0492 Z
    Strength   :     0.0088874311
    X: D(   46) --> V(    2) amplitude = -0.2203
    X: D(   47) --> V(    2) amplitude =  0.8483
    X: D(   47) --> V(    3) amplitude =  0.2962

 Excited state  14: excitation energy (eV) =    6.0150
 Total energy for state 14:                 -3010.30335824 au
    Multiplicity: Singlet
    Trans. Mom.: -0.3373 X   0.3007 Y   0.2880 Z
    Strength   :     0.0423067767
    X: D(   43) --> V(    1) amplitude =  0.2151
    X: D(   46) --> V(    2) amplitude = -0.4446
    X: D(   49) --> V(    2) amplitude = -0.3282
    X: D(   49) --> V(    3) amplitude =  0.6754

 Excited state  15: excitation energy (eV) =    6.1560
 Total energy for state 15:                 -3010.29817388 au
    Multiplicity: Singlet
    Trans. Mom.: -0.0412 X  -0.1422 Y   0.0315 Z
    Strength   :     0.0034559212
    X: D(   46) --> V(    3) amplitude = -0.2439
    X: D(   47) --> V(    2) amplitude = -0.3696
    X: D(   47) --> V(    3) amplitude =  0.8331
    X: D(   48) --> V(    3) amplitude =  0.2256

 Excited state  16: excitation energy (eV) =    6.3480
 Total energy for state 16:                 -3010.29111913 au
    Multiplicity: Singlet
    Trans. Mom.: -0.5555 X   1.1233 Y   0.1884 Z
    Strength   :     0.2497431952
    X: D(   46) --> V(    2) amplitude =  0.7917
    X: D(   47) --> V(    2) amplitude =  0.2380
    X: D(   49) --> V(    3) amplitude =  0.3350

 Excited state  17: excitation energy (eV) =    6.6367
 Total energy for state 17:                 -3010.28051195 au
    Multiplicity: Singlet
    Trans. Mom.:  0.5707 X  -0.4262 Y  -0.0072 Z
    Strength   :     0.0824964555
    X: D(   44) --> V(    2) amplitude =  0.9141

 Excited state  18: excitation energy (eV) =    6.9055
 Total energy for state 18:                 -3010.27063231 au
    Multiplicity: Singlet
    Trans. Mom.:  0.1407 X   0.1392 Y   0.3660 Z
    Strength   :     0.0292884498
    X: D(   39) --> V(    1) amplitude =  0.3974
    X: D(   40) --> V(    1) amplitude =  0.7610
    X: D(   48) --> V(    3) amplitude = -0.3016

 Excited state  19: excitation energy (eV) =    6.9430
 Total energy for state 19:                 -3010.26925411 au
    Multiplicity: Singlet
    Trans. Mom.: -0.0381 X   0.1147 Y   0.1885 Z
    Strength   :     0.0085286158
    X: D(   40) --> V(    1) amplitude =  0.3250
    X: D(   48) --> V(    2) amplitude = -0.3131
    X: D(   48) --> V(    3) amplitude =  0.7411
    X: D(   48) --> V(    4) amplitude = -0.3044

 Excited state  20: excitation energy (eV) =    7.1883
 Total energy for state 20:                 -3010.26023951 au
    Multiplicity: Singlet
    Trans. Mom.:  0.1863 X   0.0695 Y   0.0592 Z
    Strength   :     0.0075780547
    X: D(   45) --> V(    2) amplitude = -0.2977
    X: D(   45) --> V(    3) amplitude =  0.8135
    X: D(   45) --> V(    4) amplitude = -0.2693

 Excited state  21: excitation energy (eV) =    7.2686
 Total energy for state 21:                 -3010.25728970 au
    Multiplicity: Singlet
    Trans. Mom.:  0.0342 X   0.1878 Y  -0.0077 Z
    Strength   :     0.0065003267
    X: D(   43) --> V(    2) amplitude = -0.2500
    X: D(   44) --> V(    3) amplitude = -0.3480
    X: D(   46) --> V(    3) amplitude =  0.6910
    X: D(   47) --> V(    3) amplitude =  0.2636
    X: D(   49) --> V(    4) amplitude = -0.3626

 Excited state  22: excitation energy (eV) =    7.3839
 Total energy for state 22:                 -3010.25305291 au
    Multiplicity: Singlet
    Trans. Mom.:  0.4120 X  -0.8014 Y  -0.2468 Z
    Strength   :     0.1579123473
    X: D(   43) --> V(    2) amplitude = -0.2479
    X: D(   44) --> V(    2) amplitude =  0.2259
    X: D(   44) --> V(    3) amplitude = -0.2713
    X: D(   48) --> V(    3) amplitude =  0.2268
    X: D(   49) --> V(    4) amplitude =  0.7475

 Excited state  23: excitation energy (eV) =    7.4318
 Total energy for state 23:                 -3010.25129084 au
    Multiplicity: Singlet
    Trans. Mom.:  0.1320 X   0.2758 Y   0.1106 Z
    Strength   :     0.0192436664
    X: D(   43) --> V(    2) amplitude =  0.3989
    X: D(   44) --> V(    3) amplitude =  0.5395
    X: D(   46) --> V(    3) amplitude =  0.5066
    X: D(   49) --> V(    4) amplitude =  0.2297

 Excited state  24: excitation energy (eV) =    7.5609
 Total energy for state 24:                 -3010.24654801 au
    Multiplicity: Singlet
    Trans. Mom.:  0.1152 X  -0.5039 Y  -0.0893 Z
    Strength   :     0.0509634862
    X: D(   45) --> V(    4) amplitude =  0.3702
    X: D(   48) --> V(    3) amplitude = -0.2724
    X: D(   48) --> V(    4) amplitude = -0.6758
    X: D(   49) --> V(    4) amplitude =  0.3033

 Excited state  25: excitation energy (eV) =    7.6278
 Total energy for state 25:                 -3010.24408642 au
    Multiplicity: Singlet
    Trans. Mom.: -0.1267 X  -0.1913 Y  -0.4371 Z
    Strength   :     0.0455463187
    X: D(   39) --> V(    1) amplitude =  0.7062
    X: D(   40) --> V(    1) amplitude = -0.3845
    X: D(   42) --> V(    2) amplitude = -0.3100
    X: D(   43) --> V(    2) amplitude =  0.3031

 Excited state  26: excitation energy (eV) =    7.7366
 Total energy for state 26:                 -3010.24008784 au
    Multiplicity: Singlet
    Trans. Mom.: -0.4891 X  -0.3691 Y   0.0401 Z
    Strength   :     0.0714686539
    X: D(   38) --> V(    1) amplitude =  0.3864
    X: D(   42) --> V(    2) amplitude =  0.2946
    X: D(   43) --> V(    2) amplitude =  0.5735
    X: D(   44) --> V(    3) amplitude = -0.4640

 Excited state  27: excitation energy (eV) =    7.7661
 Total energy for state 27:                 -3010.23900528 au
    Multiplicity: Singlet
    Trans. Mom.: -0.2135 X   0.3708 Y   0.1893 Z
    Strength   :     0.0416458460
    X: D(   47) --> V(    4) amplitude =  0.9314

 Excited state  28: excitation energy (eV) =    7.8599
 Total energy for state 28:                 -3010.23555925 au
    Multiplicity: Singlet
    Trans. Mom.:  0.2452 X  -0.1452 Y  -0.0759 Z
    Strength   :     0.0167479936
    X: D(   45) --> V(    3) amplitude =  0.4461
    X: D(   45) --> V(    4) amplitude =  0.6398
    X: D(   46) --> V(    4) amplitude =  0.2639
    X: D(   48) --> V(    3) amplitude =  0.2505
    X: D(   48) --> V(    4) amplitude =  0.2439

 Excited state  29: excitation energy (eV) =    7.9604
 Total energy for state 29:                 -3010.23186516 au
    Multiplicity: Singlet
    Trans. Mom.:  0.4249 X   0.0908 Y  -0.1724 Z
    Strength   :     0.0426158359
    X: D(   35) --> V(    1) amplitude = -0.2506
    X: D(   37) --> V(    1) amplitude =  0.3840
    X: D(   38) --> V(    1) amplitude =  0.6684
    X: D(   43) --> V(    2) amplitude = -0.3237
    X: D(   44) --> V(    3) amplitude =  0.2742

 Excited state  30: excitation energy (eV) =    7.9909
 Total energy for state 30:                 -3010.23074355 au
    Multiplicity: Singlet
    Trans. Mom.: -0.3200 X  -0.3833 Y   0.1483 Z
    Strength   :     0.0531197032
    X: D(   37) --> V(    1) amplitude =  0.2229
    X: D(   45) --> V(    4) amplitude = -0.2178
    X: D(   46) --> V(    4) amplitude =  0.8253

 Excited state  31: excitation energy (eV) =    8.0788
 Total energy for state 31:                 -3010.22751235 au
    Multiplicity: Singlet
    Trans. Mom.: -0.1684 X   0.1860 Y   0.1162 Z
    Strength   :     0.0151334780
    X: D(   37) --> V(    1) amplitude =  0.6008
    X: D(   39) --> V(    1) amplitude = -0.3347
    X: D(   42) --> V(    2) amplitude = -0.4273
    X: D(   46) --> V(    4) amplitude = -0.3157

 Excited state  32: excitation energy (eV) =    8.3356
 Total energy for state 32:                 -3010.21807603 au
    Multiplicity: Singlet
    Trans. Mom.:  0.0120 X   0.0015 Y   0.0597 Z
    Strength   :     0.0007575362
    X: D(   36) --> V(    1) amplitude = -0.2172
    X: D(   37) --> V(    1) amplitude =  0.3438
    X: D(   39) --> V(    1) amplitude =  0.2274
    X: D(   41) --> V(    2) amplitude =  0.5744
    X: D(   42) --> V(    2) amplitude =  0.5105

 Excited state  33: excitation energy (eV) =    8.4723
 Total energy for state 33:                 -3010.21305473 au
    Multiplicity: Singlet
    Trans. Mom.:  0.2818 X  -0.3923 Y  -0.1258 Z
    Strength   :     0.0517070330
    X: D(   37) --> V(    1) amplitude =  0.2375
    X: D(   43) --> V(    3) amplitude = -0.4196
    X: D(   44) --> V(    4) amplitude =  0.7651

 Excited state  34: excitation energy (eV) =    8.5570
 Total energy for state 34:                 -3010.20994169 au
    Multiplicity: Singlet
    Trans. Mom.:  0.0747 X  -0.1646 Y  -0.1307 Z
    Strength   :     0.0104301221
    X: D(   35) --> V(    1) amplitude = -0.2280
    X: D(   37) --> V(    1) amplitude = -0.3665
    X: D(   38) --> V(    1) amplitude =  0.2358
    X: D(   41) --> V(    2) amplitude =  0.6041
    X: D(   42) --> V(    2) amplitude = -0.3681
    X: D(   44) --> V(    4) amplitude =  0.2842

 Excited state  35: excitation energy (eV) =    8.7519
 Total energy for state 35:                 -3010.20277672 au
    Multiplicity: Singlet
    Trans. Mom.: -0.5748 X  -0.3275 Y   0.0309 Z
    Strength   :     0.0940421562
    X: D(   49) --> V(    5) amplitude =  0.8598
    X: D(   49) --> V(    6) amplitude = -0.2304

 Excited state  36: excitation energy (eV) =    8.8586
 Total energy for state 36:                 -3010.19885593 au
    Multiplicity: Singlet
    Trans. Mom.: -0.0622 X  -0.0291 Y   0.0267 Z
    Strength   :     0.0011785009
    X: D(   34) --> V(    1) amplitude = -0.2374
    X: D(   35) --> V(    1) amplitude =  0.6646
    X: D(   36) --> V(    1) amplitude = -0.2679
    X: D(   38) --> V(    1) amplitude =  0.4068
    X: D(   38) --> V(    2) amplitude = -0.3807

 Excited state  37: excitation energy (eV) =    9.0432
 Total energy for state 37:                 -3010.19207235 au
    Multiplicity: Singlet
    Trans. Mom.:  0.2667 X   0.1049 Y   0.5984 Z
    Strength   :     0.0975233807
    X: D(   43) --> V(    3) amplitude =  0.7875
    X: D(   44) --> V(    4) amplitude =  0.4121

 Excited state  38: excitation energy (eV) =    9.0924
 Total energy for state 38:                 -3010.19026518 au
    Multiplicity: Singlet
    Trans. Mom.: -0.0795 X   0.4624 Y  -0.0861 Z
    Strength   :     0.0506948880
    X: D(   47) --> V(    5) amplitude =  0.7586
    X: D(   47) --> V(    6) amplitude = -0.3523
    X: D(   47) --> V(    9) amplitude = -0.2581
    X: D(   48) --> V(    5) amplitude =  0.2549

 Excited state  39: excitation energy (eV) =    9.2000
 Total energy for state 39:                 -3010.18631078 au
    Multiplicity: Singlet
    Trans. Mom.:  0.0176 X  -0.1950 Y  -0.2251 Z
    Strength   :     0.0200654742
    X: D(   34) --> V(    1) amplitude =  0.3567
    X: D(   35) --> V(    1) amplitude =  0.3855
    X: D(   36) --> V(    1) amplitude =  0.4822
    X: D(   48) --> V(    5) amplitude =  0.3464

 Excited state  40: excitation energy (eV) =    9.2726
 Total energy for state 40:                 -3010.18364395 au
    Multiplicity: Singlet
    Trans. Mom.:  0.0386 X  -0.2038 Y   0.0694 Z
    Strength   :     0.0108704005
    X: D(   36) --> V(    1) amplitude = -0.2988
    X: D(   47) --> V(    5) amplitude = -0.2178
    X: D(   48) --> V(    5) amplitude =  0.5846
    X: D(   48) --> V(    7) amplitude = -0.3296
    X: D(   48) --> V(   12) amplitude =  0.2794

 Excited state  41: excitation energy (eV) =    9.4259
 Total energy for state 41:                 -3010.17800861 au
    Multiplicity: Singlet
    Trans. Mom.:  0.1227 X  -0.0938 Y  -0.0398 Z
    Strength   :     0.0058776894
    X: D(   34) --> V(    1) amplitude =  0.2255
    X: D(   46) --> V(    5) amplitude =  0.6426
    X: D(   46) --> V(    7) amplitude = -0.3178
    X: D(   46) --> V(   12) amplitude =  0.2656
    X: D(   49) --> V(    7) amplitude = -0.2130

 Excited state  42: excitation energy (eV) =    9.4875
 Total energy for state 42:                 -3010.17574615 au
    Multiplicity: Singlet
    Trans. Mom.:  0.1847 X   0.0841 Y   0.1077 Z
    Strength   :     0.0122735419
    X: D(   34) --> V(    1) amplitude =  0.4282
    X: D(   36) --> V(    1) amplitude = -0.2712
    X: D(   40) --> V(    2) amplitude =  0.3104
    X: D(   42) --> V(    3) amplitude = -0.2506
    X: D(   43) --> V(    4) amplitude = -0.2938
    X: D(   45) --> V(    5) amplitude =  0.3842
    X: D(   49) --> V(    6) amplitude =  0.2319

 Excited state  43: excitation energy (eV) =    9.4927

 Excited state 100: excitation energy (eV) =   11.5423
  Excited state 1:   2.4094 eV (singlet)
  Excited state 2:   2.7027 eV (singlet)
  Excited state 3:   2.8069 eV (singlet)
  Excited state 4:   3.1683 eV (singlet)
  Excited state 5:   3.7081 eV (singlet)
  Excited state 6:   4.1420 eV (singlet)
  Excited state 7:   4.5038 eV (singlet)
  Excited state 8:   4.8562 eV (singlet)
  Excited state 9:   5.1840 eV (singlet)
  Excited state 10:   5.3191 eV (singlet)
  Excited state 11:   5.6245 eV (singlet)
  Excited state 12:   5.7054 eV (singlet)
  Excited state 13:   5.7981 eV (singlet)
  Excited state 14:   6.1756 eV (singlet)
  Excited state 15:   6.2408 eV (singlet)
  Excited state 16:   6.6611 eV (singlet)
  Excited state 17:   6.7681 eV (singlet)
  Excited state 18:   6.9412 eV (singlet)
  Excited state 19:   6.9752 eV (singlet)
  Excited state 20:   7.1951 eV (singlet)
  Excited state 21:   7.3459 eV (singlet)
  Excited state 22:   7.4535 eV (singlet)
  Excited state 23:   7.4987 eV (singlet)
  Excited state 24:   7.6510 eV (singlet)
  Excited state 25:   7.6972 eV (singlet)
  Excited state 26:   7.8007 eV (singlet)
  Excited state 27:   7.8255 eV (singlet)
  Excited state 28:   7.8839 eV (singlet)
  Excited state 29:   8.0140 eV (singlet)
  Excited state 30:   8.1533 eV (singlet)
  Excited state 31:   8.2194 eV (singlet)
  Excited state 32:   8.3483 eV (singlet)
  Excited state 33:   8.5601 eV (singlet)
  Excited state 34:   8.6025 eV (singlet)
  Excited state 35:   8.7803 eV (singlet)
  Excited state 36:   8.9006 eV (singlet)
  Excited state 37:   9.0992 eV (singlet)
  Excited state 38:   9.1552 eV (singlet)
  Excited state 61:  10.4044 eV (singlet)
  Excited state 62:  10.4100 eV (singlet)
  Excited state 63:  10.4614 eV (singlet)
  Excited state 64:  10.5294 eV (singlet)
  Excited state 65:  10.5527 eV (singlet)
  Excited state 66:  10.5802 eV (singlet)
  Excited state 67:  10.5886 eV (singlet)
  Excited state 68:  10.6693 eV (singlet)
  Excited state 69:  10.6912 eV (singlet)
  Excited state 70:  10.6984 eV (singlet)
  Excited state 71:  10.7305 eV (singlet)
  Excited state 72:  10.7406 eV (singlet)
  Excited state 73:  10.7890 eV (singlet)
  Excited state 74:  10.8146 eV (singlet)
  Excited state 75:  10.8338 eV (singlet)
  Excited state 76:  10.8728 eV (singlet)
  Excited state 77:  10.8855 eV (singlet)
  Excited state 78:  10.9130 eV (singlet)
  Excited state 79:  10.9386 eV (singlet)
  Excited state 80:  10.9858 eV (singlet)
  Excited state 81:  11.0083 eV (singlet)
  Excited state 82:  11.0584 eV (singlet)
  Excited state 83:  11.0911 eV (singlet)
  Excited state 84:  11.0937 eV (singlet)
  Excited state 85:  11.1010 eV (singlet)
  Excited state 86:  11.1404 eV (singlet)
  Excited state 87:  11.1674 eV (singlet)
  Excited state 88:  11.1762 eV (singlet)
  Excited state 89:  11.2118 eV (singlet)
  Excited state 90:  11.2240 eV (singlet)
  Excited state 91:  11.3014 eV (singlet)
  Excited state 92:  11.3164 eV (singlet)
  Excited state 93:  11.3759 eV (singlet)
  Excited state 94:  11.3949 eV (singlet)
  Excited state 95:  11.4076 eV (singlet)
  Excited state 96:  11.4417 eV (singlet)
  Excited state 97:  11.4892 eV (singlet)
  Excited state 98:  11.5087 eV (singlet)
  Excited state 99:  11.5264 eV (singlet)
  Excited state 100:  11.5423 eV (singlet)

                    Orbital Energies (a.u.)
 --------------------------------------------------------------

 Alpha MOs
 -- Occupied --
******** -62.8604 -56.6575 -56.6518 -56.6517 -19.4609 -19.4608 -14.8555
-10.5909 -10.5788 -10.5717 -10.5683 -10.5325 -10.5262  -9.0176  -6.8445
 -6.8258  -6.8255  -2.9435  -2.9386  -2.9384  -2.9233  -2.9233  -1.4985
 -1.3281  -1.2231  -1.1274  -1.1232  -1.0464  -1.0019  -0.9523  -0.9047
 -0.8486  -0.8082  -0.8005  -0.7998  -0.7781  -0.7612  -0.7548  -0.7186
 -0.6842  -0.6746  -0.6323  -0.5970  -0.5734  -0.5667  -0.5605  -0.5586
 -0.5445

          Ground-State Mulliken Net Atomic Charges

     Atom                 Charge (a.u.)
  ----------------------------------------
      1 C                    -0.104579
      2 C                     0.200607
      3 C                    -0.075174
      4 C                    -0.373325
      5 H                     0.345489
      6 H                     0.350053
      7 H                     0.330666
      8 N                    -0.236492
      9 O                     0.082539
     10 O                     0.071119
     11 C                    -0.142706
     12 H                     0.353896
     13 C                    -0.348192
     14 H                     0.406109
     15 Br                    0.139990
  ----------------------------------------
  Sum of atomic charges =     1.000000

                    Cartesian Multipole Moments
 -----------------------------------------------------------------
    Charge (ESU x 10^10)
                 4.8032
    Dipole Moment (Debye)
         X       2.7869      Y      -0.9120      Z      -0.7593
       Tot       3.0290
    Quadrupole Moments (Debye-Ang)
        XX     -67.8370     XY      -2.9937     YY     -51.1200
        XZ      -2.5953     YZ       2.4921     ZZ     -62.1158

 Total job time:  1366.63s(wall), 13972.09s(cpu)
        *  Thank you very much for using Q-Chem.  Have a nice day.  *
