 Gaussian 16, Revision A.03,
 Gaussian 16:  ES64L-G16RevA.03 25-Dec-2016

 --------------------------------------------------------------------
 #p B3LYP/6-311+G** #p TD=(singlets,nstates=30)IOp(6/8=3) IOp(9/40=4)
 --------------------------------------------------------------------

 -------------------------------
 Scan Step 252, Bond Length 1.76
 -------------------------------
 Symbolic Z-matrix:
 Charge =  0 Multiplicity = 1

                         Standard orientation:
 ---------------------------------------------------------------------
 Center     Atomic      Atomic             Coordinates (Angstroms)
 Number     Number       Type             X           Y           Z
 ---------------------------------------------------------------------
      1          6           0        0.000000    0.000000   -0.806081
      2          1           0        0.000000    0.937260   -1.397431
      3          1           0       -0.000000   -0.937260   -1.397431
      4          8           0        0.000000   -0.000000    0.953919
 ---------------------------------------------------------------------

 SCF Done:  E(RB3LYP) =  -114.370081280     A.U. after   11 cycles

 Excitation energies and oscillator strengths:

 Excited State   1:      Singlet-A2     1.4710 eV  842.86 nm  f=0.0000  <S**2>=0.000
       3 -> 27         0.00083
       3 -> 38         0.00055
       3 -> 46         0.00336
       4 -> 27         0.00046
       4 -> 46        -0.00108
       5 ->  9         0.00312
       5 -> 13         0.00111
       5 -> 18         0.00202
       5 -> 23         0.00148
       5 -> 28         0.00163
       5 -> 37         0.00090
       5 -> 44         0.00024
       5 -> 52         0.00022
       6 -> 27        -0.00060
       6 -> 38        -0.00063
       6 -> 46         0.00106
       7 -> 12        -0.00116
       7 -> 16         0.00517
       7 -> 19        -0.00448
       7 -> 22        -0.00106
       7 -> 25        -0.00068
       7 -> 29        -0.00180
       7 -> 33         0.00030
       7 -> 49         0.00013
       7 -> 51         0.00010
       7 -> 53         0.00040
       8 ->  9         0.71003
       8 -> 13        -0.00841
       8 -> 18         0.02110
       8 -> 23        -0.00157
       8 -> 28         0.01060
       8 -> 31         0.00153
       8 -> 37         0.00053
       8 -> 48        -0.00031
       8 -> 52         0.00189
       3 <- 27         0.00028
       3 <- 38         0.00032
       3 <- 46         0.00339
       4 <- 27         0.00085
       4 <- 38         0.00021
       4 <- 46        -0.00085
       5 <-  9         0.00017
       5 <- 13        -0.00039
       5 <- 18        -0.00047
       5 <- 23         0.00019
       5 <- 28        -0.00033
       5 <- 31         0.00025
       5 <- 37         0.00052
       6 <- 38        -0.00049
       6 <- 46         0.00079
       7 <- 12         0.00145
       7 <- 16        -0.01049
       7 <- 19         0.00504
       7 <- 22         0.00615
       7 <- 25        -0.00062
       7 <- 29         0.00555
       7 <- 33        -0.00037
       7 <- 35         0.00031
       7 <- 40        -0.00021
       7 <- 42         0.00015
       7 <- 49        -0.00047
       7 <- 53         0.00146
       8 <-  9        -0.06766
       8 <- 13        -0.00018
       8 <- 18        -0.00742
       8 <- 23        -0.00020
       8 <- 28        -0.00267
       8 <- 31        -0.00076
       8 <- 37        -0.00027
       8 <- 48         0.00012
       8 <- 52         0.00047
 This state for optimization and/or second-order correction.
 Total Energy, E(TD-HF/TD-DFT) =  -114.316023081
 Copying the excited state density for this state as the 1-particle RhoCI density.

 Excited State   2:      Singlet-A1     3.8583 eV  321.34 nm  f=0.0418  <S**2>=0.000
       3 -> 10        -0.01684
       3 -> 11        -0.00484
       3 -> 14         0.00340
       3 -> 15         0.00115
       3 -> 17        -0.00323
       3 -> 20        -0.00381
       3 -> 21         0.00012
       3 -> 24         0.00102
       3 -> 26         0.00202
       3 -> 30        -0.00109
       3 -> 32         0.00276
       3 -> 34        -0.00133
       3 -> 36        -0.00111
       3 -> 39         0.00054
       3 -> 43         0.00053
       3 -> 45         0.00073
       3 -> 47         0.00230
       3 -> 50         0.00142
       4 -> 10        -0.00350
       4 -> 11         0.01180
       4 -> 14         0.00261
       4 -> 15        -0.00855
       4 -> 17         0.00254
       4 -> 20         0.00294
       4 -> 21         0.00034
       4 -> 24        -0.00411
       4 -> 26         0.00388
       4 -> 30         0.00066
       4 -> 32        -0.00133
       4 -> 34         0.00099
       4 -> 36         0.00027
       4 -> 39         0.00011
       4 -> 41         0.00010
       4 -> 43        -0.00051
       4 -> 45        -0.00080
       4 -> 47        -0.00089
       4 -> 50        -0.00031
       4 -> 54         0.00015
       5 -> 12         0.01169
       5 -> 16         0.00464
       5 -> 19         0.00129
       5 -> 22         0.00727
       5 -> 25        -0.00566
       5 -> 29         0.00028
       5 -> 33        -0.00261
       5 -> 35         0.00277
       5 -> 40        -0.00117
       5 -> 42         0.00089
       5 -> 49         0.00024
       5 -> 51        -0.00080
       6 -> 10         0.23166
       6 -> 11         0.05176
       6 -> 14        -0.05805
       6 -> 15        -0.03037
       6 -> 17        -0.01720
       6 -> 20        -0.00370
       6 -> 21         0.00758
       6 -> 24        -0.00959
       6 -> 26        -0.00417
       6 -> 30        -0.00572
       6 -> 32         0.00282
       6 -> 34        -0.00140
       6 -> 36         0.00019
       6 -> 39         0.00119
       6 -> 41        -0.00019
       6 -> 43         0.00085
       6 -> 45         0.00084
       6 -> 47         0.00091
       6 -> 50         0.00066
       6 -> 54        -0.00090
       7 ->  9         0.67869
       7 -> 13        -0.00525
       7 -> 18        -0.01267
       7 -> 23        -0.00202
       7 -> 28         0.00057
       7 -> 31        -0.00325
       7 -> 37         0.00124
       7 -> 44        -0.00099
       7 -> 48         0.00017
       7 -> 52         0.00106
       8 -> 12        -0.00784
       8 -> 16         0.04514
       8 -> 19        -0.02037
       8 -> 22        -0.01631
       8 -> 29        -0.00919
       8 -> 33         0.00125
       8 -> 35        -0.00115
       8 -> 40         0.00051
       8 -> 42        -0.00033
       8 -> 49         0.00027
       8 -> 51         0.00017
       8 -> 53        -0.00056
       3 <- 10        -0.01265
       3 <- 11        -0.00401
       3 <- 14         0.00276
       3 <- 15         0.00050
       3 <- 17        -0.00179
       3 <- 20        -0.00312
       3 <- 21        -0.00034
       3 <- 24         0.00041
       3 <- 26         0.00093
       3 <- 30        -0.00059
       3 <- 32         0.00247
       3 <- 34        -0.00073
       3 <- 36        -0.00104
       3 <- 39         0.00050
       3 <- 43         0.00060
       3 <- 45         0.00089
       3 <- 47         0.00233
       3 <- 50         0.00142
       3 <- 54         0.00012
       4 <- 10        -0.00108
       4 <- 11         0.00821
       4 <- 14         0.00174
       4 <- 15        -0.00561
       4 <- 17         0.00146
       4 <- 20         0.00314
       4 <- 21         0.00018
       4 <- 24        -0.00303
       4 <- 26         0.00331
       4 <- 32        -0.00150
       4 <- 34         0.00084
       4 <- 36         0.00056
       4 <- 39         0.00011
       4 <- 43        -0.00047
       4 <- 45        -0.00078
       4 <- 47        -0.00056
       4 <- 50        -0.00017
       4 <- 54         0.00011
       5 <- 12         0.00648
       5 <- 16         0.00284
       5 <- 19         0.00099
       5 <- 22         0.00501
       5 <- 25        -0.00425
       5 <- 29         0.00032
       5 <- 33        -0.00213
       5 <- 35         0.00235
       5 <- 40        -0.00105
       5 <- 42         0.00077
       5 <- 49         0.00023
       5 <- 51        -0.00075
       6 <- 10         0.07681
       6 <- 11         0.01986
       6 <- 14        -0.02634
       6 <- 15        -0.01518
       6 <- 17        -0.00977
       6 <- 20        -0.00347
       6 <- 21         0.00498
       6 <- 24        -0.00621
       6 <- 26        -0.00229
       6 <- 30        -0.00399
       6 <- 32         0.00298
       6 <- 34        -0.00160
       6 <- 36        -0.00030
       6 <- 39         0.00112
       6 <- 41        -0.00016
       6 <- 43         0.00070
       6 <- 45         0.00064
       6 <- 47         0.00053
       6 <- 50         0.00052
       6 <- 54        -0.00081
       7 <-  9        -0.13037
       7 <- 13         0.00458
       7 <- 18        -0.01221
       7 <- 23         0.00155
       7 <- 28        -0.00233
       7 <- 31        -0.00158
       7 <- 37         0.00057
       7 <- 44        -0.00073
       7 <- 48        -0.00036
       7 <- 52         0.00096
       8 <- 12        -0.00278
       8 <- 16         0.02056
       8 <- 19        -0.01085
       8 <- 22        -0.01020
       8 <- 29        -0.00716
       8 <- 33         0.00098
       8 <- 35        -0.00091
       8 <- 40         0.00041
       8 <- 42        -0.00026
       8 <- 49         0.00012
       8 <- 51         0.00014
       8 <- 53        -0.00052

 Excited State   3:      Singlet-B1     4.3229 eV  286.81 nm  f=0.0008  <S**2>=0.000
       3 ->  9        -0.02493
       3 -> 13         0.00108
       3 -> 18        -0.00390
       3 -> 23         0.00134
       3 -> 28        -0.00079
       3 -> 31        -0.00059
       3 -> 37         0.00011
       3 -> 44         0.00029
       3 -> 48         0.00079
       3 -> 52         0.00081
       4 ->  9         0.01013
       4 -> 13        -0.00222
       4 -> 18         0.00013
       4 -> 23        -0.00199
       4 -> 28         0.00041
       4 -> 31        -0.00130
       4 -> 37        -0.00032
       4 -> 48        -0.00072
       4 -> 52        -0.00039
       5 -> 38         0.00183
       5 -> 46         0.00055
       6 ->  9         0.69008
       6 -> 13        -0.01766
       6 -> 18         0.01480
       6 -> 23        -0.01037
       6 -> 28         0.00362
       6 -> 31         0.00257
       6 -> 37        -0.00173
       6 -> 44        -0.00213
       6 -> 48         0.00361
       6 -> 52         0.00113
       7 -> 10         0.15551
       7 -> 11         0.02563
       7 -> 14        -0.02324
       7 -> 15        -0.00697
       7 -> 17        -0.00928
       7 -> 20         0.00356
       7 -> 21         0.00127
       7 -> 24        -0.00197
       7 -> 26        -0.00244
       7 -> 30        -0.00423
       7 -> 32        -0.00012
       7 -> 34        -0.00080
       7 -> 36         0.00153
       7 -> 39         0.00018
       7 -> 41        -0.00025
       7 -> 43         0.00048
       7 -> 45         0.00039
       7 -> 47         0.00374
       7 -> 50         0.00122
       8 -> 27         0.00016
       8 -> 46         0.00461
       3 <-  9        -0.00841
       3 <- 13        -0.00084
       3 <- 18        -0.00260
       3 <- 23        -0.00059
       3 <- 28        -0.00044
       3 <- 31        -0.00075
       3 <- 37         0.00016
       3 <- 48         0.00091
       3 <- 52         0.00071
       4 <-  9         0.00599
       4 <- 13        -0.00041
       4 <- 18         0.00156
       4 <- 23        -0.00073
       4 <- 28         0.00143
       4 <- 31        -0.00089
       4 <- 37        -0.00020
       4 <- 48        -0.00063
       4 <- 52        -0.00021
       5 <- 27        -0.00043
       5 <- 38         0.00156
       5 <- 46         0.00049
       6 <-  9        -0.03403
       6 <- 13         0.00195
       6 <- 18        -0.00420
       6 <- 28        -0.00381
       6 <- 31         0.00047
       6 <- 37        -0.00144
       6 <- 44        -0.00082
       6 <- 48         0.00323
       6 <- 52         0.00020
       7 <- 10        -0.03798
       7 <- 11        -0.00973
       7 <- 14         0.01397
       7 <- 15         0.00909
       7 <- 17         0.00259
       7 <- 20         0.00359
       7 <- 21        -0.00356
       7 <- 24         0.00424
       7 <- 26         0.00173
       7 <- 30         0.00179
       7 <- 32         0.00036
       7 <- 34        -0.00108
       7 <- 36         0.00178
       7 <- 39         0.00057
       7 <- 43         0.00028
       7 <- 45         0.00018
       7 <- 47         0.00347
       7 <- 50         0.00127
       7 <- 54         0.00092
       8 <- 27         0.00064
       8 <- 38         0.00014
       8 <- 46         0.00432

 Excited State   4:      Singlet-B2     4.4195 eV  280.54 nm  f=0.0043  <S**2>=0.000
       3 -> 12        -0.00135
       3 -> 16         0.00164
       3 -> 19        -0.00433
       3 -> 22         0.00094
       3 -> 25        -0.00081
       3 -> 29        -0.00295
       3 -> 35         0.00176
       3 -> 40        -0.00156
       3 -> 42         0.00051
       3 -> 49        -0.00359
       3 -> 51         0.00019
       3 -> 53         0.00030
       4 -> 12         0.00045
       4 -> 16        -0.00187
       4 -> 19         0.00042
       4 -> 22         0.00217
       4 -> 25         0.00094
       4 -> 29         0.00114
       4 -> 33        -0.00039
       4 -> 35         0.00048
       4 -> 40         0.00038
       4 -> 42        -0.00011
       4 -> 49         0.00068
       4 -> 51        -0.00012
       5 -> 10         0.01090
       5 -> 11         0.00220
       5 -> 14        -0.00542
       5 -> 15         0.00387
       5 -> 17        -0.00038
       5 -> 20         0.00210
       5 -> 21         0.00403
       5 -> 24         0.00161
       5 -> 26        -0.00089
       5 -> 30        -0.00200
       5 -> 32        -0.00181
       5 -> 34         0.00052
       5 -> 39        -0.00083
       5 -> 41         0.00051
       5 -> 47        -0.00055
       5 -> 50         0.00035
       5 -> 54        -0.00022
       6 -> 12         0.00266
       6 -> 16        -0.00251
       6 -> 19         0.00391
       6 -> 22        -0.00053
       6 -> 25         0.00106
       6 -> 29        -0.00013
       6 -> 35        -0.00156
       6 -> 40         0.00118
       6 -> 42        -0.00067
       6 -> 49         0.00145
       6 -> 53        -0.00044
       7 -> 27        -0.00062
       7 -> 38         0.00048
       7 -> 46         0.00344
       8 -> 10         0.69634
       8 -> 11         0.09357
       8 -> 14        -0.07784
       8 -> 15        -0.03036
       8 -> 17        -0.01637
       8 -> 20         0.00286
       8 -> 21         0.00705
       8 -> 24        -0.00651
       8 -> 26        -0.00506
       8 -> 30        -0.01205
       8 -> 32        -0.00336
       8 -> 34         0.00156
       8 -> 36         0.00090
       8 -> 39        -0.00071
       8 -> 45         0.00101
       8 -> 47        -0.00425
       8 -> 50         0.00181
       8 -> 54        -0.00228
       3 <- 12        -0.00048
       3 <- 16         0.00053
       3 <- 19        -0.00209
       3 <- 22         0.00096
       3 <- 25        -0.00073
       3 <- 29        -0.00118
       3 <- 35         0.00125
       3 <- 40        -0.00135
       3 <- 42         0.00039
       3 <- 49        -0.00366
       3 <- 51         0.00018
       3 <- 53         0.00081
       4 <- 16        -0.00193
       4 <- 19         0.00014
       4 <- 22         0.00235
       4 <- 25         0.00057
       4 <- 29         0.00126
       4 <- 33        -0.00043
       4 <- 35         0.00069
       4 <- 40         0.00015
       4 <- 49         0.00049
       5 <- 10        -0.00081
       5 <- 11        -0.00095
       5 <- 14        -0.00063
       5 <- 15         0.00300
       5 <- 17         0.00020
       5 <- 20         0.00076
       5 <- 21         0.00186
       5 <- 24         0.00192
       5 <- 26        -0.00023
       5 <- 30        -0.00043
       5 <- 32        -0.00031
       5 <- 39        -0.00034
       5 <- 41         0.00054
       5 <- 45         0.00029
       5 <- 47        -0.00053
       5 <- 50         0.00019
       6 <- 12        -0.00046
       6 <- 16         0.00712
       6 <- 19        -0.00354
       6 <- 22        -0.00498
       6 <- 25         0.00101
       6 <- 29        -0.00579
       6 <- 33         0.00033
       6 <- 35        -0.00146
       6 <- 40         0.00120
       6 <- 42        -0.00073
       6 <- 49         0.00185
       6 <- 53        -0.00134
       7 <- 27        -0.00061
       7 <- 38         0.00039
       7 <- 46         0.00292
       8 <- 10        -0.03326
       8 <- 11        -0.00860
       8 <- 14         0.00915
       8 <- 15         0.00253
       8 <- 17         0.00131
       8 <- 20        -0.00296
       8 <- 21        -0.00172
       8 <- 24         0.00161
       8 <- 26         0.00152
       8 <- 30         0.00040
       8 <- 32         0.00307
       8 <- 34        -0.00101
       8 <- 36        -0.00063
       8 <- 39         0.00134
       8 <- 41         0.00032
       8 <- 43         0.00049
       8 <- 45         0.00178
       8 <- 47        -0.00342
       8 <- 50         0.00130
       8 <- 54        -0.00062

 Excited State   5:      Singlet-B1     5.2856 eV  234.57 nm  f=0.0075  <S**2>=0.000
       3 ->  9        -0.00926
       3 -> 13         0.00045
       3 -> 18        -0.00262
       3 -> 23         0.00067
       3 -> 28        -0.00294
       3 -> 31        -0.00156
       3 -> 37         0.00011
       3 -> 44         0.00034
       3 -> 48        -0.00277
       3 -> 52        -0.00011
       4 ->  9        -0.03164
       4 -> 13         0.00611
       4 -> 18         0.00112
       4 -> 23         0.00461
       4 -> 28         0.00145
       4 -> 31         0.00010
       4 -> 37         0.00033
       4 -> 44        -0.00046
       4 -> 48         0.00074
       4 -> 52         0.00014
       5 -> 27        -0.00678
       5 -> 38        -0.00327
       5 -> 46         0.00033
       6 ->  9        -0.15655
       6 -> 13        -0.00041
       6 -> 18         0.00144
       6 -> 23         0.00037
       6 -> 28         0.00317
       6 -> 31        -0.00373
       6 -> 37         0.00216
       6 -> 44         0.00046
       6 -> 48         0.00026
       6 -> 52        -0.00068
       7 -> 10         0.68043
       7 -> 11         0.07938
       7 -> 14        -0.06945
       7 -> 15        -0.03632
       7 -> 17        -0.00968
       7 -> 20        -0.00326
       7 -> 21         0.00372
       7 -> 24        -0.00983
       7 -> 26        -0.00659
       7 -> 30        -0.00716
       7 -> 32        -0.00199
       7 -> 34         0.00386
       7 -> 36        -0.00151
       7 -> 39        -0.00064
       7 -> 43         0.00060
       7 -> 45         0.00097
       7 -> 47         0.00140
       7 -> 50         0.00068
       7 -> 54        -0.00158
       8 -> 27         0.00080
       8 -> 38         0.00024
       8 -> 46         0.00169
       3 <-  9        -0.00200
       3 <- 13         0.00066
       3 <- 18        -0.00103
       3 <- 23         0.00059
       3 <- 28        -0.00192
       3 <- 31        -0.00026
       3 <- 37        -0.00021
       3 <- 44         0.00011
       3 <- 48        -0.00292
       3 <- 52         0.00034
       4 <-  9        -0.01246
       4 <- 13         0.00266
       4 <- 18         0.00038
       4 <- 23         0.00258
       4 <- 28         0.00139
       4 <- 37         0.00038
       4 <- 44        -0.00067
       4 <- 48         0.00033
       4 <- 52         0.00012
       5 <- 27        -0.00474
       5 <- 38        -0.00260
       5 <- 46         0.00032
       6 <-  9        -0.02799
       6 <- 18        -0.00372
       6 <- 23         0.00052
       6 <- 28        -0.00048
       6 <- 31        -0.00448
       6 <- 37         0.00198

 The electronic state is 1-A1.
 Alpha  occ. eigenvalues --  -19.17627 -10.33623  -0.90096  -0.70970  -0.49099
 Alpha  occ. eigenvalues --   -0.39706  -0.31327  -0.28796
 Alpha virt. eigenvalues --   -0.16477  -0.05271   0.00163   0.04057   0.06099
 Alpha virt. eigenvalues --    0.06828   0.11996   0.13625   0.18809   0.21126
 Alpha virt. eigenvalues --    0.23977   0.30355   0.38619   0.39971   0.50745

 Mulliken charges:
               1
     1  C   -0.087807
     2  H    0.189534
     3  H    0.189534
     4  O   -0.291260
 Sum of Mulliken charges =  -0.00000

 Dipole moment (field-independent basis, Debye):
    X=             -0.0000    Y=             -0.0000    Z=             -4.0616  Tot=              4.0616
 Quadrupole moment (field-independent basis, Debye-Ang):
   XX=            -12.9662   YY=            -11.9957   ZZ=            -10.8408
   XY=              0.0000   XZ=              0.0000   YZ=             -0.0000

 Normal termination of Gaussian 16 at Fri Sep 17 10:53:06 2021.
