 Gaussian 16, Revision C.01,
 Gaussian 16:  ES64L-G16RevC.01  3-Jul-2019

 ----------------------
 #P OPT wB97XD/6-311+G*
 ----------------------

 -------
 TitleMe
 -------
 Symbolic Z-matrix:
 Charge =  0 Multiplicity = 1

 SCF Done:  E(RwB97XD) =  -3010.27487404     A.U. after   17 cycles
 SCF Done:  E(RwB97XD) =  -3010.28053507     A.U. after   15 cycles
 SCF Done:  E(RwB97XD) =  -3010.26851234     A.U. after   17 cycles
 SCF Done:  E(RwB97XD) =  -3010.28133860     A.U. after   14 cycles
 SCF Done:  E(RwB97XD) =  -3010.28138322     A.U. after   13 cycles
 SCF Done:  E(RwB97XD) =  -3010.28138583     A.U. after   12 cycles
 SCF Done:  E(RwB97XD) =  -3010.28138618     A.U. after   11 cycles
 SCF Done:  E(RwB97XD) =  -3010.28138623     A.U. after   10 cycles
 SCF Done:  E(RwB97XD) =  -3010.28138625     A.U. after   10 cycles
 SCF Done:  E(RwB97XD) =  -3010.28138626     A.U. after   10 cycles
 Optimization completed.
    -- Stationary point found.

                         Standard orientation:
 ---------------------------------------------------------------------
 Center     Atomic      Atomic             Coordinates (Angstroms)
 Number     Number       Type             X           Y           Z
 ---------------------------------------------------------------------
      1          6           0        0.283716   -1.212312   -0.000096
      2          6           0       -1.103033   -1.213106   -0.000085
      3          6           0       -1.773899   -0.000013    0.000024
      4          6           0        0.965324   -0.000041    0.000002
      5          1           0        0.828417   -2.148243   -0.000169
      6          1           0       -1.661310   -2.140028   -0.000158
      7          7           0       -3.248115    0.000009    0.000002
      8          8           0       -3.809785    1.076884   -0.000247
      9          8           0       -3.809823   -1.076844    0.000230
     10          6           0        0.283721    1.212271    0.000106
     11          1           0        0.828504    2.148155    0.000186
     12          6           0       -1.103002    1.213104    0.000090
     13          1           0       -1.661240    2.140044    0.000123
     14         35           0        2.858352    0.000008   -0.000003
 ---------------------------------------------------------------------

 The electronic state is 1-A.
 Alpha  occ. eigenvalues -- -483.12838 -62.67952 -56.47519 -56.47129 -56.47113
 Alpha  occ. eigenvalues --  -19.29658 -19.29654 -14.69455 -10.38398 -10.37178
 Alpha  occ. eigenvalues --  -10.33861 -10.33859 -10.33540 -10.33539  -8.83852
 Alpha  occ. eigenvalues --   -6.66201  -6.64859  -6.64822  -2.76211  -2.75824
 Alpha  occ. eigenvalues --   -2.75798  -2.74720  -2.74719  -1.36446  -1.18521
 Alpha  occ. eigenvalues --   -1.02673  -0.95837  -0.90077  -0.89298  -0.80102
 Alpha  occ. eigenvalues --   -0.75665  -0.70986  -0.67715  -0.65313  -0.62829
 Alpha  occ. eigenvalues --   -0.59741  -0.59197  -0.57702  -0.55929  -0.51638
 Alpha  occ. eigenvalues --   -0.48422  -0.48115  -0.43147  -0.41562  -0.41470
 Alpha  occ. eigenvalues --   -0.40228  -0.39443  -0.37816  -0.35402
 Alpha virt. eigenvalues --   -0.04121   0.01461   0.03851   0.04511   0.04742
 Alpha virt. eigenvalues --    0.06686   0.07715   0.08844   0.08915   0.09525
 Alpha virt. eigenvalues --    0.10769   0.12148   0.12508   0.13118   0.13143

 Mulliken charges:
               1
     1  C   -0.718523
     2  C    0.217107
     3  C   -0.595162
     4  C    0.757741
     5  H    0.284624
     6  H    0.294696
     7  N   -0.126531
     8  O   -0.030071
     9  O   -0.030074
    10  C   -0.718519
    11  H    0.284625
    12  C    0.217062
    13  H    0.294695
    14  Br  -0.131670
 Sum of Mulliken charges =  -0.00000

 Dipole moment (field-independent basis, Debye):
    X=              3.2943    Y=             -0.0001    Z=              0.0000  Tot=              3.2943
 Quadrupole moment (field-independent basis, Debye-Ang):
   XX=            -89.4780   YY=            -63.8483   ZZ=            -70.7100
   XY=              0.0003   XZ=             -0.0001   YZ=              0.0019

 Normal termination of Gaussian 16 at Mon May 22 12:38:09 2023.
