 Gaussian 16, Revision A.03,
 Gaussian 16:  ES64L-G16RevA.03 25-Dec-2016

 --------------------------------------------------------------------
 #p B3LYP/6-311+G** #p TD=(singlets,nstates=30)IOp(6/8=3) IOp(9/40=4)
 --------------------------------------------------------------------

 ---------------------------------------------
 Scan Step 201, Bond Length 1.5050000000000001
 ---------------------------------------------
 Symbolic Z-matrix:
 Charge =  0 Multiplicity = 1

                         Standard orientation:
 ---------------------------------------------------------------------
 Center     Atomic      Atomic             Coordinates (Angstroms)
 Number     Number       Type             X           Y           Z
 ---------------------------------------------------------------------
      1          6           0        0.000000    0.000000   -0.678581
      2          1           0        0.000000    0.937260   -1.269931
      3          1           0       -0.000000   -0.937260   -1.269931
      4          8           0        0.000000   -0.000000    0.826419
 ---------------------------------------------------------------------

 SCF Done:  E(RB3LYP) =  -114.463464515     A.U. after   10 cycles

 Excitation energies and oscillator strengths:

 Excited State   1:      Singlet-A2     2.3672 eV  523.75 nm  f=0.0000  <S**2>=0.000
       3 -> 27         0.00145
       3 -> 38         0.00113
       3 -> 46         0.00318
       4 -> 27         0.00090
       4 -> 38        -0.00020
       4 -> 46        -0.00138
       5 ->  9         0.01082
       5 -> 13         0.00058
       5 -> 18         0.00352
       5 -> 23         0.00154
       5 -> 28         0.00313
       5 -> 31        -0.00038
       5 -> 37         0.00178
       5 -> 44         0.00039
       5 -> 52         0.00043
       6 -> 27        -0.00060
       6 -> 38        -0.00084
       6 -> 46         0.00150
       7 -> 12        -0.00079
       7 -> 15         0.00440
       7 -> 19        -0.00377
       7 -> 22        -0.00053
       7 -> 25         0.00111
       7 -> 30        -0.00138
       7 -> 33         0.00040
       7 -> 49         0.00014
       7 -> 50         0.00020
       7 -> 53         0.00046
       8 ->  9         0.70781
       8 -> 13        -0.01734
       8 -> 18         0.02190
       8 -> 23        -0.00488
       8 -> 28         0.01105
       8 -> 31         0.00051
       8 -> 37         0.00065
       8 -> 48        -0.00030
       8 -> 52         0.00193
       3 <- 27         0.00076
       3 <- 38         0.00084
       3 <- 46         0.00324
       4 <- 27         0.00151
       4 <- 38         0.00023
       4 <- 46        -0.00112
       5 <-  9        -0.00043
       5 <- 13        -0.00060
       5 <- 18        -0.00081
       5 <- 23         0.00033
       5 <- 28        -0.00057
       5 <- 31         0.00043
       5 <- 37         0.00097
       5 <- 44         0.00013
       5 <- 52         0.00012
       6 <- 38        -0.00070
       6 <- 46         0.00116
       7 <- 12         0.00020
       7 <- 15        -0.00959
       7 <- 19         0.00292
       7 <- 22         0.00722
       7 <- 25         0.00044
       7 <- 30         0.00499
       7 <- 33        -0.00069
       7 <- 35         0.00122
       7 <- 40         0.00064
       7 <- 42         0.00011
       7 <- 49        -0.00030
       7 <- 50         0.00013
       7 <- 53         0.00145
       8 <-  9        -0.04340
       8 <- 13         0.00094
       8 <- 18        -0.00605
       8 <- 23         0.00038
       8 <- 28        -0.00211
       8 <- 31        -0.00056
       8 <- 37        -0.00063
       8 <- 52         0.00052
 This state for optimization and/or second-order correction.
 Total Energy, E(TD-HF/TD-DFT) =  -114.376470170
 Copying the excited state density for this state as the 1-particle RhoCI density.

 Excited State   2:      Singlet-A1     5.9777 eV  207.41 nm  f=0.1018  <S**2>=0.000
       3 -> 10         0.00981
       3 -> 11        -0.01673
       3 -> 14        -0.01227
       3 -> 16         0.01639
       3 -> 17        -0.00388
       3 -> 20        -0.00311
       3 -> 21        -0.00264
       3 -> 24         0.00382
       3 -> 26         0.00563
       3 -> 29        -0.00058
       3 -> 32         0.00280
       3 -> 34         0.00343
       3 -> 39         0.00105
       3 -> 43         0.00044
       3 -> 45         0.00092
       3 -> 47         0.00196
       3 -> 51         0.00071
       3 -> 54         0.00027
       4 -> 10         0.01872
       4 -> 11         0.01046
       4 -> 14        -0.01098
       4 -> 16        -0.00787
       4 -> 17         0.00332
       4 -> 20         0.00725
       4 -> 21         0.00034
       4 -> 24        -0.00600
       4 -> 26         0.00570
       4 -> 29         0.00116
       4 -> 32        -0.00123
       4 -> 34        -0.00239
       4 -> 39        -0.00018
       4 -> 41         0.00014
       4 -> 43        -0.00030
       4 -> 45         0.00030
       4 -> 47        -0.00161
       4 -> 51        -0.00026
       5 -> 12         0.02230
       5 -> 15         0.01784
       5 -> 19         0.00164
       5 -> 22         0.00625
       5 -> 25         0.01033
       5 -> 30        -0.00112
       5 -> 33        -0.00331
       5 -> 35         0.00253
       5 -> 40         0.00160
       5 -> 42         0.00063
       5 -> 49         0.00057
       5 -> 50        -0.00058
       5 -> 53        -0.00021
       6 -> 10        -0.07323
       6 -> 11         0.10143
       6 -> 14         0.07143
       6 -> 16        -0.11322
       6 -> 17        -0.01997
       6 -> 20        -0.01957
       6 -> 21         0.01964
       6 -> 24        -0.01827
       6 -> 26        -0.00924
       6 -> 29        -0.00934
       6 -> 32         0.00014
       6 -> 34         0.00195
       6 -> 36        -0.00137
       6 -> 39         0.00056
       6 -> 41        -0.00062
       6 -> 43         0.00068
       6 -> 45        -0.00032
       6 -> 47         0.00166
       6 -> 51         0.00084
       6 -> 54        -0.00048
       7 ->  9         0.68605
       7 -> 13         0.00805
       7 -> 18        -0.02264
       7 -> 23         0.00242
       7 -> 28        -0.00302
       7 -> 31        -0.00262
       7 -> 37         0.00055
       7 -> 44        -0.00104
       7 -> 48         0.00054
       7 -> 52         0.00103
       8 -> 12        -0.00465
       8 -> 15         0.09296
       8 -> 19        -0.02627
       8 -> 22        -0.03528
       8 -> 25         0.00149
       8 -> 30        -0.01384
       8 -> 33         0.00346
       8 -> 35        -0.00436
       8 -> 40        -0.00196
       8 -> 42        -0.00034
       8 -> 49         0.00068
       8 -> 50         0.00029
       8 -> 53        -0.00084
       3 <- 10         0.00597
       3 <- 11        -0.01087
       3 <- 14        -0.00872
       3 <- 16         0.01103
       3 <- 17        -0.00194
       3 <- 20        -0.00201
       3 <- 21        -0.00261
       3 <- 24         0.00254
       3 <- 26         0.00353
       3 <- 29        -0.00029
       3 <- 32         0.00257
       3 <- 34         0.00228
       3 <- 39         0.00086
       3 <- 41         0.00012
       3 <- 43         0.00051
       3 <- 45         0.00078
       3 <- 47         0.00217
       3 <- 51         0.00068
       3 <- 54         0.00035
       4 <- 10         0.00882
       4 <- 11         0.00600
       4 <- 14        -0.00523
       4 <- 16        -0.00464
       4 <- 17         0.00152
       4 <- 20         0.00526
       4 <- 21         0.00030
       4 <- 24        -0.00385
       4 <- 26         0.00426
       4 <- 29         0.00027
       4 <- 32        -0.00159
       4 <- 34        -0.00208
       4 <- 36         0.00016
       4 <- 39        -0.00023
       4 <- 43        -0.00030
       4 <- 45         0.00060
       4 <- 47        -0.00126
       5 <- 12         0.00845
       5 <- 15         0.00802
       5 <- 19         0.00106
       5 <- 22         0.00356
       5 <- 25         0.00650
       5 <- 30        -0.00061
       5 <- 33        -0.00247
       5 <- 35         0.00201
       5 <- 40         0.00136
       5 <- 42         0.00050
       5 <- 49         0.00049
       5 <- 50        -0.00053
       5 <- 53        -0.00018
       6 <- 10        -0.01877
       6 <- 11         0.02788
       6 <- 14         0.02516
       6 <- 16        -0.04395
       6 <- 17        -0.00856
       6 <- 20        -0.01040
       6 <- 21         0.01048
       6 <- 24        -0.01053
       6 <- 26        -0.00543
       6 <- 29        -0.00613
       6 <- 32         0.00061
       6 <- 34         0.00217
       6 <- 36        -0.00108
       6 <- 39         0.00069
       6 <- 41        -0.00042
       6 <- 43         0.00059
       6 <- 45        -0.00048
       6 <- 47         0.00118
       6 <- 51         0.00065
       6 <- 54        -0.00038
       7 <-  9        -0.11604
       7 <- 13         0.00957
       7 <- 18        -0.01458
       7 <- 23         0.00510
       7 <- 28        -0.00491
       7 <- 31        -0.00102
       7 <- 44        -0.00054
       7 <- 52         0.00088
       8 <- 12        -0.00075
       8 <- 15         0.02652
       8 <- 19        -0.00939
       8 <- 22        -0.01708
       8 <- 25         0.00047
       8 <- 30        -0.00940
       8 <- 33         0.00247
       8 <- 35        -0.00321
       8 <- 40        -0.00155
       8 <- 42        -0.00027
       8 <- 49         0.00047
       8 <- 50         0.00023
       8 <- 53        -0.00075

 Excited State   3:      Singlet-B1     6.1392 eV  201.95 nm  f=0.0015  <S**2>=0.000
       3 ->  9        -0.03121
       3 -> 13         0.00238
       3 -> 18        -0.00536
       3 -> 23         0.00228
       3 -> 28        -0.00129
       3 -> 31        -0.00050
       3 -> 44         0.00032
       3 -> 48         0.00080
       3 -> 52         0.00104
       4 ->  9         0.01480
       4 -> 13        -0.00271
       4 -> 18         0.00045
       4 -> 23        -0.00247
       4 -> 28         0.00020
       4 -> 31        -0.00174
       4 -> 37        -0.00045
       4 -> 44         0.00010
       4 -> 48        -0.00129
       4 -> 52        -0.00072
       5 -> 27        -0.00060
       5 -> 38         0.00199
       5 -> 46         0.00133
       6 ->  9         0.70600
       6 -> 13        -0.02276
       6 -> 18         0.01834
       6 -> 23        -0.01144
       6 -> 28         0.00505
       6 -> 31         0.00368
       6 -> 37        -0.00238
       6 -> 44        -0.00318
       6 -> 48         0.00456
       6 -> 52         0.00162
       7 -> 10        -0.01104
       7 -> 11         0.01389
       7 -> 14         0.00877
       7 -> 16        -0.00786
       7 -> 17        -0.00984
       7 -> 20         0.00240
       7 -> 21        -0.00065
       7 -> 26        -0.00093
       7 -> 29        -0.00423
       7 -> 32        -0.00094
       7 -> 34         0.00011
       7 -> 36         0.00183
       7 -> 39         0.00012
       7 -> 41        -0.00090
       7 -> 43         0.00066
       7 -> 45         0.00221
       7 -> 47         0.00413
       7 -> 51         0.00116
       7 -> 54         0.00052
       8 -> 27         0.00097
       8 -> 38         0.00028
       8 -> 46         0.00589
       3 <-  9        -0.01027
       3 <- 13        -0.00033
       3 <- 18        -0.00311
       3 <- 23        -0.00036
       3 <- 28        -0.00086
       3 <- 31        -0.00059
       3 <- 44        -0.00026
       3 <- 48         0.00101
       3 <- 52         0.00082
       4 <-  9         0.00656
       4 <- 18         0.00219
       4 <- 23        -0.00043
       4 <- 28         0.00190
       4 <- 31        -0.00126
       4 <- 37        -0.00015
       4 <- 44         0.00015
       4 <- 48        -0.00112
       4 <- 52        -0.00040
       5 <- 27        -0.00104
       5 <- 38         0.00157
       5 <- 46         0.00118
       6 <-  9        -0.02331
       6 <- 13         0.00182
       6 <- 18        -0.00307
       6 <- 23        -0.00022
       6 <- 28        -0.00311
       6 <- 31         0.00172
       6 <- 37        -0.00215
       6 <- 44        -0.00186
       6 <- 48         0.00407
       6 <- 52         0.00059
       7 <- 10         0.00649
       7 <- 11        -0.00941
       7 <- 14        -0.00841
       7 <- 16         0.01682
       7 <- 17         0.00057
       7 <- 20         0.00577
       7 <- 21        -0.00513
       7 <- 24         0.00484
       7 <- 26         0.00209
       7 <- 29         0.00076
       7 <- 32        -0.00063
       7 <- 34        -0.00046
       7 <- 36         0.00288
       7 <- 39         0.00039
       7 <- 41        -0.00051
       7 <- 43         0.00056
       7 <- 45         0.00215
       7 <- 47         0.00367
       7 <- 51         0.00093
       7 <- 54         0.00109
       8 <- 27         0.00133
       8 <- 38         0.00044
       8 <- 46         0.00540

 Excited State   4:      Singlet-B2     6.7692 eV  183.16 nm  f=0.0174  <S**2>=0.000
       3 -> 12         0.00183
       3 -> 15        -0.00084
       3 -> 19         0.00312
       3 -> 22        -0.00028
       3 -> 25         0.00044
       3 -> 30         0.00197
       3 -> 33         0.00039
       3 -> 35        -0.00155
       3 -> 40        -0.00115
       3 -> 42        -0.00013
       3 -> 49         0.00142
       3 -> 50        -0.00018
       3 -> 53        -0.00021
       4 -> 12        -0.00089
       4 -> 15         0.00280
       4 -> 19         0.00093
       4 -> 22        -0.00349
       4 -> 25         0.00286
       4 -> 30        -0.00074
       4 -> 33         0.00030
       4 -> 35        -0.00026
       4 -> 40         0.00047
       4 -> 49        -0.00019
       5 -> 10        -0.00381
       5 -> 11        -0.00244
       5 -> 14        -0.01363
       5 -> 16         0.00332
       5 -> 17        -0.00163
       5 -> 20        -0.00077
       5 -> 21        -0.00646
       5 -> 24        -0.00174
       5 -> 26         0.00208
       5 -> 29         0.00160
       5 -> 34         0.00124
       5 -> 36         0.00059
       5 -> 39         0.00052
       5 -> 41        -0.00080
       5 -> 43        -0.00011
       5 -> 45         0.00026
       5 -> 47         0.00054
       5 -> 51        -0.00034
       5 -> 54         0.00019
       6 -> 12        -0.00332
       6 -> 15         0.00103
       6 -> 19        -0.00144
       6 -> 22        -0.00081
       6 -> 25         0.00071
       6 -> 30         0.00024
       6 -> 33        -0.00048
       6 -> 35         0.00186
       6 -> 40         0.00121
       6 -> 49        -0.00077
       6 -> 53         0.00019
       7 -> 27         0.00032
       7 -> 38        -0.00100
       7 -> 46        -0.00215
       8 -> 10         0.68161
       8 -> 11        -0.16083
       8 -> 14        -0.07242
       8 -> 16         0.06328
       8 -> 17         0.00421
       8 -> 20         0.00919
       8 -> 21        -0.00191
       8 -> 24         0.00323
       8 -> 26         0.00497
       8 -> 29         0.00578
       8 -> 32         0.00140
       8 -> 34         0.00069
       8 -> 36         0.00051
       8 -> 39         0.00036
       8 -> 41        -0.00049
       8 -> 43         0.00067
       8 -> 45         0.00184
       8 -> 47         0.00191
       8 -> 51        -0.00139
       8 -> 54         0.00081
       3 <- 12         0.00052
       3 <- 19         0.00142
       3 <- 22        -0.00076
       3 <- 25         0.00015
       3 <- 30         0.00074
       3 <- 33         0.00035
       3 <- 35        -0.00128
       3 <- 40        -0.00105
       3 <- 42        -0.00011
       3 <- 49         0.00148
       3 <- 50        -0.00014
       3 <- 53        -0.00052
       4 <- 12         0.00061
       4 <- 15         0.00240
       4 <- 19         0.00096
       4 <- 22        -0.00263
       4 <- 25         0.00179
       4 <- 30        -0.00059
       4 <- 33         0.00040
       4 <- 35        -0.00044
       4 <- 40         0.00012
       4 <- 42        -0.00019
       4 <- 49        -0.00015
       5 <- 10         0.00179
       5 <- 11         0.00097
       5 <- 14        -0.00405
       5 <- 16        -0.00226
       5 <- 17        -0.00027
       5 <- 21        -0.00174
       5 <- 24        -0.00278
       5 <- 26         0.00099
       5 <- 29         0.00039
       5 <- 32        -0.00064
       5 <- 34         0.00059
       5 <- 36         0.00011
       5 <- 39         0.00013
       5 <- 41        -0.00072
       5 <- 43        -0.00020
       5 <- 45         0.00045
       5 <- 47         0.00029
       5 <- 51        -0.00016
       6 <- 12        -0.00028
       6 <- 15        -0.00287
       6 <- 19         0.00143
       6 <- 22         0.00186
       6 <- 25         0.00026
       6 <- 30         0.00254
       6 <- 33        -0.00063
       6 <- 35         0.00182
       6 <- 40         0.00115
       6 <- 42         0.00012
       6 <- 49        -0.00080
       6 <- 53         0.00058
       7 <- 27         0.00037
       7 <- 38        -0.00076
       7 <- 46        -0.00173
       8 <- 10        -0.00426
       8 <- 11         0.00631
       8 <- 14         0.00705
       8 <- 16        -0.00542
       8 <- 17        -0.00027
       8 <- 20         0.00086
       8 <- 21         0.00204
       8 <- 24        -0.00014
       8 <- 26        -0.00170
       8 <- 29         0.00047
       8 <- 32        -0.00081
       8 <- 34        -0.00080
       8 <- 36        -0.00034
       8 <- 39        -0.00079
       8 <- 41        -0.00047
       8 <- 43         0.00011
       8 <- 45         0.00201
       8 <- 47         0.00110
       8 <- 51        -0.00076
       8 <- 54         0.00019

 Excited State   5:      Singlet-B2     7.2272 eV  171.55 nm  f=0.0120  <S**2>=0.000
       3 -> 12         0.00087
       3 -> 15         0.00200
       3 -> 19        -0.00201
       3 -> 22        -0.00045
       3 -> 25         0.00085
       3 -> 30        -0.00342
       3 -> 35         0.00113
       3 -> 40         0.00093
       3 -> 49        -0.00125
       3 -> 50         0.00012
       4 -> 12        -0.00161
       4 -> 15        -0.00045
       4 -> 19         0.00050
       4 -> 22         0.00044
       4 -> 25        -0.00062
       4 -> 30         0.00180
       4 -> 33        -0.00040
       4 -> 35         0.00061
       4 -> 50        -0.00013
       5 -> 10        -0.00676
       5 -> 11         0.00160
       5 -> 14         0.00638
       5 -> 16         0.00512
       5 -> 17         0.00256
       5 -> 20         0.00299
       5 -> 21         0.00270
       5 -> 24         0.00026
       5 -> 26        -0.00130
       5 -> 29        -0.00114
       5 -> 32        -0.00151
       5 -> 34        -0.00022
       5 -> 36        -0.00069
       5 -> 39        -0.00087
       5 -> 41         0.00023
       5 -> 43        -0.00037
       5 -> 45        -0.00063
       5 -> 47        -0.00060
       5 -> 51         0.00047
       6 -> 12         0.00051
       6 -> 19         0.00112
       6 -> 22        -0.00107
       6 -> 30        -0.00120
       6 -> 33         0.00024
       6 -> 35        -0.00105
       6 -> 40        -0.00128
       6 -> 42        -0.00025
       6 -> 49         0.00174
       6 -> 50        -0.00014
       6 -> 53        -0.00018
       7 -> 27        -0.00077
       7 -> 38         0.00025
       7 -> 46         0.00283
       8 -> 10         0.17045
       8 -> 11         0.68185
       8 -> 14         0.03171
       8 -> 16        -0.06859
       8 -> 17        -0.00652
       8 -> 20         0.01450
       8 -> 21         0.00392
       8 -> 24        -0.00454
       8 -> 26        -0.00030
       8 -> 29        -0.00510
       8 -> 32        -0.00064
       8 -> 34        -0.00088
       8 -> 36        -0.00103
       8 -> 39         0.00011
       8 -> 41         0.00034
       8 -> 45        -0.00287
       8 -> 47        -0.00230

 The electronic state is 1-A1.
 Alpha  occ. eigenvalues --  -19.16830 -10.31818  -0.95296  -0.68650  -0.48825
 Alpha  occ. eigenvalues --   -0.42737  -0.34463  -0.29009
 Alpha virt. eigenvalues --   -0.13018  -0.00358   0.02345   0.04118   0.06158
 Alpha virt. eigenvalues --    0.10825   0.15084   0.15197   0.18956   0.21575
 Alpha virt. eigenvalues --    0.23892   0.30067   0.39751   0.42081   0.50978

 Mulliken charges:
               1
     1  C   -0.042817
     2  H    0.169027
     3  H    0.169027
     4  O   -0.295237
 Sum of Mulliken charges =   0.00000

 Dipole moment (field-independent basis, Debye):
    X=             -0.0000    Y=             -0.0000    Z=             -3.5336  Tot=              3.5336
 Quadrupole moment (field-independent basis, Debye-Ang):
   XX=            -12.5453   YY=            -11.8242   ZZ=            -11.5927
   XY=              0.0000   XZ=              0.0000   YZ=             -0.0000

 Normal termination of Gaussian 16 at Fri Sep 17 10:52:55 2021.
