 Gaussian 16, Revision C.01,
 Gaussian 16:  ES64L-G16RevC.01  3-Jul-2019

 ----------------------------------------
 #P wB97XD/6-311+G* NoSymm #P Field=Z-126
 ----------------------------------------

 -------
 TitleMe
 -------
 Symbolic Z-matrix:
 Charge =  1 Multiplicity = 1

                          Input orientation:
 ---------------------------------------------------------------------
 Center     Atomic      Atomic             Coordinates (Angstroms)
 Number     Number       Type             X           Y           Z
 ---------------------------------------------------------------------
      1          6           0        0.519300    1.233000   -0.031900
      2          6           0        1.944500    1.269200   -0.036700
      3          6           0        2.620400    0.092800   -0.025000
      4          6           0       -0.196000    0.030100    0.001000
      5          1           0       -0.020700    2.174200   -0.043400
      6          1           0        2.482800    2.208900   -0.036100
      7          1           0       -1.277700    0.039900    0.011700
      8          7           0        4.092100    0.095900    0.036600
      9          8           0        4.639300   -1.021700    0.144600
     10          8           0        4.664900    1.198400   -0.023300
     11          6           0        0.494300   -1.167100    0.021000
     12          1           0       -0.032500   -2.114900    0.054500
     13          6           0        1.962900   -1.216500   -0.021100
     14          1           0        2.443600   -1.963100    0.615100
     15         35           0        2.173000   -1.949100   -1.906200
 ---------------------------------------------------------------------

 SCF Done:  E(RwB97XD) =  -3010.53378082     A.U. after   19 cycles

 Alpha  occ. eigenvalues -- -483.33222 -62.88272 -56.67930 -56.67409 -56.67403
 Alpha  occ. eigenvalues --  -19.46541 -19.46500 -14.85979 -10.59896 -10.59180
 Alpha  occ. eigenvalues --  -10.58007 -10.57797 -10.54044 -10.53370  -9.04097
 Alpha  occ. eigenvalues --   -6.86680  -6.84959  -6.84940  -2.96607  -2.96149
 Alpha  occ. eigenvalues --   -2.96134  -2.94755  -2.94755  -1.50214  -1.33164
 Alpha  occ. eigenvalues --   -1.23246  -1.13901  -1.13183  -1.06224  -1.01090
 Alpha  occ. eigenvalues --   -0.96105  -0.91232  -0.85407  -0.81419  -0.80723
 Alpha  occ. eigenvalues --   -0.80479  -0.78519  -0.76598  -0.76238  -0.73068
 Alpha  occ. eigenvalues --   -0.69236  -0.68258  -0.64486  -0.61208  -0.58735
 Alpha  occ. eigenvalues --   -0.57718  -0.57234  -0.56256  -0.55801
 Alpha virt. eigenvalues --   -0.31075  -0.20890  -0.17386  -0.13647  -0.12253
 Alpha virt. eigenvalues --   -0.09179  -0.08117  -0.07176  -0.06140  -0.04889
 Alpha virt. eigenvalues --   -0.04303  -0.03225  -0.02199  -0.01514  -0.01242

 Mulliken charges:
               1
     1  C   -0.076965
     2  C    0.131437
     3  C   -0.091693
     4  C   -0.345937
     5  H    0.348932
     6  H    0.353911
     7  H    0.335764
     8  N   -0.215754
     9  O    0.090119
    10  O    0.072614
    11  C   -0.166356
    12  H    0.361834
    13  C   -0.308309
    14  H    0.451788
    15  Br   0.058614
 Sum of Mulliken charges =   1.00000

 Dipole moment (field-independent basis, Debye):
    X=              2.6107    Y=             -0.4105    Z=              1.5080  Tot=              3.0428
 Quadrupole moment (field-independent basis, Debye-Ang):
   XX=            -67.8085   YY=            -51.9465   ZZ=            -65.2062
   XY=             -1.9841   XZ=              2.0952   YZ=              0.2472

 Normal termination of Gaussian 16 at Thu May  2 14:18:59 2024.
