 Gaussian 16, Revision A.03,
 Gaussian 16:  ES64L-G16RevA.03 25-Dec-2016

 --------------------------------------------------------------------
 #p B3LYP/6-311+G** #p TD=(singlets,nstates=30)IOp(6/8=3) IOp(9/40=4)
 --------------------------------------------------------------------

 --------------------------------------------
 Scan Step 64, Bond Length 0.8200000000000001
 --------------------------------------------
 Symbolic Z-matrix:
 Charge =  0 Multiplicity = 1

                         Standard orientation:
 ---------------------------------------------------------------------
 Center     Atomic      Atomic             Coordinates (Angstroms)
 Number     Number       Type             X           Y           Z
 ---------------------------------------------------------------------
      1          6           0        0.000000    0.000000   -0.336081
      2          1           0        0.000000    0.937260   -0.927431
      3          1           0       -0.000000   -0.937260   -0.927431
      4          8           0        0.000000   -0.000000    0.483919
 ---------------------------------------------------------------------

 SCF Done:  E(RB3LYP) =  -113.943265280     A.U. after    9 cycles

 Excitation energies and oscillator strengths:

 Excited State   1:      Singlet-A2     5.5630 eV  222.87 nm  f=0.0000  <S**2>=0.000
       3 -> 27         0.00248
       3 -> 35         0.00183
       3 -> 46         0.00086
       4 -> 10         0.00380
       4 -> 13         0.00633
       4 -> 17         0.00554
       4 -> 22        -0.00322
       4 -> 28         0.00272
       4 -> 33         0.00105
       4 -> 37         0.00278
       4 -> 43         0.00038
       4 -> 52         0.00055
       5 -> 11        -0.00048
       5 -> 16        -0.00041
       5 -> 18        -0.00039
       5 -> 23         0.00151
       5 -> 24         0.00012
       5 -> 29        -0.00016
       5 -> 32         0.00020
       5 -> 36         0.00047
       5 -> 42         0.00048
       5 -> 47         0.00057
       5 -> 50        -0.00019
       5 -> 53         0.00020
       6 -> 27         0.00365
       6 -> 35        -0.00062
       6 -> 46        -0.00047
       7 -> 27         0.00087
       7 -> 35        -0.00010
       7 -> 46         0.00086
       8 -> 10         0.69998
       8 -> 13         0.09530
       8 -> 17         0.03073
       8 -> 22        -0.00305
       8 -> 28         0.00398
       8 -> 33         0.00327
       8 -> 37        -0.00239
       8 -> 52         0.00069
       3 <- 27         0.00190
       3 <- 35         0.00158
       3 <- 46         0.00088
       4 <- 10         0.00021
       4 <- 13         0.00111
       4 <- 17         0.00038
       4 <- 28         0.00010
       4 <- 33        -0.00098
       4 <- 37         0.00133
       4 <- 43         0.00039
       4 <- 52         0.00013
       5 <- 11        -0.00085
       5 <- 16         0.00107
       5 <- 18        -0.00263
       5 <- 23         0.00325
       5 <- 24        -0.00170
       5 <- 29         0.00152
       5 <- 32        -0.00062
       5 <- 36         0.00146
       5 <- 42         0.00069
       5 <- 47         0.00047
       5 <- 53         0.00053
       6 <- 27         0.00389
       6 <- 35        -0.00058
       6 <- 46        -0.00048
       7 <- 27         0.00084
       7 <- 35        -0.00017
       7 <- 46         0.00072
       8 <- 10        -0.00418
       8 <- 13        -0.00833
       8 <- 17        -0.00465
       8 <- 22         0.00033
       8 <- 28        -0.00038
       8 <- 33         0.00298
       8 <- 37        -0.00208
       8 <- 52         0.00022
 This state for optimization and/or second-order correction.
 Total Energy, E(TD-HF/TD-DFT) =  -113.738829286
 Copying the excited state density for this state as the 1-particle RhoCI density.

 Excited State   2:      Singlet-B2     5.5630 eV  222.87 nm  f=0.0982  <S**2>=0.000
       3 -> 11         0.00082
       3 -> 16         0.00037
       3 -> 18         0.00090
       3 -> 23         0.00011
       3 -> 24         0.00107
       3 -> 29        -0.00021
       3 -> 42         0.00017
       3 -> 50        -0.00015
       3 -> 53         0.00011
       4 ->  9         0.00241
       4 -> 12         0.00544
       4 -> 14         0.00469
       4 -> 15         0.00164
       4 -> 19         0.00362
       4 -> 20         0.00154
       4 -> 21         0.00239
       4 -> 25         0.00141
       4 -> 26        -0.00095
       4 -> 30        -0.00178
       4 -> 31         0.00075
       4 -> 34         0.00046
       4 -> 38        -0.00081
       4 -> 41         0.00050
       4 -> 44         0.00041
       4 -> 45        -0.00063
       4 -> 48         0.00036
       5 -> 27         0.00127
       5 -> 35         0.00043
       5 -> 46         0.00087
       6 -> 11        -0.00690
       6 -> 16         0.00148
       6 -> 18         0.00072
       6 -> 23        -0.00204
       6 -> 24         0.00416
       6 -> 29        -0.00078
       6 -> 32        -0.00106
       6 -> 36         0.00082
       6 -> 40        -0.00011
       6 -> 42         0.00042
       7 -> 11         0.00310
       7 -> 16         0.00384
       7 -> 18         0.00321
       7 -> 23        -0.00166
       7 -> 24         0.00251
       7 -> 29         0.00026
       7 -> 32         0.00011
       7 -> 36        -0.00032
       7 -> 42        -0.00037
       7 -> 47         0.00044
       7 -> 50         0.00047
       7 -> 53        -0.00011
       8 ->  9         0.70614
       8 -> 12         0.00530
       8 -> 14        -0.02842
       8 -> 15         0.01076
       8 -> 19         0.02095
       8 -> 20        -0.00697
       8 -> 21        -0.00869
       8 -> 25         0.00053
       8 -> 26        -0.00032
       8 -> 30         0.00031
       8 -> 31         0.00315
       8 -> 34         0.00138
       8 -> 38         0.00099
       8 -> 39        -0.00045
       8 -> 41        -0.00056
       8 -> 45        -0.00103
       8 -> 48         0.00036
       8 -> 54        -0.00013
       3 <- 11         0.00029
       3 <- 18         0.00057
       3 <- 24         0.00080
       3 <- 29        -0.00019
       3 <- 42         0.00015
       3 <- 53         0.00012
       4 <-  9         0.00184
       4 <- 12        -0.00018
       4 <- 14         0.00376
       4 <- 15         0.00185
       4 <- 19         0.00090
       4 <- 20         0.00066
       4 <- 21         0.00159
       4 <- 25         0.00159
       4 <- 26        -0.00125
       4 <- 30        -0.00065
       4 <- 31         0.00013
       4 <- 34         0.00024
       4 <- 38        -0.00051
       4 <- 39         0.00016
       4 <- 41         0.00046
       4 <- 44         0.00029
       4 <- 45        -0.00057
       4 <- 48         0.00030
       5 <- 27         0.00101
       5 <- 35         0.00034
       5 <- 46         0.00074
       6 <- 11        -0.00043
       6 <- 16         0.00157
       6 <- 18         0.00194
       6 <- 23        -0.00112
       6 <- 24         0.00324
       6 <- 29        -0.00063
       6 <- 32        -0.00082
       6 <- 36         0.00064
       6 <- 40        -0.00015
       6 <- 42         0.00021
       7 <- 11         0.00077
       7 <- 16         0.00231
       7 <- 18         0.00093
       7 <- 23        -0.00067
       7 <- 24         0.00119
       7 <- 29         0.00087
       7 <- 42        -0.00031
       7 <- 47         0.00042
       7 <- 50         0.00054
       8 <-  9        -0.00533
       8 <- 12         0.00293
       8 <- 14        -0.01495
       8 <- 15        -0.00323
       8 <- 19        -0.00129
       8 <- 20         0.00013
       8 <- 21        -0.00451
       8 <- 25        -0.00315
       8 <- 26        -0.00061
       8 <- 30         0.00050
       8 <- 31         0.00179
       8 <- 34         0.00151
       8 <- 38         0.00096
       8 <- 39        -0.00037
       8 <- 41        -0.00040
       8 <- 44        -0.00013
       8 <- 45        -0.00079
       8 <- 48         0.00031

 Excited State   3:      Singlet-B2     6.3757 eV  194.46 nm  f=0.0252  <S**2>=0.000
       3 -> 11         0.00011
       3 -> 16        -0.00059
       3 -> 18         0.00015
       3 -> 23        -0.00021
       3 -> 24        -0.00044
       3 -> 29        -0.00077
       3 -> 32        -0.00014
       3 -> 36         0.00027
       3 -> 42         0.00028
       3 -> 47        -0.00018
       3 -> 50        -0.00018
       3 -> 53         0.00012
       4 ->  9         0.00393
       4 -> 12        -0.00021
       4 -> 14        -0.00227
       4 -> 15        -0.00390
       4 -> 19         0.00267
       4 -> 20        -0.00017
       4 -> 21        -0.00143
       4 -> 25        -0.00085
       4 -> 26        -0.00108
       4 -> 30         0.00085
       4 -> 31         0.00219
       4 -> 34         0.00029
       4 -> 39         0.00087
       4 -> 41         0.00053
       4 -> 45        -0.00062
       4 -> 48         0.00034
       4 -> 51         0.00017
       5 -> 27         0.00093
       5 -> 35         0.00134
       5 -> 46         0.00094
       6 -> 11        -0.00214
       6 -> 16        -0.00492
       6 -> 18        -0.00065
       6 -> 23         0.00111
       6 -> 24        -0.00375
       6 -> 29         0.00141
       6 -> 32        -0.00055
       6 -> 40         0.00029
       7 -> 11         0.00283
       7 -> 16         0.00075
       7 -> 18         0.00233
       7 -> 23        -0.00121
       7 -> 24         0.00082
       7 -> 29         0.00014
       7 -> 32         0.00022
       7 -> 36        -0.00108
       7 -> 40         0.00029
       7 -> 42        -0.00055
       7 -> 47         0.00066
       7 -> 50         0.00052
       7 -> 53        -0.00018
       8 ->  9        -0.00533
       8 -> 12         0.70600
       8 -> 14         0.02077
       8 -> 15         0.02514
       8 -> 19         0.01460
       8 -> 20         0.01555
       8 -> 21         0.00378
       8 -> 25        -0.00051
       8 -> 26         0.00088
       8 -> 30        -0.00185
       8 -> 31        -0.00071
       8 -> 34        -0.00034
       8 -> 39         0.00104
       8 -> 41         0.00108
       8 -> 45        -0.00068
       8 -> 48         0.00045
       8 -> 54        -0.00016
       3 <- 11        -0.00018
       3 <- 16        -0.00058
       3 <- 18        -0.00010
       3 <- 24        -0.00049
       3 <- 29        -0.00052
       3 <- 32        -0.00016
       3 <- 36         0.00029
       3 <- 42         0.00024
       3 <- 47        -0.00014
       3 <- 53         0.00021
       4 <-  9        -0.00135
       4 <- 14        -0.00168
       4 <- 15        -0.00064
       4 <- 19        -0.00064
       4 <- 20         0.00037
       4 <- 21        -0.00101
       4 <- 25        -0.00093
       4 <- 26        -0.00093
       4 <- 30         0.00093
       4 <- 31         0.00095
       4 <- 34         0.00082
       4 <- 39         0.00066
       4 <- 41         0.00053
       4 <- 45        -0.00063
       4 <- 48         0.00022
       4 <- 51         0.00016
       5 <- 27         0.00048
       5 <- 35         0.00112
       5 <- 46         0.00081
       6 <- 11        -0.00013
       6 <- 16        -0.00107
       6 <- 18        -0.00098
       6 <- 23         0.00118
       6 <- 24        -0.00203
       6 <- 29         0.00069
       6 <- 32        -0.00060
       6 <- 36        -0.00029
       6 <- 40         0.00029
       6 <- 50        -0.00015
       7 <- 11         0.00037
       7 <- 16         0.00052
       7 <- 18         0.00021
       7 <- 23        -0.00025
       7 <- 24         0.00020
       7 <- 29         0.00047
       7 <- 36        -0.00072
       7 <- 40         0.00023
       7 <- 42        -0.00039
       7 <- 47         0.00058
       7 <- 50         0.00052
       8 <-  9         0.00271
       8 <- 12         0.00139
       8 <- 14         0.00791
       8 <- 15         0.00225
       8 <- 19        -0.00162
       8 <- 20        -0.00232
       8 <- 21         0.00296
       8 <- 25         0.00055
       8 <- 26        -0.00056
       8 <- 30        -0.00142
       8 <- 31        -0.00111
       8 <- 38         0.00026
       8 <- 39         0.00079
       8 <- 41         0.00092
       8 <- 45        -0.00057
       8 <- 48         0.00027

 Excited State   4:      Singlet-A1     6.5166 eV  190.26 nm  f=0.0322  <S**2>=0.000
       3 ->  9         0.00125
       3 -> 12         0.00071
       3 -> 15         0.00062
       3 -> 19         0.00135
       3 -> 20        -0.00016
       3 -> 21        -0.00045
       3 -> 25         0.00034
       3 -> 30        -0.00101
       3 -> 31        -0.00014
       3 -> 34        -0.00025
       3 -> 38        -0.00032
       3 -> 39        -0.00029
       3 -> 48        -0.00011
       3 -> 51        -0.00025
       3 -> 54         0.00019
       4 -> 11         0.00713
       4 -> 16         0.00811
       4 -> 18         0.00552
       4 -> 23         0.00136
       4 -> 24         0.00377
       4 -> 29         0.00072
       4 -> 32        -0.00015
       4 -> 36         0.00099
       4 -> 42        -0.00026
       4 -> 50        -0.00033
       4 -> 53        -0.00011
       5 -> 10         0.00612
       5 -> 13        -0.00269
       5 -> 17         0.00487
       5 -> 22         0.00369
       5 -> 28         0.00091
       5 -> 33         0.00092
       5 -> 37         0.00055
       5 -> 43         0.00038
       5 -> 49        -0.00035
       6 ->  9         0.00612
       6 -> 12        -0.01096
       6 -> 14         0.00609
       6 -> 15         0.00309
       6 -> 19         0.00179
       6 -> 20        -0.00688
       6 -> 21         0.00135
       6 -> 25         0.00673
       6 -> 26        -0.00107
       6 -> 30         0.00093
       6 -> 31        -0.00097
       6 -> 34        -0.00122
       6 -> 38        -0.00052
       6 -> 39         0.00108
       6 -> 44         0.00030
       6 -> 45        -0.00025
       6 -> 48        -0.00034
       7 ->  9         0.01256
       7 -> 12         0.00601
       7 -> 14         0.00188
       7 -> 15        -0.00111
       7 -> 19         0.00860
       7 -> 20        -0.00164
       7 -> 21         0.00035
       7 -> 25         0.00156
       7 -> 26         0.00054
       7 -> 30        -0.00039
       7 -> 31         0.00081
       7 -> 34        -0.00096
       7 -> 38        -0.00013
       7 -> 39         0.00021
       7 -> 48        -0.00022
       7 -> 51         0.00035
       8 -> 11         0.70531
       8 -> 16         0.04481
       8 -> 18        -0.00959
       8 -> 23         0.00216
       8 -> 24         0.00227
       8 -> 29         0.00386
       8 -> 32         0.00163
       8 -> 36        -0.00274
       8 -> 40         0.00019
       8 -> 42         0.00158
       8 -> 47        -0.00055
       3 <-  9         0.00057
       3 <- 12         0.00030
       3 <- 15         0.00033
       3 <- 19         0.00079
       3 <- 21        -0.00022
       3 <- 25         0.00034
       3 <- 26         0.00011
       3 <- 30        -0.00062
       3 <- 31        -0.00013
       3 <- 34        -0.00022
       3 <- 38        -0.00023
       3 <- 39        -0.00025
       3 <- 41        -0.00011
       3 <- 45         0.00011
       3 <- 48        -0.00014
       3 <- 51        -0.00022
       3 <- 54         0.00017
       4 <- 11         0.00257
       4 <- 16         0.00279
       4 <- 18         0.00290
       4 <- 23         0.00114
       4 <- 24         0.00202
       4 <- 29         0.00030
       4 <- 32        -0.00026
       4 <- 36         0.00085
       4 <- 42        -0.00023
       4 <- 50        -0.00028
       5 <- 10         0.00259
       5 <- 13        -0.00121
       5 <- 17         0.00247
       5 <- 22         0.00232
       5 <- 28         0.00060
       5 <- 33         0.00072
       5 <- 37         0.00045
       5 <- 43         0.00032
       5 <- 49        -0.00031
       6 <-  9         0.00628
       6 <- 12        -0.00432
       6 <- 14         0.00465
       6 <- 15         0.00272
       6 <- 19         0.00120
       6 <- 20        -0.00387
       6 <- 25         0.00423
       6 <- 26        -0.00052
       6 <- 30         0.00027
       6 <- 31        -0.00110
       6 <- 34        -0.00094
       6 <- 38        -0.00061
       6 <- 39         0.00086
       6 <- 44         0.00035
       6 <- 45        -0.00022
       6 <- 48        -0.00027
       7 <-  9         0.00442
       7 <- 12         0.00174
       7 <- 14         0.00084
       7 <- 15        -0.00049
       7 <- 19         0.00391
       7 <- 20        -0.00108
       7 <- 25         0.00097
       7 <- 26         0.00025
       7 <- 30        -0.00038
       7 <- 31         0.00055
       7 <- 34        -0.00066
       7 <- 38        -0.00017
       7 <- 39         0.00027
       7 <- 45        -0.00014
       7 <- 48        -0.00013
       7 <- 51         0.00033
       8 <- 11        -0.00496
       8 <- 16         0.00479
       8 <- 18        -0.01246
       8 <- 23        -0.00186
       8 <- 24        -0.00124
       8 <- 29         0.00223
       8 <- 32         0.00133
       8 <- 36        -0.00203
       8 <- 42         0.00127
       8 <- 47        -0.00060
       8 <- 53        -0.00011

 Excited State   5:      Singlet-A2     7.6316 eV  162.46 nm  f=0.0000  <S**2>=0.000
       3 -> 27         0.00229
       3 -> 35         0.00178
       3 -> 46         0.00079
       4 -> 10         0.00571
       4 -> 13         0.00996
       4 -> 17        -0.00058
       4 -> 22        -0.00259
       4 -> 28         0.00061
       4 -> 33         0.00211
       4 -> 37         0.00298
       4 -> 43         0.00030
       4 -> 49        -0.00010
       4 -> 52         0.00048
       5 -> 16        -0.00168
       5 -> 18        -0.00032
       5 -> 23         0.00162
       5 -> 29        -0.00037
       5 -> 32         0.00012
       5 -> 36         0.00047
       5 -> 42         0.00051
       5 -> 47         0.00049
       5 -> 53         0.00020
       6 -> 27         0.00186
       6 -> 35        -0.00084
       6 -> 46        -0.00024
       7 -> 27         0.00044
       7 -> 35        -0.00011
       7 -> 46         0.00085
       8 -> 10        -0.09628
       8 -> 13         0.69978
       8 -> 17         0.01942
       8 -> 22        -0.02390
       8 -> 28         0.00276
       8 -> 33         0.00211
       8 -> 37        -0.00190
       8 -> 43        -0.00016
       8 -> 49        -0.00011
       8 -> 52         0.00053
       3 <- 27         0.00148
       3 <- 35         0.00147
       3 <- 46         0.00088
       4 <- 10         0.00034
       4 <- 13         0.00062
       4 <- 17        -0.00026
       4 <- 33        -0.00049
       4 <- 37         0.00105
       4 <- 43         0.00032
       4 <- 52         0.00015
       5 <- 11         0.00032
       5 <- 16        -0.00041
       5 <- 18        -0.00097
       5 <- 23         0.00285
       5 <- 24        -0.00111
       5 <- 29         0.00026
       5 <- 32        -0.00078
       5 <- 36         0.00151
       5 <- 42         0.00083
       5 <- 47         0.00023
       5 <- 53         0.00044
       6 <- 27         0.00241
       6 <- 35        -0.00023
       6 <- 46        -0.00033
       7 <- 27         0.00059
       7 <- 35        -0.00025
       7 <- 46         0.00047
       8 <- 10        -0.00735
       8 <- 13        -0.00329
       8 <- 17        -0.00184
       8 <- 22         0.00065
       8 <- 28        -0.00035
       8 <- 33         0.00194
       8 <- 37        -0.00146
       8 <- 52         0.00020

 Excited State   6:      Singlet-B2     9.6454 eV  128.54 nm  f=0.1675  <S**2>=0.000
       3 -> 11        -0.00038
       3 -> 16         0.00098
       3 -> 18        -0.00080
       3 -> 23         0.00063
       3 -> 24         0.00036
       3 -> 29         0.00086
       3 -> 32        -0.00069
       3 -> 40         0.00042
       3 -> 42         0.00043
       3 -> 47         0.00027

 The electronic state is 1-A1.
 Alpha  occ. eigenvalues --  -19.14349 -10.24068  -1.30713  -0.65587  -0.61395
 Alpha  occ. eigenvalues --   -0.58539  -0.53589  -0.22902
 Alpha virt. eigenvalues --    0.01337   0.02386   0.04435   0.04485   0.10712
 Alpha virt. eigenvalues --    0.14363   0.17659   0.19944   0.21778   0.24341
 Alpha virt. eigenvalues --    0.25401   0.36500   0.50426   0.53929   0.55194

 Mulliken charges:
               1
     1  C    0.286600
     2  H   -0.030553
     3  H   -0.030553
     4  O   -0.225494
 Sum of Mulliken charges =  -0.00000

 Dipole moment (field-independent basis, Debye):
    X=              0.0000    Y=              0.0000    Z=              0.0136  Tot=              0.0136
 Quadrupole moment (field-independent basis, Debye-Ang):
   XX=            -10.5890   YY=            -12.6815   ZZ=            -13.3710
   XY=             -0.0000   XZ=             -0.0000   YZ=             -0.0000

 Normal termination of Gaussian 16 at Fri Sep 17 10:52:28 2021.
