 Gaussian 16, Revision A.03,
 Gaussian 16:  ES64L-G16RevA.03 25-Dec-2016

 --------------------------------------------------------------------
 #p B3LYP/6-311+G** #p TD=(singlets,nstates=30)IOp(6/8=3) IOp(9/40=4)
 --------------------------------------------------------------------

 -------------------------------
 Scan Step 288, Bond Length 1.94
 -------------------------------
 Symbolic Z-matrix:
 Charge =  0 Multiplicity = 1

                         Standard orientation:
 ---------------------------------------------------------------------
 Center     Atomic      Atomic             Coordinates (Angstroms)
 Number     Number       Type             X           Y           Z
 ---------------------------------------------------------------------
      1          6           0        0.000000   -0.000000   -0.896081
      2          1           0        0.000000    0.937260   -1.487431
      3          1           0       -0.000000   -0.937260   -1.487431
      4          8           0        0.000000    0.000000    1.043919
 ---------------------------------------------------------------------

 SCF Done:  E(RB3LYP) =  -114.313146163     A.U. after   13 cycles

 Excitation energies and oscillator strengths:

 Excited State   1:      Singlet-A2     1.0729 eV 1155.63 nm  f=0.0000  <S**2>=0.000
       3 -> 27         0.00058
       3 -> 38         0.00033
       3 -> 47         0.00328
       4 -> 27         0.00029
       4 -> 47        -0.00080
       5 ->  9         0.00015
       5 -> 13         0.00104
       5 -> 18         0.00132
       5 -> 23         0.00119
       5 -> 28         0.00096
       5 -> 37         0.00057
       5 -> 44         0.00016
       5 -> 52         0.00013
       6 -> 27        -0.00052
       6 -> 38        -0.00048
       6 -> 47         0.00079
       7 -> 12        -0.00144
       7 -> 16         0.00540
       7 -> 19        -0.00494
       7 -> 22        -0.00114
       7 -> 25        -0.00044
       7 -> 30        -0.00204
       7 -> 33         0.00025
       7 -> 49         0.00012
       7 -> 53         0.00035
       8 ->  9         0.71202
       8 -> 13        -0.00505
       8 -> 18         0.02028
       8 -> 23        -0.00034
       8 -> 28         0.00976
       8 -> 31         0.00158
       8 -> 37         0.00045
       8 -> 46        -0.00027
       8 -> 52         0.00179
       3 <- 27         0.00011
       3 <- 38         0.00013
       3 <- 47         0.00330
       4 <- 27         0.00056
       4 <- 38         0.00016
       4 <- 47        -0.00060
       5 <-  9         0.00061
       5 <- 13        -0.00027
       5 <- 18        -0.00028
       5 <- 23         0.00013
       5 <- 28        -0.00022
       5 <- 31         0.00018
       5 <- 37         0.00033
       6 <- 38        -0.00035
       6 <- 47         0.00056
       7 <- 12         0.00225
       7 <- 16        -0.01046
       7 <- 19         0.00624
       7 <- 22         0.00507
       7 <- 25        -0.00063
       7 <- 30         0.00566
       7 <- 33        -0.00033
       7 <- 49        -0.00046
       7 <- 53         0.00143
       8 <-  9        -0.08537
       8 <- 13        -0.00074
       8 <- 18        -0.00803
       8 <- 23        -0.00047
       8 <- 28        -0.00281
       8 <- 31        -0.00086
       8 <- 37        -0.00014
       8 <- 46         0.00013
       8 <- 52         0.00040
 This state for optimization and/or second-order correction.
 Total Energy, E(TD-HF/TD-DFT) =  -114.273718808
 Copying the excited state density for this state as the 1-particle RhoCI density.

 Excited State   2:      Singlet-A1     2.8019 eV  442.51 nm  f=0.0203  <S**2>=0.000
       3 -> 10        -0.01156
       3 -> 11        -0.00194
       3 -> 17        -0.00283
       3 -> 20        -0.00311
       3 -> 21         0.00071
       3 -> 26         0.00063
       3 -> 29         0.00015
       3 -> 32         0.00254
       3 -> 34         0.00090
       3 -> 36        -0.00086
       3 -> 39        -0.00027
       3 -> 43         0.00042
       3 -> 45        -0.00130
       3 -> 48         0.00231
       3 -> 50         0.00167
       3 -> 54        -0.00014
       4 -> 10         0.00015
       4 -> 11         0.00878
       4 -> 14         0.00120
       4 -> 15        -0.00679
       4 -> 17         0.00186
       4 -> 20         0.00135
       4 -> 21         0.00017
       4 -> 24        -0.00351
       4 -> 26         0.00257
       4 -> 32        -0.00098
       4 -> 34        -0.00061
       4 -> 39        -0.00029
       4 -> 43        -0.00039
       4 -> 45         0.00073
       4 -> 48        -0.00064
       4 -> 50        -0.00021
       4 -> 54         0.00013
       5 -> 12         0.00747
       5 -> 16         0.00095
       5 -> 19         0.00093
       5 -> 22         0.00606
       5 -> 25        -0.00343
       5 -> 30         0.00031
       5 -> 33        -0.00219
       5 -> 35         0.00268
       5 -> 40        -0.00085
       5 -> 42        -0.00098
       5 -> 51        -0.00091
       6 -> 10         0.26585
       6 -> 11         0.02692
       6 -> 14        -0.02855
       6 -> 15        -0.01743
       6 -> 17        -0.01405
       6 -> 21         0.00343
       6 -> 24        -0.00620
       6 -> 26        -0.00215
       6 -> 29        -0.00179
       6 -> 32         0.00482
       6 -> 34         0.00135
       6 -> 36         0.00079
       6 -> 39        -0.00156
       6 -> 43         0.00075
       6 -> 45        -0.00099
       6 -> 48         0.00066
       6 -> 50         0.00042
       6 -> 54        -0.00099
       7 ->  9         0.67261
       7 -> 13        -0.00824
       7 -> 18        -0.00799
       7 -> 23        -0.00313
       7 -> 28         0.00180
       7 -> 31        -0.00330
       7 -> 37         0.00136
       7 -> 44        -0.00095
       7 -> 52         0.00104
       8 -> 12        -0.00684
       8 -> 16         0.02815
       8 -> 19        -0.01623
       8 -> 22        -0.00896
       8 -> 30        -0.00669
       8 -> 33         0.00073
       8 -> 35        -0.00037
       8 -> 40         0.00011
       8 -> 42         0.00014
       8 -> 51         0.00011
       8 -> 53        -0.00046
       3 <- 10        -0.00966
       3 <- 11        -0.00195
       3 <- 15        -0.00039
       3 <- 17        -0.00169
       3 <- 20        -0.00285
       3 <- 21         0.00029
       3 <- 24        -0.00037
       3 <- 26        -0.00014
       3 <- 29         0.00043
       3 <- 32         0.00214
       3 <- 34         0.00046
       3 <- 36        -0.00094
       3 <- 39        -0.00020
       3 <- 43         0.00044
       3 <- 45        -0.00139
       3 <- 48         0.00231
       3 <- 50         0.00168
       4 <- 10         0.00125
       4 <- 11         0.00686
       4 <- 14         0.00115
       4 <- 15        -0.00493
       4 <- 17         0.00119
       4 <- 20         0.00199
       4 <- 24        -0.00279
       4 <- 26         0.00237
       4 <- 29        -0.00043
       4 <- 32        -0.00093
       4 <- 34        -0.00052
       4 <- 36         0.00021
       4 <- 39        -0.00033
       4 <- 43        -0.00035
       4 <- 45         0.00064
       4 <- 48        -0.00038
       4 <- 54         0.00011
       5 <- 12         0.00495
       5 <- 16         0.00074
       5 <- 19         0.00080
       5 <- 22         0.00460
       5 <- 25        -0.00281
       5 <- 30         0.00032
       5 <- 33        -0.00188
       5 <- 35         0.00237
       5 <- 40        -0.00079
       5 <- 42        -0.00089
       5 <- 51        -0.00086
       6 <- 10         0.09442
       6 <- 11         0.01244
       6 <- 14        -0.01512
       6 <- 15        -0.01015
       6 <- 17        -0.00915
       6 <- 20        -0.00126
       6 <- 21         0.00264
       6 <- 24        -0.00424
       6 <- 26        -0.00090
       6 <- 29        -0.00073
       6 <- 32         0.00447
       6 <- 34         0.00150
       6 <- 36         0.00032
       6 <- 39        -0.00140
       6 <- 43         0.00064
       6 <- 45        -0.00071
       6 <- 48         0.00037
       6 <- 50         0.00028
       6 <- 54        -0.00093
       7 <-  9        -0.12909
       7 <- 13         0.00197
       7 <- 18        -0.01018
       7 <- 28        -0.00104
       7 <- 31        -0.00156
       7 <- 37         0.00066
       7 <- 44        -0.00086
       7 <- 46        -0.00046
       7 <- 52         0.00098
       8 <- 12        -0.00334
       8 <- 16         0.01588
       8 <- 19        -0.01035
       8 <- 22        -0.00636
       8 <- 25         0.00012
       8 <- 30        -0.00557
       8 <- 33         0.00060
       8 <- 35        -0.00028
       8 <- 42         0.00011
       8 <- 49        -0.00019
       8 <- 53        -0.00044

 Excited State   3:      Singlet-B2     2.8299 eV  438.11 nm  f=0.0013  <S**2>=0.000
       3 -> 12        -0.00103
       3 -> 16         0.00087
       3 -> 19        -0.00338
       3 -> 22         0.00112
       3 -> 25        -0.00087
       3 -> 30        -0.00219
       3 -> 33         0.00034
       3 -> 35         0.00104
       3 -> 40        -0.00106
       3 -> 42        -0.00031
       3 -> 49        -0.00406
       3 -> 51         0.00014
       3 -> 53         0.00023
       4 -> 12         0.00031
       4 -> 16        -0.00114
       4 -> 19         0.00027
       4 -> 22         0.00142
       4 -> 25         0.00042
       4 -> 30         0.00066
       4 -> 33        -0.00027
       4 -> 35         0.00039
       4 -> 40         0.00020
       4 -> 49         0.00072
       5 -> 10         0.00877
       5 -> 11         0.00084
       5 -> 14        -0.00212
       5 -> 15         0.00245
       5 -> 17        -0.00052
       5 -> 20         0.00179
       5 -> 21         0.00229
       5 -> 24         0.00123
       5 -> 26        -0.00022
       5 -> 29        -0.00203
       5 -> 32        -0.00063
       5 -> 34        -0.00011
       5 -> 39         0.00051
       5 -> 41         0.00033
       5 -> 48        -0.00027
       5 -> 50         0.00018
       5 -> 54        -0.00016
       6 -> 12         0.00235
       6 -> 16        -0.00290
       6 -> 19         0.00434
       6 -> 22        -0.00070
       6 -> 25         0.00115
       6 -> 30         0.00046
       6 -> 33        -0.00022
       6 -> 35        -0.00098
       6 -> 40         0.00059
       6 -> 42         0.00053
       6 -> 49         0.00095
       6 -> 53        -0.00044
       7 -> 27        -0.00044
       7 -> 38         0.00024
       7 -> 47         0.00262
       8 -> 10         0.70660
       8 -> 11         0.04196
       8 -> 14        -0.03988
       8 -> 15        -0.01731
       8 -> 17        -0.01645
       8 -> 20         0.00697
       8 -> 21         0.00464
       8 -> 24        -0.00491
       8 -> 26        -0.00360
       8 -> 29        -0.01365
       8 -> 32         0.00163
       8 -> 34        -0.00090
       8 -> 36         0.00184
       8 -> 39         0.00024
       8 -> 41        -0.00017
       8 -> 45        -0.00074
       8 -> 48        -0.00321
       8 -> 50         0.00107
       8 -> 54        -0.00251
       3 <- 12        -0.00035
       3 <- 16         0.00033
       3 <- 19        -0.00171
       3 <- 22         0.00087
       3 <- 25        -0.00079
       3 <- 30        -0.00090
       3 <- 33         0.00032
       3 <- 35         0.00063
       3 <- 40        -0.00091
       3 <- 42        -0.00015
       3 <- 49        -0.00411
       3 <- 51         0.00014
       3 <- 53         0.00064
       4 <- 12         0.00012
       4 <- 16        -0.00148
       4 <- 19         0.00019
       4 <- 22         0.00183
       4 <- 25         0.00019
       4 <- 30         0.00096
       4 <- 33        -0.00027
       4 <- 35         0.00054
       4 <- 49         0.00050
       5 <- 10        -0.00096
       5 <- 11        -0.00043
       5 <- 14        -0.00035
       5 <- 15         0.00202
       5 <- 17         0.00019
       5 <- 20         0.00075
       5 <- 21         0.00139
       5 <- 24         0.00134
       5 <- 29        -0.00045
       5 <- 32        -0.00021
       5 <- 39         0.00026
       5 <- 41         0.00035
       5 <- 45        -0.00017
       5 <- 48        -0.00029
       6 <- 12        -0.00114
       6 <- 16         0.00835
       6 <- 19        -0.00488
       6 <- 22        -0.00521
       6 <- 25         0.00139
       6 <- 30        -0.00629
       6 <- 33         0.00014
       6 <- 35        -0.00076
       6 <- 40         0.00057
       6 <- 42         0.00049
       6 <- 49         0.00149
       6 <- 53        -0.00145
       7 <- 27        -0.00045
       7 <- 38         0.00019
       7 <- 47         0.00230
       8 <- 10        -0.05794
       8 <- 11        -0.00692
       8 <- 14         0.00665
       8 <- 15         0.00222
       8 <- 17         0.00280
       8 <- 20        -0.00367
       8 <- 21        -0.00094
       8 <- 24         0.00135
       8 <- 26         0.00086
       8 <- 29         0.00296
       8 <- 32         0.00198
       8 <- 34         0.00074
       8 <- 36        -0.00094
       8 <- 39        -0.00077
       8 <- 41         0.00014
       8 <- 43         0.00028
       8 <- 45        -0.00139
       8 <- 48        -0.00271
       8 <- 50         0.00105
       8 <- 54        -0.00065

 Excited State   4:      Singlet-B1     3.1086 eV  398.84 nm  f=0.0001  <S**2>=0.000
       3 ->  9        -0.01793
       3 -> 13         0.00051
       3 -> 18        -0.00338
       3 -> 23         0.00106
       3 -> 28        -0.00143
       3 -> 31        -0.00111
       3 -> 37         0.00017
       3 -> 44         0.00019
       3 -> 46        -0.00133
       3 -> 52         0.00047
       4 ->  9        -0.00386
       4 -> 13         0.00053
       4 -> 18         0.00026
       4 -> 23         0.00038
       4 -> 28         0.00066
       4 -> 31        -0.00079
       4 -> 52        -0.00014
       5 -> 27        -0.00197
       5 -> 47         0.00031
       6 ->  9         0.46864
       6 -> 13        -0.01247
       6 -> 18         0.01156
       6 -> 23        -0.00769
       6 -> 28         0.00380
       6 -> 31         0.00041
       6 -> 37        -0.00026
       6 -> 44        -0.00090
       6 -> 46         0.00223
       6 -> 52         0.00036
       7 -> 10         0.53489
       7 -> 11         0.03273
       7 -> 14        -0.03239
       7 -> 15        -0.01558
       7 -> 17        -0.01281
       7 -> 20         0.00455
       7 -> 21         0.00251
       7 -> 24        -0.00588
       7 -> 26        -0.00437
       7 -> 29        -0.00812
       7 -> 32         0.00165
       7 -> 34        -0.00073
       7 -> 36         0.00097
       7 -> 41        -0.00013
       7 -> 43         0.00046
       7 -> 45        -0.00107
       7 -> 48         0.00293
       7 -> 50         0.00092
       7 -> 54        -0.00112
       8 -> 27         0.00013
       8 -> 47         0.00355
       3 <-  9        -0.00596
       3 <- 13        -0.00048
       3 <- 18        -0.00216
       3 <- 23        -0.00016
       3 <- 28        -0.00091
       3 <- 31        -0.00067
       3 <- 44        -0.00013
       3 <- 46        -0.00128
       3 <- 52         0.00062
       4 <-  9        -0.00138
       4 <- 13         0.00070
       4 <- 18         0.00108
       4 <- 23         0.00049
       4 <- 28         0.00137
       4 <- 31        -0.00060
       4 <- 44        -0.00035
       5 <- 27        -0.00191
       5 <- 47         0.00029
       6 <-  9        -0.06245
       6 <- 13         0.00233
       6 <- 18        -0.00676
       6 <- 23         0.00084
       6 <- 28        -0.00418
       6 <- 31        -0.00216
       6 <- 44         0.00035
       6 <- 46         0.00220
       6 <- 52        -0.00073
       7 <- 10        -0.06966
       7 <- 11        -0.00843
       7 <- 14         0.01098
       7 <- 15         0.00535
       7 <- 17         0.00382
       7 <- 20        -0.00034
       7 <- 21        -0.00276
       7 <- 24         0.00269
       7 <- 26         0.00163
       7 <- 29         0.00242
       7 <- 36        -0.00016
       7 <- 39        -0.00038
       7 <- 41         0.00024
       7 <- 43         0.00025
       7 <- 45        -0.00076
       7 <- 48         0.00269
       7 <- 50         0.00118
       7 <- 54         0.00025
       8 <- 27         0.00042
       8 <- 47         0.00324

 Excited State   5:      Singlet-B1     3.6556 eV  339.16 nm  f=0.0054  <S**2>=0.000
       3 ->  9        -0.00623
       3 -> 13         0.00029
       3 -> 18         0.00019
       3 -> 23         0.00018
       3 -> 28         0.00163
       3 -> 31         0.00082
       3 -> 44         0.00035
       3 -> 46         0.00320
       3 -> 52         0.00043
       4 ->  9         0.02848
       4 -> 13        -0.00578
       4 -> 18        -0.00056
       4 -> 23        -0.00462
       4 -> 28        -0.00034
       4 -> 31        -0.00084
       4 -> 37        -0.00035
       4 -> 44         0.00038
       4 -> 46        -0.00092
       4 -> 52        -0.00021
       5 -> 27         0.00549
       5 -> 38         0.00378
       6 ->  9         0.53242
       6 -> 13        -0.00988
       6 -> 18         0.00477
       6 -> 23        -0.00647
       6 -> 28        -0.00124
       6 -> 31         0.00444
       6 -> 37        -0.00284
       6 -> 44        -0.00140
       6 -> 46         0.00184
       6 -> 52         0.00108
       7 -> 10        -0.46323
       7 -> 11        -0.02155
       7 -> 14         0.02258
       7 -> 15         0.01790
       7 -> 17         0.00403
       7 -> 20         0.00231
       7 -> 21        -0.00124
       7 -> 24         0.00602
       7 -> 26         0.00296
       7 -> 29         0.00531
       7 -> 34         0.00312
       7 -> 36         0.00148
       7 -> 39        -0.00060
       7 -> 43        -0.00024
       7 -> 45         0.00048
       7 -> 48         0.00087
       7 -> 50         0.00045
       7 -> 54         0.00145
       8 -> 27        -0.00041
       8 -> 38        -0.00016
       8 -> 47         0.00101
       3 <-  9        -0.00215
       3 <- 13        -0.00096
       3 <- 18        -0.00034
       3 <- 23        -0.00067
       3 <- 28         0.00126
       3 <- 31        -0.00025
       3 <- 37         0.00033
       3 <- 44         0.00036
       3 <- 46         0.00329
       4 <-  9         0.01533
       4 <- 13        -0.00298
       4 <- 18         0.00034
       4 <- 23        -0.00303
       4 <- 28        -0.00013
       4 <- 31        -0.00063
       4 <- 37        -0.00032
       4 <- 44         0.00044
       4 <- 46        -0.00057
       4 <- 52        -0.00015
       5 <- 27         0.00402
       5 <- 38         0.00325
       6 <-  9         0.00912
       6 <- 13         0.00145
       6 <- 18         0.00091
       6 <- 23        -0.00038
       6 <- 28        -0.00162
       6 <- 31         0.00458
       6 <- 37        -0.00269
       6 <- 44        -0.00091
       6 <- 46         0.00110
       6 <- 52         0.00114
       7 <- 10        -0.00823
       7 <- 11        -0.00175
       7 <- 14         0.00389
       7 <- 15         0.00764
       7 <- 17         0.00083
       7 <- 20         0.00498
       7 <- 21        -0.00024
       7 <- 24         0.00385
       7 <- 26         0.00102
       7 <- 29         0.00087
       7 <- 32        -0.00116
       7 <- 34         0.00215
       7 <- 36         0.00236
       7 <- 39        -0.00026
       7 <- 43        -0.00033
       7 <- 45         0.00059
       7 <- 48         0.00095
       7 <- 50         0.00073
       7 <- 54         0.00112
       8 <- 47         0.00119

 Excited State   6:      Singlet-A2     6.7183 eV  184.55 nm  f=0.0000  <S**2>=0.000
       3 -> 27        -0.00095
       3 -> 38        -0.00025
       3 -> 47         0.00010
       4 -> 27        -0.00604
       4 -> 38         0.00044
       4 -> 47        -0.00016

 The electronic state is 1-A1.
 Alpha  occ. eigenvalues --  -19.17818 -10.34320  -0.88186  -0.72022  -0.49470
 Alpha  occ. eigenvalues --   -0.37674  -0.29930  -0.28548
 Alpha virt. eigenvalues --   -0.18085  -0.10171  -0.00296   0.04027   0.06082
 Alpha virt. eigenvalues --    0.06096   0.11496   0.12905   0.18586   0.20844
 Alpha virt. eigenvalues --    0.23873   0.30417   0.38471   0.39109   0.50406

 Mulliken charges:
               1
     1  C   -0.109897
     2  H    0.194871
     3  H    0.194871
     4  O   -0.279845
 Sum of Mulliken charges =  -0.00000

 Dipole moment (field-independent basis, Debye):
    X=             -0.0000    Y=             -0.0000    Z=             -4.3554  Tot=              4.3554
 Quadrupole moment (field-independent basis, Debye-Ang):
   XX=            -13.1206   YY=            -12.1073   ZZ=            -10.3152
   XY=              0.0000   XZ=              0.0000   YZ=              0.0000

 Normal termination of Gaussian 16 at Fri Sep 17 10:53:12 2021.
