 Gaussian 16, Revision A.03,
 Gaussian 16:  ES64L-G16RevA.03 25-Dec-2016

 --------------------------------------------------------------------
 #p B3LYP/6-311+G** #p TD=(singlets,nstates=30)IOp(6/8=3) IOp(9/40=4)
 --------------------------------------------------------------------

 -------------------------------
 Scan Step 156, Bond Length 1.28
 -------------------------------
 Symbolic Z-matrix:
 Charge =  0 Multiplicity = 1

                         Standard orientation:
 ---------------------------------------------------------------------
 Center     Atomic      Atomic             Coordinates (Angstroms)
 Number     Number       Type             X           Y           Z
 ---------------------------------------------------------------------
      1          6           0        0.000000   -0.000000   -0.566081
      2          1           0        0.000000    0.937260   -1.157431
      3          1           0       -0.000000   -0.937260   -1.157431
      4          8           0        0.000000    0.000000    0.713919
 ---------------------------------------------------------------------

 SCF Done:  E(RB3LYP) =  -114.533581497     A.U. after    9 cycles

 Excitation energies and oscillator strengths:

 Excited State   1:      Singlet-A2     3.5089 eV  353.34 nm  f=0.0000  <S**2>=0.000
       3 -> 27         0.00223
       3 -> 38         0.00187
       3 -> 45         0.00270
       4 -> 27         0.00162
       4 -> 38        -0.00046
       4 -> 45        -0.00137
       5 ->  9         0.01951
       5 -> 13        -0.00183
       5 -> 17         0.00521
       5 -> 23         0.00045
       5 -> 29         0.00433
       5 -> 31        -0.00172
       5 -> 37         0.00304
       5 -> 44         0.00057
       5 -> 48         0.00014
       5 -> 52         0.00070
       6 -> 27        -0.00029
       6 -> 38        -0.00087
       6 -> 45         0.00176
       7 -> 12        -0.00062
       7 -> 15         0.00324
       7 -> 18        -0.00305
       7 -> 22         0.00038
       7 -> 25         0.00141
       7 -> 30        -0.00101
       7 -> 33         0.00045
       7 -> 35         0.00019
       7 -> 40         0.00018
       7 -> 42        -0.00012
       7 -> 49         0.00026
       7 -> 50         0.00032
       7 -> 53         0.00047
       8 ->  9         0.70611
       8 -> 13        -0.03455
       8 -> 17         0.02267
       8 -> 23        -0.00909
       8 -> 29         0.00983
       8 -> 31        -0.00184
       8 -> 37         0.00020
       8 -> 48        -0.00027
       8 -> 52         0.00177
       3 <- 27         0.00139
       3 <- 38         0.00152
       3 <- 45         0.00278
       4 <- 27         0.00241
       4 <- 38         0.00010
       4 <- 45        -0.00114
       5 <-  9        -0.00053
       5 <- 13        -0.00078
       5 <- 17        -0.00101
       5 <- 23         0.00051
       5 <- 29        -0.00071
       5 <- 31         0.00077
       5 <- 37         0.00149
       5 <- 44         0.00022
       5 <- 48         0.00014
       5 <- 52         0.00019
       6 <- 27         0.00031
       6 <- 38        -0.00077
       6 <- 45         0.00138
       7 <- 12        -0.00064
       7 <- 15        -0.00788
       7 <- 18         0.00088
       7 <- 22         0.00745
       7 <- 30         0.00385
       7 <- 33        -0.00122
       7 <- 35         0.00219
       7 <- 40         0.00092
       7 <- 50         0.00022
       7 <- 53         0.00134
       8 <-  9        -0.02778
       8 <- 13         0.00244
       8 <- 17        -0.00469
       8 <- 23         0.00076
       8 <- 29        -0.00123
       8 <- 31        -0.00065
       8 <- 37        -0.00122
       8 <- 52         0.00050
 This state for optimization and/or second-order correction.
 Total Energy, E(TD-HF/TD-DFT) =  -114.404631402
 Copying the excited state density for this state as the 1-particle RhoCI density.

 Excited State   2:      Singlet-B2     6.9297 eV  178.92 nm  f=0.0215  <S**2>=0.000
       3 -> 12         0.00162
       3 -> 15         0.00067
       3 -> 18         0.00126
       3 -> 22        -0.00033
       3 -> 25         0.00123
       3 -> 33         0.00024
       3 -> 35        -0.00048
       3 -> 40        -0.00018
       3 -> 49         0.00011
       4 -> 12        -0.00266
       4 -> 15         0.00200
       4 -> 18         0.00190
       4 -> 22        -0.00324
       4 -> 25         0.00315
       4 -> 30         0.00034
       4 -> 33        -0.00036
       4 -> 35         0.00048
       4 -> 40         0.00044
       4 -> 42        -0.00013
       5 -> 10        -0.00793
       5 -> 11        -0.00744
       5 -> 14         0.00704
       5 -> 16        -0.00068
       5 -> 19        -0.00191
       5 -> 20         0.00277
       5 -> 21         0.00583
       5 -> 24        -0.00048
       5 -> 26         0.00219
       5 -> 28         0.00102
       5 -> 32        -0.00104
       5 -> 34        -0.00099
       5 -> 36        -0.00018
       5 -> 39        -0.00025
       5 -> 41        -0.00046
       5 -> 43        -0.00049
       5 -> 46        -0.00023
       5 -> 54         0.00012
       6 -> 12        -0.00059
       6 -> 15         0.00145
       6 -> 18         0.00142
       6 -> 22        -0.00232
       6 -> 25         0.00100
       6 -> 30        -0.00053
       6 -> 33        -0.00027
       6 -> 35         0.00054
       6 -> 42        -0.00017
       6 -> 49         0.00045
       6 -> 50        -0.00023
       7 -> 38        -0.00065
       7 -> 45         0.00025
       8 -> 10         0.70261
       8 -> 11        -0.07390
       8 -> 14         0.01844
       8 -> 16        -0.00450
       8 -> 19         0.00365
       8 -> 20         0.01720
       8 -> 21        -0.00245
       8 -> 26         0.00284
       8 -> 28         0.00098
       8 -> 32         0.00097
       8 -> 34         0.00083
       8 -> 36         0.00032
       8 -> 39         0.00033
       8 -> 41        -0.00023
       8 -> 43         0.00059
       8 -> 46        -0.00042
       8 -> 47         0.00016
       8 -> 51        -0.00014
       8 -> 54         0.00021
       3 <- 12         0.00037
       3 <- 15         0.00052
       3 <- 18         0.00047
       3 <- 22        -0.00050
       3 <- 25         0.00068
       3 <- 30        -0.00011
       3 <- 33         0.00020
       3 <- 35        -0.00043
       3 <- 40        -0.00019
       3 <- 49         0.00016
       4 <- 12         0.00077
       4 <- 15         0.00196
       4 <- 18         0.00181
       4 <- 22        -0.00203
       4 <- 25         0.00214
       4 <- 30         0.00024
       4 <- 33        -0.00018
       4 <- 35         0.00023
       4 <- 40         0.00012
       4 <- 42        -0.00023
       4 <- 50        -0.00014
       5 <- 10         0.00229
       5 <- 11        -0.00024
       5 <- 14         0.00467
       5 <- 16        -0.00057
       5 <- 19        -0.00030
       5 <- 20         0.00080
       5 <- 21         0.00179
       5 <- 24        -0.00209
       5 <- 26         0.00145
       5 <- 28         0.00012
       5 <- 32        -0.00076
       5 <- 34        -0.00090
       5 <- 36        -0.00025
       5 <- 39        -0.00014
       5 <- 41        -0.00027
       5 <- 43        -0.00038
       5 <- 46        -0.00021
       6 <- 15        -0.00021
       6 <- 18         0.00100
       6 <- 22        -0.00052
       6 <- 25         0.00033
       6 <- 30         0.00034
       6 <- 33        -0.00032
       6 <- 35         0.00059
       6 <- 42        -0.00015
       6 <- 49         0.00036
       6 <- 50        -0.00025
       6 <- 53         0.00016
       7 <- 38        -0.00048
       7 <- 45         0.00024
       8 <- 10        -0.00149
       8 <- 11        -0.00057
       8 <- 14        -0.00451
       8 <- 16        -0.00054
       8 <- 19         0.00024
       8 <- 20        -0.00070
       8 <- 21        -0.00152
       8 <- 24         0.00190
       8 <- 26        -0.00084
       8 <- 28        -0.00044
       8 <- 32         0.00095
       8 <- 36         0.00031
       8 <- 39         0.00022
       8 <- 43         0.00037
       8 <- 46        -0.00024

 Excited State   3:      Singlet-B2     7.6805 eV  161.43 nm  f=0.0277  <S**2>=0.000
       3 -> 12        -0.00035
       3 -> 15        -0.00099
       3 -> 18         0.00111
       3 -> 22         0.00050
       3 -> 30         0.00251
       3 -> 33         0.00015
       3 -> 35        -0.00063
       3 -> 40        -0.00054
       3 -> 49         0.00061
       3 -> 50        -0.00018
       4 -> 12         0.00245
       4 -> 15         0.00041
       4 -> 18         0.00185
       4 -> 22        -0.00149
       4 -> 25         0.00279
       4 -> 30        -0.00140
       4 -> 33         0.00049
       4 -> 35        -0.00058
       4 -> 49         0.00023
       5 -> 10        -0.00563
       5 -> 11        -0.00020
       5 -> 14         0.00989
       5 -> 16        -0.00683
       5 -> 19        -0.00058
       5 -> 20        -0.00478
       5 -> 21         0.00247
       5 -> 24        -0.00080
       5 -> 26         0.00159
       5 -> 28         0.00155
       5 -> 34        -0.00084
       5 -> 36        -0.00039
       5 -> 39         0.00046
       5 -> 41        -0.00067
       5 -> 43         0.00019
       5 -> 46         0.00091
       5 -> 51        -0.00043
       6 -> 12        -0.00283
       6 -> 15        -0.00143
       6 -> 18        -0.00074
       6 -> 22         0.00110
       6 -> 25         0.00017
       6 -> 30         0.00117
       6 -> 33        -0.00055
       6 -> 35         0.00149
       6 -> 40         0.00113
       6 -> 49        -0.00129
       6 -> 50         0.00030
       6 -> 53         0.00012
       7 -> 27         0.00023
       7 -> 38        -0.00082
       7 -> 45        -0.00202
       8 -> 10         0.07401
       8 -> 11         0.70215
       8 -> 14        -0.00139
       8 -> 16         0.00873
       8 -> 19        -0.03519
       8 -> 20        -0.00066
       8 -> 21        -0.00282
       8 -> 24         0.00039
       8 -> 26        -0.00064
       8 -> 28         0.00214
       8 -> 32         0.00011
       8 -> 34        -0.00021
       8 -> 36        -0.00023
       8 -> 39        -0.00026
       8 -> 41        -0.00110
       8 -> 43         0.00038
       8 -> 46         0.00237
       8 -> 51        -0.00110
       3 <- 12         0.00034
       3 <- 15        -0.00031
       3 <- 18         0.00101
       3 <- 25         0.00022
       3 <- 30         0.00135
       3 <- 33         0.00026
       3 <- 35        -0.00064
       3 <- 40        -0.00050
       3 <- 49         0.00055
       3 <- 50        -0.00012
       3 <- 53        -0.00033
       4 <- 12         0.00030
       4 <- 15         0.00086
       4 <- 18         0.00040
       4 <- 22        -0.00116
       4 <- 25         0.00119
       4 <- 30        -0.00073
       4 <- 33         0.00046
       4 <- 35        -0.00029
       4 <- 42        -0.00010
       4 <- 49         0.00017
       5 <- 10         0.00119
       5 <- 11        -0.00137
       5 <- 14         0.00274
       5 <- 16        -0.00043
       5 <- 19         0.00146
       5 <- 20        -0.00040
       5 <- 21         0.00081
       5 <- 24        -0.00141
       5 <- 26         0.00012
       5 <- 28         0.00065
       5 <- 32        -0.00088
       5 <- 36         0.00013
       5 <- 39         0.00011
       5 <- 41        -0.00071
       5 <- 43         0.00011
       5 <- 46         0.00087
       5 <- 47        -0.00012
       5 <- 51        -0.00030
       6 <- 12        -0.00027
       6 <- 15        -0.00107
       6 <- 18         0.00036
       6 <- 22         0.00092
       6 <- 25        -0.00014
       6 <- 30         0.00114
       6 <- 33        -0.00047
       6 <- 35         0.00130
       6 <- 40         0.00090
       6 <- 49        -0.00105
       6 <- 50         0.00023
       7 <- 27         0.00036
       7 <- 38        -0.00065
       7 <- 45        -0.00169
       8 <- 10        -0.00082
       8 <- 11        -0.00184
       8 <- 14        -0.00362
       8 <- 16         0.00041
       8 <- 19         0.00533
       8 <- 20         0.00015
       8 <- 21        -0.00195
       8 <- 24        -0.00047
       8 <- 26        -0.00165
       8 <- 28         0.00060
       8 <- 32        -0.00128
       8 <- 34         0.00163
       8 <- 39        -0.00072
       8 <- 41        -0.00102
       8 <- 43         0.00018
       8 <- 46         0.00190
       8 <- 47        -0.00030
       8 <- 51        -0.00073

 Excited State   4:      Singlet-A1     7.9417 eV  156.12 nm  f=0.0377  <S**2>=0.000
       3 -> 10         0.00227
       3 -> 11        -0.00015
       3 -> 14         0.00141
       3 -> 19        -0.00237
       3 -> 20         0.00219
       3 -> 21         0.00114
       3 -> 24         0.00091
       3 -> 26         0.00142
       3 -> 28         0.00084
       3 -> 32         0.00020
       3 -> 34        -0.00091
       3 -> 36        -0.00017
       3 -> 39         0.00010
       3 -> 41        -0.00019
       3 -> 46         0.00022
       3 -> 47        -0.00029
       3 -> 51        -0.00014
       3 -> 54        -0.00016
       4 -> 10         0.00515
       4 -> 11         0.00392
       4 -> 14         0.00459
       4 -> 16         0.00070
       4 -> 19         0.00038
       4 -> 20         0.00302
       4 -> 21        -0.00065
       4 -> 24        -0.00683
       4 -> 26         0.00232
       4 -> 28        -0.00025
       4 -> 32        -0.00063
       4 -> 34         0.00031
       4 -> 36         0.00010
       4 -> 43         0.00016
       4 -> 46        -0.00020
       4 -> 51        -0.00013
       5 -> 12         0.00576
       5 -> 15         0.00398
       5 -> 18         0.00889
       5 -> 22        -0.00268
       5 -> 25         0.00564
       5 -> 30        -0.00041
       5 -> 33        -0.00025
       5 -> 35         0.00074
       5 -> 50         0.00014
       5 -> 53        -0.00012
       6 -> 10         0.00990
       6 -> 11        -0.00289
       6 -> 14         0.00373
       6 -> 16        -0.00093
       6 -> 19         0.00300
       6 -> 20         0.00096
       6 -> 21        -0.00197
       6 -> 24        -0.00515
       6 -> 26        -0.00072
       6 -> 28        -0.00251
       6 -> 32        -0.00023
       6 -> 34        -0.00020
       6 -> 39         0.00022
       6 -> 43         0.00016
       6 -> 47         0.00073
       6 -> 51         0.00020
       6 -> 54        -0.00012
       7 ->  9         0.04272
       7 -> 13         0.01287
       7 -> 17        -0.00017
       7 -> 23         0.00521
       7 -> 29        -0.00102
       7 -> 31        -0.00101
       7 -> 37         0.00058
       7 -> 44         0.00059
       7 -> 48        -0.00030
       8 -> 12         0.70481
       8 -> 15         0.00508
       8 -> 18         0.02883
       8 -> 22         0.00142
       8 -> 25         0.00499
       8 -> 30        -0.00119
       8 -> 33         0.00179
       8 -> 35        -0.00210
       8 -> 40         0.00029
       8 -> 49        -0.00047
       8 -> 50         0.00024
       8 -> 53        -0.00027
       3 <- 10         0.00070
       3 <- 11         0.00053
       3 <- 14         0.00074
       3 <- 16         0.00016
       3 <- 19        -0.00142
       3 <- 20         0.00095
       3 <- 21         0.00078
       3 <- 24         0.00028
       3 <- 26         0.00098
       3 <- 28         0.00056
       3 <- 32         0.00031
       3 <- 34        -0.00062
       3 <- 36        -0.00011
       3 <- 41        -0.00010
       3 <- 46         0.00030
       3 <- 47        -0.00022
       3 <- 51        -0.00012
       3 <- 54        -0.00014
       4 <- 10         0.00401
       4 <- 11         0.00067
       4 <- 14         0.00329
       4 <- 20         0.00174
       4 <- 21        -0.00051
       4 <- 24        -0.00368
       4 <- 26         0.00141
       4 <- 32        -0.00083
       4 <- 34        -0.00011
       4 <- 41        -0.00014
       4 <- 43         0.00013
       4 <- 46        -0.00014
       4 <- 51        -0.00011
       5 <- 12         0.00281
       5 <- 15         0.00318
       5 <- 18         0.00319
       5 <- 22        -0.00104
       5 <- 25         0.00307
       5 <- 30        -0.00021
       5 <- 33        -0.00039
       5 <- 35         0.00066
       5 <- 53        -0.00010
       6 <- 10         0.00233
       6 <- 11        -0.00013
       6 <- 14         0.00142
       6 <- 16        -0.00035
       6 <- 19         0.00085
       6 <- 20         0.00045
       6 <- 21        -0.00111
       6 <- 24        -0.00248
       6 <- 26        -0.00024
       6 <- 28        -0.00163
       6 <- 32        -0.00031
       6 <- 34        -0.00021
       6 <- 39         0.00010
       6 <- 46        -0.00017
       6 <- 47         0.00060
       6 <- 51         0.00022
       6 <- 54        -0.00011
       7 <-  9        -0.00362
       7 <- 13         0.00265
       7 <- 17        -0.00057
       7 <- 23         0.00267
       7 <- 29        -0.00082
       7 <- 31        -0.00065
       7 <- 37         0.00044
       7 <- 44         0.00050
       7 <- 48        -0.00028
       8 <- 12        -0.00031
       8 <- 15        -0.00314
       8 <- 18        -0.00166
       8 <- 22        -0.00020
       8 <- 25        -0.00120
       8 <- 30        -0.00135
       8 <- 33         0.00068
       8 <- 35        -0.00078
       8 <- 40         0.00039
       8 <- 49        -0.00045
       8 <- 50         0.00015
       8 <- 53        -0.00027

 Excited State   5:      Singlet-B1     8.2299 eV  150.65 nm  f=0.0012  <S**2>=0.000
       3 ->  9        -0.03346
       3 -> 13         0.00485
       3 -> 17        -0.00695
       3 -> 23         0.00391
       3 -> 29        -0.00251
       3 -> 31        -0.00028
       3 -> 44         0.00064
       3 -> 48         0.00019
       3 -> 52         0.00113
       4 ->  9         0.01682
       4 -> 13        -0.00276
       4 -> 17         0.00097
       4 -> 23        -0.00249
       4 -> 31        -0.00246
       4 -> 37        -0.00041
       4 -> 48        -0.00161
       4 -> 52        -0.00096
       5 -> 27        -0.00170
       5 -> 38         0.00210
       5 -> 45         0.00280
       6 ->  9         0.70509
       6 -> 13        -0.03417
       6 -> 17         0.02258
       6 -> 23        -0.01241
       6 -> 29         0.00783
       6 -> 31         0.00372
       6 -> 37        -0.00262
       6 -> 44        -0.00352
       6 -> 48         0.00553
       6 -> 52         0.00195
       7 -> 10         0.00287
       7 -> 11         0.00815
       7 -> 14         0.00039
       7 -> 16        -0.01248
       7 -> 19        -0.00360
       7 -> 20         0.00258
       7 -> 21         0.00375
       7 -> 24         0.00276
       7 -> 26         0.00231
       7 -> 28        -0.00469
       7 -> 32        -0.00130
       7 -> 36        -0.00156
       7 -> 39         0.00031
       7 -> 41        -0.00211
       7 -> 43         0.00103
       7 -> 46         0.00496
       7 -> 47         0.00232
       7 -> 51         0.00109
       7 -> 54         0.00055
       8 -> 27         0.00293
       8 -> 38         0.00098
       8 -> 45         0.00683
       3 <-  9        -0.01041
       3 <- 13         0.00076
       3 <- 17        -0.00337
       3 <- 23         0.00050
       3 <- 29        -0.00150
       3 <- 31        -0.00016
       3 <- 37        -0.00016
       3 <- 44        -0.00011
       3 <- 48         0.00048
       3 <- 52         0.00091
       4 <-  9         0.00537
       4 <- 17         0.00250
       4 <- 23        -0.00031
       4 <- 29         0.00224
       4 <- 31        -0.00241
       4 <- 37         0.00019
       4 <- 44         0.00020
       4 <- 48        -0.00138
       4 <- 52        -0.00052
       5 <- 27        -0.00171
       5 <- 38         0.00159

 The electronic state is 1-A1.
 Alpha  occ. eigenvalues --  -19.15606 -10.29106  -1.03723  -0.65717  -0.49756
 Alpha  occ. eigenvalues --   -0.45468  -0.39149  -0.28621
 Alpha virt. eigenvalues --   -0.08412   0.00539   0.03713   0.04217   0.06338
 Alpha virt. eigenvalues --    0.12556   0.16990   0.18735   0.21908   0.23454
 Alpha virt. eigenvalues --    0.25525   0.31229   0.43460   0.45145   0.50921

 Mulliken charges:
               1
     1  C    0.001182
     2  H    0.130632
     3  H    0.130632
     4  O   -0.262446
 Sum of Mulliken charges =  -0.00000

 Dipole moment (field-independent basis, Debye):
    X=             -0.0000    Y=             -0.0000    Z=             -2.8175  Tot=              2.8175
 Quadrupole moment (field-independent basis, Debye-Ang):
   XX=            -11.9788   YY=            -11.7306   ZZ=            -12.2315
   XY=              0.0000   XZ=              0.0000   YZ=             -0.0000

 Normal termination of Gaussian 16 at Fri Sep 17 10:52:47 2021.
