 Gaussian 16, Revision C.01,
 Gaussian 16:  ES64L-G16RevC.01  3-Jul-2019

 ----------------------------------------
 #P wB97XD/6-311+G* NoSymm #P Field=X+282
 ----------------------------------------

 -------
 TitleMe
 -------
 Symbolic Z-matrix:
 Charge =  1 Multiplicity = 1

                          Input orientation:
 ---------------------------------------------------------------------
 Center     Atomic      Atomic             Coordinates (Angstroms)
 Number     Number       Type             X           Y           Z
 ---------------------------------------------------------------------
      1          6           0        0.519300    1.233000   -0.031900
      2          6           0        1.944500    1.269200   -0.036700
      3          6           0        2.620400    0.092800   -0.025000
      4          6           0       -0.196000    0.030100    0.001000
      5          1           0       -0.020700    2.174200   -0.043400
      6          1           0        2.482800    2.208900   -0.036100
      7          1           0       -1.277700    0.039900    0.011700
      8          7           0        4.092100    0.095900    0.036600
      9          8           0        4.639300   -1.021700    0.144600
     10          8           0        4.664900    1.198400   -0.023300
     11          6           0        0.494300   -1.167100    0.021000
     12          1           0       -0.032500   -2.114900    0.054500
     13          6           0        1.962900   -1.216500   -0.021100
     14          1           0        2.443600   -1.963100    0.615100
     15         35           0        2.173000   -1.949100   -1.906200
 ---------------------------------------------------------------------

 SCF Done:  E(RwB97XD) =  -3010.54594281     A.U. after   19 cycles

 Alpha  occ. eigenvalues -- -483.41297 -62.96333 -56.76005 -56.75466 -56.75455
 Alpha  occ. eigenvalues --  -19.63837 -19.63680 -15.02695 -10.69684 -10.68347
 Alpha  occ. eigenvalues --  -10.65443 -10.64926 -10.64320 -10.59445  -9.12149
 Alpha  occ. eigenvalues --   -6.94772  -6.92993  -6.92961  -3.04689  -3.04221
 Alpha  occ. eigenvalues --   -3.04194  -3.02771  -3.02770  -1.67356  -1.50486
 Alpha  occ. eigenvalues --   -1.32706  -1.23523  -1.22123  -1.15034  -1.11468
 Alpha  occ. eigenvalues --   -1.04508  -1.02170  -0.98698  -0.97147  -0.95799
 Alpha  occ. eigenvalues --   -0.90625  -0.88149  -0.85918  -0.85566  -0.81477
 Alpha  occ. eigenvalues --   -0.76022  -0.75836  -0.75209  -0.74551  -0.73827
 Alpha  occ. eigenvalues --   -0.72436  -0.69149  -0.66705  -0.64704
 Alpha virt. eigenvalues --   -0.40567  -0.34446  -0.26019  -0.24897  -0.23378
 Alpha virt. eigenvalues --   -0.21639  -0.19769  -0.18820  -0.17411  -0.15044
 Alpha virt. eigenvalues --   -0.14223  -0.12970  -0.12394  -0.11003  -0.10347

 Mulliken charges:
               1
     1  C   -0.153094
     2  C    0.150674
     3  C   -0.203561
     4  C   -0.275148
     5  H    0.414205
     6  H    0.318279
     7  H    0.451687
     8  N   -0.241645
     9  O   -0.023295
    10  O   -0.067969
    11  C   -0.136865
    12  H    0.425048
    13  C   -0.173956
    14  H    0.378751
    15  Br   0.136887
 Sum of Mulliken charges =   1.00000

 Dipole moment (field-independent basis, Debye):
    X=             -5.4331    Y=             -0.5384    Z=             -0.3972  Tot=              5.4741
 Quadrupole moment (field-independent basis, Debye-Ang):
   XX=           -101.6398   YY=            -51.7869   ZZ=            -63.0946
   XY=             -0.9121   XZ=             -0.3974   YZ=              1.6146

 Normal termination of Gaussian 16 at Thu May  2 14:18:18 2024.
