 Gaussian 16, Revision C.01,
 Gaussian 16:  ES64L-G16RevC.01  3-Jul-2019

 ---------------------------------------
 #P wB97XD/6-311+G* NoSymm #P Field=X+58
 ---------------------------------------

 -------
 TitleMe
 -------
 Symbolic Z-matrix:
 Charge =  1 Multiplicity = 1

                          Input orientation:
 ---------------------------------------------------------------------
 Center     Atomic      Atomic             Coordinates (Angstroms)
 Number     Number       Type             X           Y           Z
 ---------------------------------------------------------------------
      1          6           0        0.519300    1.233000   -0.031900
      2          6           0        1.944500    1.269200   -0.036700
      3          6           0        2.620400    0.092800   -0.025000
      4          6           0       -0.196000    0.030100    0.001000
      5          1           0       -0.020700    2.174200   -0.043400
      6          1           0        2.482800    2.208900   -0.036100
      7          1           0       -1.277700    0.039900    0.011700
      8          7           0        4.092100    0.095900    0.036600
      9          8           0        4.639300   -1.021700    0.144600
     10          8           0        4.664900    1.198400   -0.023300
     11          6           0        0.494300   -1.167100    0.021000
     12          1           0       -0.032500   -2.114900    0.054500
     13          6           0        1.962900   -1.216500   -0.021100
     14          1           0        2.443600   -1.963100    0.615100
     15         35           0        2.173000   -1.949100   -1.906200
 ---------------------------------------------------------------------

 SCF Done:  E(RwB97XD) =  -3010.52743640     A.U. after   19 cycles

 Alpha  occ. eigenvalues -- -483.33038 -62.88063 -56.67754 -56.67188 -56.67178
 Alpha  occ. eigenvalues --  -19.49817 -19.49772 -14.89137 -10.61205 -10.59986
 Alpha  occ. eigenvalues --  -10.58807 -10.58387 -10.55542 -10.53934  -9.03872
 Alpha  occ. eigenvalues --   -6.86546  -6.84685  -6.84657  -2.96451  -2.95961
 Alpha  occ. eigenvalues --   -2.95937  -2.94449  -2.94449  -1.53462  -1.36461
 Alpha  occ. eigenvalues --   -1.24305  -1.14689  -1.14399  -1.06706  -1.02490
 Alpha  occ. eigenvalues --   -0.97065  -0.92512  -0.87661  -0.83869  -0.82707
 Alpha  occ. eigenvalues --   -0.82382  -0.79729  -0.79096  -0.77476  -0.73746
 Alpha  occ. eigenvalues --   -0.69901  -0.69242  -0.65005  -0.61814  -0.60879
 Alpha  occ. eigenvalues --   -0.60296  -0.59582  -0.58195  -0.56657
 Alpha virt. eigenvalues --   -0.31928  -0.23088  -0.17607  -0.15145  -0.10045
 Alpha virt. eigenvalues --   -0.07488  -0.06750  -0.06313  -0.05720  -0.04454
 Alpha virt. eigenvalues --   -0.03823  -0.03613  -0.03083  -0.02291  -0.01519

 Mulliken charges:
               1
     1  C   -0.116371
     2  C    0.185465
     3  C   -0.105787
     4  C   -0.330586
     5  H    0.360107
     6  H    0.343105
     7  H    0.357764
     8  N   -0.238299
     9  O    0.065827
    10  O    0.041908
    11  C   -0.180917
    12  H    0.370989
    13  C   -0.328489
    14  H    0.404060
    15  Br   0.171223
 Sum of Mulliken charges =   1.00000

 Dipole moment (field-independent basis, Debye):
    X=              1.1347    Y=             -0.8202    Z=             -0.6690  Tot=              1.5517
 Quadrupole moment (field-independent basis, Debye-Ang):
   XX=            -74.3419   YY=            -51.2544   ZZ=            -62.3465
   XY=             -2.5569   XZ=             -2.1027   YZ=              2.2633

 Normal termination of Gaussian 16 at Thu May  2 14:18:22 2024.
