 Gaussian 16, Revision A.03,
 Gaussian 16:  ES64L-G16RevA.03 25-Dec-2016

 --------------------------------------------------------------------
 #p B3LYP/6-311+G** #p TD=(singlets,nstates=30)IOp(6/8=3) IOp(9/40=4)
 --------------------------------------------------------------------

 -------------------------------
 Scan Step 198, Bond Length 1.49
 -------------------------------
 Symbolic Z-matrix:
 Charge =  0 Multiplicity = 1

                         Standard orientation:
 ---------------------------------------------------------------------
 Center     Atomic      Atomic             Coordinates (Angstroms)
 Number     Number       Type             X           Y           Z
 ---------------------------------------------------------------------
      1          6           0        0.000000    0.000000   -0.671081
      2          1           0        0.000000    0.937260   -1.262431
      3          1           0       -0.000000   -0.937260   -1.262431
      4          8           0        0.000000   -0.000000    0.818919
 ---------------------------------------------------------------------

 SCF Done:  E(RB3LYP) =  -114.469025422     A.U. after   10 cycles

 Excitation energies and oscillator strengths:

 Excited State   1:      Singlet-A2     2.4335 eV  509.50 nm  f=0.0000  <S**2>=0.000
       3 -> 27         0.00150
       3 -> 38         0.00117
       3 -> 46         0.00316
       4 -> 27         0.00094
       4 -> 38        -0.00022
       4 -> 46        -0.00139
       5 ->  9         0.01141
       5 -> 13         0.00050
       5 -> 18         0.00363
       5 -> 23         0.00152
       5 -> 28         0.00323
       5 -> 31        -0.00043
       5 -> 37         0.00186
       5 -> 44         0.00040
       5 -> 52         0.00045
       6 -> 27        -0.00059
       6 -> 38        -0.00084
       6 -> 46         0.00152
       7 -> 12        -0.00077
       7 -> 15         0.00434
       7 -> 19        -0.00373
       7 -> 22        -0.00048
       7 -> 25         0.00113
       7 -> 30        -0.00135
       7 -> 33         0.00041
       7 -> 42        -0.00010
       7 -> 49         0.00014
       7 -> 50         0.00021
       7 -> 53         0.00047
       8 ->  9         0.70770
       8 -> 13        -0.01812
       8 -> 18         0.02194
       8 -> 23        -0.00514
       8 -> 28         0.01103
       8 -> 31         0.00040
       8 -> 37         0.00064
       8 -> 48        -0.00030
       8 -> 52         0.00193
       3 <- 27         0.00079
       3 <- 38         0.00088
       3 <- 46         0.00322
       4 <- 27         0.00156
       4 <- 38         0.00022
       4 <- 46        -0.00113
       5 <-  9        -0.00046
       5 <- 13        -0.00062
       5 <- 18        -0.00083
       5 <- 23         0.00034
       5 <- 28        -0.00058
       5 <- 31         0.00045
       5 <- 37         0.00100
       5 <- 44         0.00014
       5 <- 52         0.00012
       6 <- 38        -0.00071
       6 <- 46         0.00118
       7 <- 12         0.00013
       7 <- 15        -0.00951
       7 <- 19         0.00279
       7 <- 22         0.00727
       7 <- 25         0.00042
       7 <- 30         0.00493
       7 <- 33        -0.00072
       7 <- 35         0.00128
       7 <- 40         0.00066
       7 <- 42         0.00011
       7 <- 49        -0.00029
       7 <- 50         0.00014
       7 <- 53         0.00144
       8 <-  9        -0.04218
       8 <- 13         0.00102
       8 <- 18        -0.00596
       8 <- 23         0.00041
       8 <- 28        -0.00206
       8 <- 31        -0.00055
       8 <- 37        -0.00066
       8 <- 52         0.00052
 This state for optimization and/or second-order correction.
 Total Energy, E(TD-HF/TD-DFT) =  -114.379597183
 Copying the excited state density for this state as the 1-particle RhoCI density.

 Excited State   2:      Singlet-A1     6.1273 eV  202.35 nm  f=0.1061  <S**2>=0.000
       3 -> 10         0.00914
       3 -> 11        -0.01668
       3 -> 14         0.01173
       3 -> 16         0.01789
       3 -> 17        -0.00404
       3 -> 20        -0.00287
       3 -> 21        -0.00293
       3 -> 24         0.00407
       3 -> 26         0.00592
       3 -> 29        -0.00045
       3 -> 32         0.00282
       3 -> 34         0.00353
       3 -> 36         0.00029
       3 -> 39         0.00109
       3 -> 43         0.00046
       3 -> 45         0.00110
       3 -> 47         0.00185
       3 -> 51         0.00066
       3 -> 54         0.00028
       4 -> 10         0.01961
       4 -> 11         0.01037
       4 -> 14         0.01171
       4 -> 16        -0.00742
       4 -> 17         0.00335
       4 -> 20         0.00758
       4 -> 21         0.00031
       4 -> 24        -0.00618
       4 -> 26         0.00579
       4 -> 29         0.00115
       4 -> 32        -0.00122
       4 -> 34        -0.00248
       4 -> 36        -0.00015
       4 -> 39        -0.00019
       4 -> 41         0.00014
       4 -> 43        -0.00028
       4 -> 45         0.00015
       4 -> 47        -0.00165
       4 -> 51        -0.00025
       5 -> 12         0.02320
       5 -> 15         0.01909
       5 -> 19         0.00167
       5 -> 22         0.00595
       5 -> 25         0.01067
       5 -> 30        -0.00129
       5 -> 33        -0.00333
       5 -> 35         0.00247
       5 -> 40         0.00161
       5 -> 42         0.00063
       5 -> 49         0.00059
       5 -> 50        -0.00057
       5 -> 53        -0.00022
       6 -> 10        -0.06667
       6 -> 11         0.09695
       6 -> 14        -0.06412
       6 -> 16        -0.11726
       6 -> 17        -0.01927
       6 -> 20        -0.02120
       6 -> 21         0.02069
       6 -> 24        -0.01901
       6 -> 26        -0.00966
       6 -> 29        -0.00955
       6 -> 34         0.00207
       6 -> 36        -0.00146
       6 -> 39         0.00051
       6 -> 41        -0.00066
       6 -> 43         0.00065
       6 -> 45        -0.00018
       6 -> 47         0.00171
       6 -> 51         0.00083
       6 -> 54        -0.00045
       7 ->  9         0.68614
       7 -> 13         0.00946
       7 -> 18        -0.02329
       7 -> 23         0.00284
       7 -> 28        -0.00328
       7 -> 31        -0.00253
       7 -> 37         0.00050
       7 -> 44        -0.00103
       7 -> 48         0.00056
       7 -> 52         0.00103
       8 -> 12        -0.00389
       8 -> 15         0.09711
       8 -> 19        -0.02649
       8 -> 22        -0.03671
       8 -> 25         0.00166
       8 -> 30        -0.01408
       8 -> 33         0.00368
       8 -> 35        -0.00464
       8 -> 40        -0.00206
       8 -> 42        -0.00034
       8 -> 49         0.00069
       8 -> 50         0.00030
       8 -> 53        -0.00086
       3 <- 10         0.00548
       3 <- 11        -0.01070
       3 <- 14         0.00830
       3 <- 16         0.01199
       3 <- 17        -0.00203
       3 <- 20        -0.00181
       3 <- 21        -0.00283
       3 <- 24         0.00272
       3 <- 26         0.00374
       3 <- 29        -0.00020
       3 <- 32         0.00258
       3 <- 34         0.00235
       3 <- 36         0.00011
       3 <- 39         0.00088
       3 <- 41         0.00012
       3 <- 43         0.00051
       3 <- 45         0.00099
       3 <- 47         0.00207
       3 <- 51         0.00063
       3 <- 54         0.00035
       4 <- 10         0.00909
       4 <- 11         0.00581
       4 <- 14         0.00552
       4 <- 16        -0.00440
       4 <- 17         0.00151
       4 <- 20         0.00537
       4 <- 21         0.00029
       4 <- 24        -0.00392
       4 <- 26         0.00428
       4 <- 29         0.00026
       4 <- 32        -0.00159
       4 <- 34        -0.00214
       4 <- 39        -0.00024
       4 <- 43        -0.00028
       4 <- 45         0.00049
       4 <- 47        -0.00132
       5 <- 12         0.00854
       5 <- 15         0.00841
       5 <- 19         0.00108
       5 <- 22         0.00334
       5 <- 25         0.00663
       5 <- 30        -0.00071
       5 <- 33        -0.00247
       5 <- 35         0.00196
       5 <- 40         0.00137
       5 <- 42         0.00050
       5 <- 49         0.00050
       5 <- 50        -0.00051
       5 <- 53        -0.00020
       6 <- 10        -0.01665
       6 <- 11         0.02600
       6 <- 14        -0.02216
       6 <- 16        -0.04505
       6 <- 17        -0.00810
       6 <- 20        -0.01099
       6 <- 21         0.01091
       6 <- 24        -0.01087
       6 <- 26        -0.00568
       6 <- 29        -0.00622
       6 <- 32         0.00054
       6 <- 34         0.00224
       6 <- 36        -0.00111
       6 <- 39         0.00065
       6 <- 41        -0.00044
       6 <- 43         0.00057
       6 <- 45        -0.00039
       6 <- 47         0.00125
       6 <- 51         0.00064
       6 <- 54        -0.00036
       7 <-  9        -0.11450
       7 <- 13         0.00990
       7 <- 18        -0.01465
       7 <- 23         0.00535
       7 <- 28        -0.00505
       7 <- 31        -0.00095
       7 <- 44        -0.00052
       7 <- 52         0.00087
       8 <- 12        -0.00059
       8 <- 15         0.02671
       8 <- 19        -0.00918
       8 <- 22        -0.01745
       8 <- 25         0.00053
       8 <- 30        -0.00947
       8 <- 33         0.00261
       8 <- 35        -0.00339
       8 <- 40        -0.00163
       8 <- 42        -0.00027
       8 <- 49         0.00048
       8 <- 50         0.00024
       8 <- 53        -0.00077

 Excited State   3:      Singlet-B1     6.2618 eV  198.00 nm  f=0.0015  <S**2>=0.000
       3 ->  9        -0.03152
       3 -> 13         0.00250
       3 -> 18        -0.00547
       3 -> 23         0.00236
       3 -> 28        -0.00135
       3 -> 31        -0.00050
       3 -> 44         0.00034
       3 -> 48         0.00077
       3 -> 52         0.00105
       4 ->  9         0.01497
       4 -> 13        -0.00271
       4 -> 18         0.00048
       4 -> 23        -0.00248
       4 -> 28         0.00020
       4 -> 31        -0.00177
       4 -> 37        -0.00045
       4 -> 48        -0.00132
       4 -> 52        -0.00073
       5 -> 27        -0.00068
       5 -> 38         0.00199
       5 -> 46         0.00140
       6 ->  9         0.70601
       6 -> 13        -0.02323
       6 -> 18         0.01858
       6 -> 23        -0.01151
       6 -> 28         0.00519
       6 -> 31         0.00373
       6 -> 37        -0.00241
       6 -> 44        -0.00322
       6 -> 48         0.00463
       6 -> 52         0.00165
       7 -> 10        -0.00901
       7 -> 11         0.01192
       7 -> 14        -0.00752
       7 -> 16        -0.00742
       7 -> 17        -0.00995
       7 -> 20         0.00231
       7 -> 21        -0.00079
       7 -> 24         0.00014
       7 -> 26        -0.00082
       7 -> 29        -0.00429
       7 -> 32        -0.00098
       7 -> 36         0.00181
       7 -> 39         0.00012
       7 -> 41        -0.00097
       7 -> 43         0.00068
       7 -> 45         0.00260
       7 -> 47         0.00397
       7 -> 51         0.00115
       7 -> 54         0.00053
       8 -> 27         0.00106
       8 -> 38         0.00031
       8 -> 46         0.00597
       3 <-  9        -0.01034
       3 <- 13        -0.00028
       3 <- 18        -0.00314
       3 <- 23        -0.00032
       3 <- 28        -0.00090
       3 <- 31        -0.00057
       3 <- 44        -0.00026
       3 <- 48         0.00098
       3 <- 52         0.00083
       4 <-  9         0.00652
       4 <- 18         0.00222
       4 <- 23        -0.00041
       4 <- 28         0.00194
       4 <- 31        -0.00130
       4 <- 37        -0.00014
       4 <- 44         0.00016
       4 <- 48        -0.00114
       4 <- 52        -0.00041
       5 <- 27        -0.00110
       5 <- 38         0.00156
       5 <- 46         0.00125
       6 <-  9        -0.02310
       6 <- 13         0.00186
       6 <- 18        -0.00305
       6 <- 23        -0.00019
       6 <- 28        -0.00307
       6 <- 31         0.00181
       6 <- 37        -0.00219
       6 <- 44        -0.00189
       6 <- 48         0.00412
       6 <- 52         0.00060
       7 <- 10         0.00572
       7 <- 11        -0.00870
       7 <- 14         0.00722
       7 <- 16         0.01696
       7 <- 17         0.00034
       7 <- 20         0.00590
       7 <- 21        -0.00527
       7 <- 24         0.00492
       7 <- 26         0.00217
       7 <- 29         0.00071
       7 <- 32        -0.00069
       7 <- 34        -0.00064
       7 <- 36         0.00285
       7 <- 39         0.00039
       7 <- 41        -0.00056
       7 <- 43         0.00059
       7 <- 45         0.00249
       7 <- 47         0.00351
       7 <- 51         0.00091
       7 <- 54         0.00110
       8 <- 27         0.00139
       8 <- 38         0.00047
       8 <- 46         0.00547

 Excited State   4:      Singlet-B2     6.8212 eV  181.76 nm  f=0.0161  <S**2>=0.000
       3 -> 12         0.00186
       3 -> 15        -0.00056
       3 -> 19         0.00279
       3 -> 22        -0.00029
       3 -> 25         0.00058
       3 -> 30         0.00158
       3 -> 33         0.00038
       3 -> 35        -0.00138
       3 -> 40        -0.00099
       3 -> 42        -0.00012
       3 -> 49         0.00120
       3 -> 50        -0.00016
       3 -> 53        -0.00019
       4 -> 12        -0.00104
       4 -> 15         0.00272
       4 -> 19         0.00108
       4 -> 22        -0.00345
       4 -> 25         0.00289
       4 -> 30        -0.00053
       4 -> 33         0.00024
       4 -> 35        -0.00017
       4 -> 40         0.00046
       4 -> 42        -0.00010
       4 -> 49        -0.00017
       5 -> 10        -0.00518
       5 -> 11        -0.00137
       5 -> 14         0.01270
       5 -> 16         0.00424
       5 -> 17        -0.00161
       5 -> 20        -0.00038
       5 -> 21        -0.00623
       5 -> 24        -0.00166
       5 -> 26         0.00201
       5 -> 29         0.00147
       5 -> 32        -0.00023
       5 -> 34         0.00119
       5 -> 36         0.00054
       5 -> 39         0.00040
       5 -> 41        -0.00078
       5 -> 43        -0.00016
       5 -> 45         0.00023
       5 -> 47         0.00045
       5 -> 51        -0.00029
       5 -> 54         0.00017
       6 -> 12        -0.00315
       6 -> 15         0.00099
       6 -> 19        -0.00114
       6 -> 22        -0.00099
       6 -> 25         0.00070
       6 -> 30         0.00012
       6 -> 33        -0.00047
       6 -> 35         0.00171
       6 -> 40         0.00103
       6 -> 49        -0.00056
       6 -> 53         0.00016
       7 -> 27         0.00024
       7 -> 38        -0.00098
       7 -> 46        -0.00177
       8 -> 10         0.69325
       8 -> 11        -0.11076
       8 -> 14         0.06161
       8 -> 16         0.05493
       8 -> 17         0.00246
       8 -> 20         0.01070
       8 -> 21        -0.00105
       8 -> 24         0.00255
       8 -> 26         0.00474
       8 -> 29         0.00494
       8 -> 32         0.00123
       8 -> 34         0.00048
       8 -> 36         0.00040
       8 -> 39         0.00033
       8 -> 41        -0.00048
       8 -> 43         0.00067
       8 -> 45         0.00160
       8 -> 47         0.00144
       8 -> 51        -0.00118
       8 -> 54         0.00069
       3 <- 12         0.00050
       3 <- 19         0.00125
       3 <- 22        -0.00073
       3 <- 25         0.00023
       3 <- 30         0.00057
       3 <- 33         0.00034
       3 <- 35        -0.00115
       3 <- 40        -0.00091
       3 <- 49         0.00125
       3 <- 50        -0.00013
       3 <- 53        -0.00044
       4 <- 12         0.00065
       4 <- 15         0.00234
       4 <- 19         0.00108
       4 <- 22        -0.00252
       4 <- 25         0.00182
       4 <- 30        -0.00043
       4 <- 33         0.00034
       4 <- 35        -0.00036
       4 <- 40         0.00011
       4 <- 42        -0.00020
       4 <- 49        -0.00013
       5 <- 10         0.00190
       5 <- 11         0.00079
       5 <- 14         0.00421
       5 <- 16        -0.00176
       5 <- 17        -0.00028
       5 <- 21        -0.00162
       5 <- 24        -0.00272
       5 <- 26         0.00105
       5 <- 29         0.00034
       5 <- 32        -0.00071
       5 <- 34         0.00063
       5 <- 36         0.00012
       5 <- 41        -0.00068
       5 <- 43        -0.00022
       5 <- 45         0.00038
       5 <- 47         0.00020
       5 <- 51        -0.00013
       6 <- 12        -0.00028
       6 <- 15        -0.00241
       6 <- 19         0.00127
       6 <- 22         0.00148
       6 <- 25         0.00024
       6 <- 30         0.00213
       6 <- 33        -0.00059
       6 <- 35         0.00166
       6 <- 40         0.00097
       6 <- 49        -0.00059
       6 <- 50        -0.00011
       6 <- 53         0.00050
       7 <- 27         0.00030
       7 <- 38        -0.00074
       7 <- 46        -0.00141
       8 <- 10        -0.00342
       8 <- 11         0.00512
       8 <- 14        -0.00610
       8 <- 16        -0.00482
       8 <- 17        -0.00031
       8 <- 20         0.00052
       8 <- 21         0.00189
       8 <- 26        -0.00156
       8 <- 29         0.00033
       8 <- 32        -0.00051
       8 <- 34        -0.00059
       8 <- 36        -0.00038
       8 <- 39        -0.00062
       8 <- 41        -0.00041
       8 <- 43         0.00015
       8 <- 45         0.00172
       8 <- 47         0.00074
       8 <- 51        -0.00062
       8 <- 54         0.00017

 Excited State   5:      Singlet-B2     7.2771 eV  170.38 nm  f=0.0153  <S**2>=0.000
       3 -> 12         0.00073
       3 -> 15         0.00201
       3 -> 19        -0.00214
       3 -> 22        -0.00046
       3 -> 25         0.00077
       3 -> 30        -0.00354
       3 -> 33        -0.00012
       3 -> 35         0.00120
       3 -> 40         0.00098
       3 -> 49        -0.00129
       3 -> 50         0.00013
       4 -> 12        -0.00164
       4 -> 15        -0.00065
       4 -> 19         0.00031
       4 -> 22         0.00074
       4 -> 25        -0.00096
       4 -> 30         0.00185
       4 -> 33        -0.00043
       4 -> 35         0.00064
       4 -> 50        -0.00013
       5 -> 10        -0.00572
       5 -> 11         0.00185
       5 -> 14        -0.00797
       5 -> 16         0.00447
       5 -> 17         0.00298
       5 -> 20         0.00317
       5 -> 21         0.00321
       5 -> 24         0.00039
       5 -> 26        -0.00151
       5 -> 29        -0.00126
       5 -> 32        -0.00139
       5 -> 34        -0.00031
       5 -> 36        -0.00074
       5 -> 39        -0.00088
       5 -> 41         0.00031
       5 -> 43        -0.00036
       5 -> 45        -0.00071
       5 -> 47        -0.00060
       5 -> 51         0.00050
       6 -> 12         0.00093
       6 -> 19         0.00117
       6 -> 22        -0.00103
       6 -> 30        -0.00126
       6 -> 33         0.00030
       6 -> 35        -0.00121
       6 -> 40        -0.00137
       6 -> 42        -0.00024
       6 -> 49         0.00178
       6 -> 50        -0.00014
       6 -> 53        -0.00019
       7 -> 27        -0.00077
       7 -> 38         0.00035
       7 -> 46         0.00294
       8 -> 10         0.11891
       8 -> 11         0.69240
       8 -> 14        -0.03129
       8 -> 16        -0.07193
       8 -> 17        -0.00586
       8 -> 20         0.01387
       8 -> 21         0.00351
       8 -> 24        -0.00449
       8 -> 26        -0.00061
       8 -> 29        -0.00530
       8 -> 32        -0.00061
       8 -> 34        -0.00083
       8 -> 36        -0.00105
       8 -> 39         0.00012
       8 -> 41         0.00044
       8 -> 43        -0.00018

 The electronic state is 1-A1.
 Alpha  occ. eigenvalues --  -19.16763 -10.31674  -0.95730  -0.68479  -0.48835
 Alpha  occ. eigenvalues --   -0.42916  -0.34707  -0.29009
 Alpha virt. eigenvalues --   -0.12761  -0.00270   0.02496   0.04123   0.06165
 Alpha virt. eigenvalues --    0.11038   0.15190   0.15767   0.18956   0.21600
 Alpha virt. eigenvalues --    0.23875   0.30061   0.39882   0.42245   0.50979

 Mulliken charges:
               1
     1  C   -0.039916
     2  H    0.167154
     3  H    0.167154
     4  O   -0.294391
 Sum of Mulliken charges =   0.00000

 Dipole moment (field-independent basis, Debye):
    X=             -0.0000    Y=             -0.0000    Z=             -3.4953  Tot=              3.4953
 Quadrupole moment (field-independent basis, Debye-Ang):
   XX=            -12.5129   YY=            -11.8148   ZZ=            -11.6365
   XY=              0.0000   XZ=              0.0000   YZ=             -0.0000

 Normal termination of Gaussian 16 at Fri Sep 17 10:52:53 2021.
