 Gaussian 16, Revision C.01,
 Gaussian 16:  ES64L-G16RevC.01  3-Jul-2019

 ---------------------------------------
 #P wB97XD/6-311+G* NoSymm #P Field=Y-68
 ---------------------------------------

 -------
 TitleMe
 -------
 Symbolic Z-matrix:
 Charge =  1 Multiplicity = 1

                          Input orientation:
 ---------------------------------------------------------------------
 Center     Atomic      Atomic             Coordinates (Angstroms)
 Number     Number       Type             X           Y           Z
 ---------------------------------------------------------------------
      1          6           0        0.029500    1.339700    0.068200
      2          6           0        1.434800    1.286700    0.006400
      3          6           0        2.111800    0.051100   -0.005400
      4          6           0        1.445100   -1.137200    0.031200
      5          6           0       -0.687900    0.168200    0.110000
      6          1           0       -0.471300    2.298400    0.078100
      7          1           0        2.027300    2.196500   -0.032200
      8          1           0        1.989700   -2.076400    0.023200
      9          1           0       -1.771600    0.180400    0.158200
     10          7           0        3.586400    0.051000   -0.067500
     11          8           0        4.147100   -1.059700   -0.088100
     12          8           0        4.145000    1.163900   -0.090100
     13          6           0       -0.023600   -1.145800    0.083500
     14          1           0       -0.436700   -1.872500    0.788900
     15         35           0       -0.535900   -1.869700   -1.740800
 ---------------------------------------------------------------------

 SCF Done:  E(RwB97XD) =  -3010.53638690     A.U. after   18 cycles

 Alpha  occ. eigenvalues -- -483.32176 -62.87215 -56.66890 -56.66343 -56.66341
 Alpha  occ. eigenvalues --  -19.45931 -19.45734 -14.85355 -10.59047 -10.57338
 Alpha  occ. eigenvalues --  -10.57250 -10.57226 -10.56589 -10.52466  -9.03032
 Alpha  occ. eigenvalues --   -6.85660  -6.83864  -6.83853  -2.95576  -2.95098
 Alpha  occ. eigenvalues --   -2.95087  -2.93650  -2.93650  -1.49621  -1.32593
 Alpha  occ. eigenvalues --   -1.22780  -1.14393  -1.11663  -1.05075  -1.01008
 Alpha  occ. eigenvalues --   -0.95587  -0.90962  -0.85233  -0.80761  -0.80614
 Alpha  occ. eigenvalues --   -0.79990  -0.78503  -0.76068  -0.75822  -0.72544
 Alpha  occ. eigenvalues --   -0.69283  -0.67397  -0.63756  -0.60538  -0.57679
 Alpha  occ. eigenvalues --   -0.57008  -0.56151  -0.55873  -0.55538
 Alpha virt. eigenvalues --   -0.29815  -0.21339  -0.16106  -0.13526  -0.10306
 Alpha virt. eigenvalues --   -0.06802  -0.06219  -0.05874  -0.04711  -0.03531
 Alpha virt. eigenvalues --   -0.03042  -0.02343  -0.02289  -0.01645  -0.01284

 Mulliken charges:
               1
     1  C   -0.563664
     2  C    0.484766
     3  C   -0.681842
     4  C    0.270034
     5  C    0.023773
     6  H    0.361576
     7  H    0.390593
     8  H    0.350686
     9  H    0.352821
    10  N   -0.108315
    11  O   -0.003293
    12  O    0.067135
    13  C   -0.460637
    14  H    0.386464
    15  Br   0.129903
 Sum of Mulliken charges =   1.00000

 Dipole moment (field-independent basis, Debye):
    X=             -0.5940    Y=              1.3667    Z=              0.2333  Tot=              1.5083
 Quadrupole moment (field-independent basis, Debye-Ang):
   XX=            -70.8662   YY=            -52.9210   ZZ=            -63.1957
   XY=              3.4840   XZ=              0.8924   YZ=              0.7679

 Normal termination of Gaussian 16 at Wed May  1 15:04:58 2024.
