 Gaussian 16, Revision C.01,
 Gaussian 16:  ES64L-G16RevC.01  3-Jul-2019

 ---------------------------------------
 #P wB97XD/6-311+G* NoSymm #P Field=X+29
 ---------------------------------------

 -------
 TitleMe
 -------
 Symbolic Z-matrix:
 Charge =  1 Multiplicity = 1

                          Input orientation:
 ---------------------------------------------------------------------
 Center     Atomic      Atomic             Coordinates (Angstroms)
 Number     Number       Type             X           Y           Z
 ---------------------------------------------------------------------
      1          6           0        0.519300    1.233000   -0.031900
      2          6           0        1.944500    1.269200   -0.036700
      3          6           0        2.620400    0.092800   -0.025000
      4          6           0       -0.196000    0.030100    0.001000
      5          1           0       -0.020700    2.174200   -0.043400
      6          1           0        2.482800    2.208900   -0.036100
      7          1           0       -1.277700    0.039900    0.011700
      8          7           0        4.092100    0.095900    0.036600
      9          8           0        4.639300   -1.021700    0.144600
     10          8           0        4.664900    1.198400   -0.023300
     11          6           0        0.494300   -1.167100    0.021000
     12          1           0       -0.032500   -2.114900    0.054500
     13          6           0        1.962900   -1.216500   -0.021100
     14          1           0        2.443600   -1.963100    0.615100
     15         35           0        2.173000   -1.949100   -1.906200
 ---------------------------------------------------------------------

 SCF Done:  E(RwB97XD) =  -3010.52920090     A.U. after   19 cycles

 Alpha  occ. eigenvalues -- -483.32027 -62.87050 -56.66743 -56.66174 -56.66164
 Alpha  occ. eigenvalues --  -19.47993 -19.47962 -14.87364 -10.60158 -10.58945
 Alpha  occ. eigenvalues --  -10.57997 -10.57623 -10.54403 -10.53285  -9.02856
 Alpha  occ. eigenvalues --   -6.85536  -6.83667  -6.83637  -2.95440  -2.94948
 Alpha  occ. eigenvalues --   -2.94923  -2.93428  -2.93428  -1.51657  -1.34637
 Alpha  occ. eigenvalues --   -1.23305  -1.13701  -1.13374  -1.05676  -1.01345
 Alpha  occ. eigenvalues --   -0.96150  -0.91483  -0.86226  -0.82281  -0.81378
 Alpha  occ. eigenvalues --   -0.81204  -0.78740  -0.77706  -0.76481  -0.72804
 Alpha  occ. eigenvalues --   -0.69170  -0.68360  -0.64109  -0.60729  -0.59132
 Alpha  occ. eigenvalues --   -0.58458  -0.57727  -0.57125  -0.55582
 Alpha virt. eigenvalues --   -0.30942  -0.21671  -0.16561  -0.14068  -0.09075
 Alpha virt. eigenvalues --   -0.06597  -0.05870  -0.05342  -0.05008  -0.03731
 Alpha virt. eigenvalues --   -0.03062  -0.02495  -0.02089  -0.01431  -0.00426

 Mulliken charges:
               1
     1  C   -0.112774
     2  C    0.184857
     3  C   -0.090536
     4  C   -0.332591
     5  H    0.352788
     6  H    0.346650
     7  H    0.344353
     8  N   -0.239164
     9  O    0.077104
    10  O    0.055872
    11  C   -0.191219
    12  H    0.363844
    13  C   -0.343915
    14  H    0.407630
    15  Br   0.177102
 Sum of Mulliken charges =   1.00000

 Dipole moment (field-independent basis, Debye):
    X=              1.9583    Y=             -0.8626    Z=             -0.7096  Tot=              2.2544
 Quadrupole moment (field-independent basis, Debye-Ang):
   XX=            -71.0822   YY=            -51.1958   ZZ=            -62.2539
   XY=             -2.7650   XZ=             -2.3315   YZ=              2.3599

 Normal termination of Gaussian 16 at Thu May  2 14:18:33 2024.
