 Gaussian 16, Revision A.03,
 Gaussian 16:  ES64L-G16RevA.03 25-Dec-2016

 --------------------------------------------------------------------
 #p B3LYP/6-311+G** #p TD=(singlets,nstates=30)IOp(6/8=3) IOp(9/40=4)
 --------------------------------------------------------------------

 -------------------------------
 Scan Step 174, Bond Length 1.37
 -------------------------------
 Symbolic Z-matrix:
 Charge =  0 Multiplicity = 1

                         Standard orientation:
 ---------------------------------------------------------------------
 Center     Atomic      Atomic             Coordinates (Angstroms)
 Number     Number       Type             X           Y           Z
 ---------------------------------------------------------------------
      1          6           0        0.000000    0.000000   -0.611081
      2          1           0        0.000000    0.937260   -1.202431
      3          1           0       -0.000000   -0.937260   -1.202431
      4          8           0        0.000000   -0.000000    0.758919
 ---------------------------------------------------------------------

 SCF Done:  E(RB3LYP) =  -114.510490236     A.U. after    9 cycles

 Excitation energies and oscillator strengths:

 Excited State   1:      Singlet-A2     3.0167 eV  410.99 nm  f=0.0000  <S**2>=0.000
       3 -> 27         0.00190
       3 -> 38         0.00156
       3 -> 46         0.00293
       4 -> 27         0.00129
       4 -> 38        -0.00035
       4 -> 46        -0.00141
       5 ->  9         0.01631
       5 -> 13        -0.00052
       5 -> 18         0.00454
       5 -> 23         0.00108
       5 -> 29         0.00398
       5 -> 31        -0.00103
       5 -> 37         0.00250
       5 -> 44         0.00049
       5 -> 48         0.00012
       5 -> 52         0.00059
       6 -> 27        -0.00046
       6 -> 38        -0.00088
       6 -> 46         0.00169
       7 -> 12        -0.00066
       7 -> 15         0.00376
       7 -> 19        -0.00337
       7 -> 25         0.00132
       7 -> 30        -0.00115
       7 -> 33         0.00045
       7 -> 40         0.00010
       7 -> 42        -0.00011
       7 -> 49         0.00018
       7 -> 50         0.00028
       7 -> 53         0.00048
       8 ->  9         0.70684
       8 -> 13        -0.02594
       8 -> 18         0.02230
       8 -> 23        -0.00735
       8 -> 29         0.01058
       8 -> 31        -0.00076
       8 -> 37         0.00049
       8 -> 48        -0.00028
       8 -> 52         0.00186
       3 <- 27         0.00112
       3 <- 38         0.00124
       3 <- 46         0.00301
       4 <- 27         0.00201
       4 <- 38         0.00017
       4 <- 46        -0.00116
       5 <-  9        -0.00058
       5 <- 13        -0.00072
       5 <- 18        -0.00097
       5 <- 23         0.00044
       5 <- 29        -0.00069
       5 <- 31         0.00061
       5 <- 37         0.00128
       5 <- 44         0.00018
       5 <- 48         0.00011
       5 <- 52         0.00016
       6 <- 27         0.00016
       6 <- 38        -0.00076
       6 <- 46         0.00132
       7 <- 12        -0.00036
       7 <- 15        -0.00867
       7 <- 19         0.00171
       7 <- 22         0.00747
       7 <- 25         0.00024
       7 <- 30         0.00438
       7 <- 33        -0.00102
       7 <- 35         0.00183
       7 <- 40         0.00082
       7 <- 49        -0.00013
       7 <- 50         0.00019
       7 <- 53         0.00140
       8 <-  9        -0.03332
       8 <- 13         0.00175
       8 <- 18        -0.00523
       8 <- 23         0.00065
       8 <- 29        -0.00161
       8 <- 31        -0.00054
       8 <- 37        -0.00095
       8 <- 52         0.00052
 This state for optimization and/or second-order correction.
 Total Energy, E(TD-HF/TD-DFT) =  -114.399627477
 Copying the excited state density for this state as the 1-particle RhoCI density.

 Excited State   2:      Singlet-B2     6.9527 eV  178.32 nm  f=0.0144  <S**2>=0.000
       3 -> 12         0.00177
       3 -> 15         0.00048
       3 -> 19         0.00148
       3 -> 22        -0.00034
       3 -> 25         0.00109
       3 -> 30         0.00012
       3 -> 33         0.00029
       3 -> 35        -0.00065
       3 -> 40        -0.00034
       3 -> 49         0.00031
       3 -> 53        -0.00011
       4 -> 12        -0.00201
       4 -> 15         0.00218
       4 -> 19         0.00163
       4 -> 22        -0.00316
       4 -> 25         0.00291
       4 -> 30         0.00027
       4 -> 33        -0.00014
       4 -> 35         0.00028
       4 -> 40         0.00042
       4 -> 42        -0.00013
       5 -> 10        -0.00863
       5 -> 11        -0.00485
       5 -> 14         0.00768
       5 -> 16        -0.00046
       5 -> 17         0.00471
       5 -> 20         0.00190
       5 -> 21        -0.00550
       5 -> 24        -0.00104
       5 -> 26         0.00185
       5 -> 28         0.00096
       5 -> 32        -0.00103
       5 -> 34        -0.00098
       5 -> 36        -0.00022
       5 -> 39        -0.00013
       5 -> 41        -0.00058
       5 -> 43        -0.00040
       5 -> 54         0.00013
       6 -> 12        -0.00156
       6 -> 15         0.00121
       6 -> 19         0.00050
       6 -> 22        -0.00190
       6 -> 25         0.00080
       6 -> 30        -0.00043
       6 -> 33        -0.00034
       6 -> 35         0.00085
       6 -> 40         0.00020
       6 -> 42        -0.00013
       6 -> 49         0.00029
       6 -> 50        -0.00015
       7 -> 38        -0.00076
       7 -> 46        -0.00015
       8 -> 10         0.70354
       8 -> 11        -0.06112
       8 -> 14         0.02604
       8 -> 16        -0.00125
       8 -> 17         0.01080
       8 -> 20         0.01687
       8 -> 21         0.00184
       8 -> 24         0.00025
       8 -> 26         0.00340
       8 -> 28         0.00164
       8 -> 32         0.00087
       8 -> 34         0.00038
       8 -> 36         0.00017
       8 -> 39         0.00028
       8 -> 41        -0.00031
       8 -> 43         0.00059
       8 -> 47         0.00021
       8 -> 51        -0.00030
       8 -> 54         0.00027
       3 <- 12         0.00039
       3 <- 15         0.00045
       3 <- 19         0.00057
       3 <- 22        -0.00058
       3 <- 25         0.00056
       3 <- 33         0.00025
       3 <- 35        -0.00057
       3 <- 40        -0.00034
       3 <- 49         0.00036
       3 <- 53        -0.00012
       4 <- 12         0.00077
       4 <- 15         0.00201
       4 <- 19         0.00155
       4 <- 22        -0.00205
       4 <- 25         0.00193
       4 <- 30         0.00018
       4 <- 42        -0.00022
       4 <- 50        -0.00014
       5 <- 10         0.00215
       5 <- 11        -0.00024
       5 <- 14         0.00442
       5 <- 16        -0.00041
       5 <- 17         0.00034
       5 <- 20         0.00048
       5 <- 21        -0.00141
       5 <- 24        -0.00229
       5 <- 26         0.00129
       5 <- 28         0.00013
       5 <- 32        -0.00084
       5 <- 34        -0.00080
       5 <- 36        -0.00020
       5 <- 41        -0.00041
       5 <- 43        -0.00033
       6 <- 12        -0.00015
       6 <- 15        -0.00059
       6 <- 19         0.00085
       6 <- 25         0.00026
       6 <- 30         0.00059
       6 <- 33        -0.00039
       6 <- 35         0.00084
       6 <- 40         0.00017
       6 <- 42        -0.00011
       6 <- 49         0.00022
       6 <- 50        -0.00018
       6 <- 53         0.00021
       7 <- 38        -0.00057
       8 <- 10        -0.00137
       8 <- 11        -0.00106
       8 <- 14        -0.00377
       8 <- 16        -0.00070
       8 <- 17        -0.00120
       8 <- 20        -0.00064
       8 <- 21         0.00133
       8 <- 24         0.00129
       8 <- 26        -0.00097
       8 <- 28        -0.00026
       8 <- 32         0.00064
       8 <- 34        -0.00011
       8 <- 36         0.00033
       8 <- 43         0.00031
       8 <- 45         0.00014

 Excited State   3:      Singlet-B1     7.3244 eV  169.28 nm  f=0.0014  <S**2>=0.000
       3 ->  9        -0.03328
       3 -> 13         0.00366
       3 -> 18        -0.00634
       3 -> 23         0.00317
       3 -> 29        -0.00196
       3 -> 31        -0.00046
       3 -> 44         0.00050
       3 -> 48         0.00045
       3 -> 52         0.00111
       4 ->  9         0.01619
       4 -> 13        -0.00272
       4 -> 18         0.00076
       4 -> 23        -0.00249
       4 -> 29         0.00016
       4 -> 31        -0.00211
       4 -> 37        -0.00045
       4 -> 48        -0.00150
       4 -> 52        -0.00088
       5 -> 27        -0.00131
       5 -> 38         0.00200
       5 -> 46         0.00212
       6 ->  9         0.70565
       6 -> 13        -0.02824
       6 -> 18         0.02069
       6 -> 23        -0.01208
       6 -> 29         0.00654
       6 -> 31         0.00397
       6 -> 37        -0.00258
       6 -> 44        -0.00347
       6 -> 48         0.00516
       6 -> 52         0.00184
       7 -> 10        -0.00014
       7 -> 11         0.00074
       7 -> 14        -0.00166
       7 -> 16        -0.01156
       7 -> 17         0.00060
       7 -> 20         0.00187
       7 -> 21        -0.00229
       7 -> 24         0.00133
       7 -> 26         0.00051
       7 -> 28        -0.00468
       7 -> 32        -0.00122
       7 -> 34         0.00025
       7 -> 36        -0.00160
       7 -> 39         0.00016
       7 -> 41        -0.00158
       7 -> 43         0.00089
       7 -> 45         0.00447
       7 -> 47         0.00266
       7 -> 51         0.00113
       7 -> 54         0.00057
       8 -> 27         0.00197
       8 -> 38         0.00066
       8 -> 46         0.00655
       3 <-  9        -0.01060
       3 <- 13         0.00025
       3 <- 18        -0.00331
       3 <- 29        -0.00125
       3 <- 31        -0.00039
       3 <- 37        -0.00010
       3 <- 44        -0.00019
       3 <- 48         0.00071
       3 <- 52         0.00089
       4 <-  9         0.00598
       4 <- 18         0.00243
       4 <- 23        -0.00030
       4 <- 29         0.00220
       4 <- 31        -0.00183
       4 <- 44         0.00020
       4 <- 48        -0.00130
       4 <- 52        -0.00049
       5 <- 27        -0.00151
       5 <- 38         0.00153
       5 <- 46         0.00188
       6 <-  9        -0.02198
       6 <- 13         0.00243
       6 <- 18        -0.00301
       6 <- 23         0.00018
       6 <- 29        -0.00257
       6 <- 31         0.00258
       6 <- 37        -0.00249
       6 <- 44        -0.00212
       6 <- 48         0.00454
       6 <- 52         0.00067
       7 <- 10         0.00254
       7 <- 11         0.00437
       7 <- 14         0.00188
       7 <- 16         0.00142
       7 <- 17         0.01325
       7 <- 20         0.00733
       7 <- 21        -0.00655
       7 <- 24         0.00587
       7 <- 26         0.00316
       7 <- 28         0.00053
       7 <- 32        -0.00107
       7 <- 34         0.00145
       7 <- 36        -0.00256
       7 <- 39         0.00041
       7 <- 41        -0.00107
       7 <- 43         0.00083
       7 <- 45         0.00407
       7 <- 47         0.00223
       7 <- 51         0.00081
       7 <- 54         0.00106
       8 <- 27         0.00200
       8 <- 38         0.00075
       8 <- 46         0.00586

 Excited State   4:      Singlet-A1     7.4210 eV  167.07 nm  f=0.1323  <S**2>=0.000
       3 -> 10         0.00581
       3 -> 11         0.01475
       3 -> 14         0.00779
       3 -> 16        -0.00107
       3 -> 17         0.02428
       3 -> 20         0.00119
       3 -> 21        -0.00595
       3 -> 24         0.00641
       3 -> 26         0.00858
       3 -> 28         0.00107
       3 -> 32         0.00309
       3 -> 34        -0.00391
       3 -> 36        -0.00181
       3 -> 39         0.00143
       3 -> 41         0.00019
       3 -> 43         0.00065
       3 -> 45         0.00181
       3 -> 47         0.00088
       3 -> 51         0.00020
       3 -> 54         0.00029
       4 -> 10         0.02673
       4 -> 11        -0.01110
       4 -> 14         0.01600
       4 -> 16         0.00188
       4 -> 17        -0.00741
       4 -> 20         0.00986
       4 -> 21        -0.00016
       4 -> 24        -0.00797
       4 -> 26         0.00628
       4 -> 28         0.00094
       4 -> 32        -0.00127
       4 -> 34         0.00312
       4 -> 36         0.00071
       4 -> 39        -0.00021
       4 -> 45        -0.00070
       4 -> 47        -0.00158
       5 -> 12         0.03183
       5 -> 15         0.03144
       5 -> 19         0.00257
       5 -> 22         0.00205
       5 -> 25         0.01373
       5 -> 30        -0.00307
       5 -> 33        -0.00324
       5 -> 35         0.00169
       5 -> 40         0.00165
       5 -> 42         0.00073
       5 -> 49         0.00061
       5 -> 50        -0.00045
       5 -> 53        -0.00035
       6 -> 10        -0.03582
       6 -> 11        -0.05931
       6 -> 14        -0.02372
       6 -> 16        -0.03395
       6 -> 17        -0.09973
       6 -> 20        -0.03898
       6 -> 21         0.02995
       6 -> 24        -0.02613
       6 -> 26        -0.01365
       6 -> 28        -0.01133
       6 -> 32        -0.00019
       6 -> 34        -0.00318
       6 -> 36         0.00234
       6 -> 39         0.00011
       6 -> 41        -0.00101
       6 -> 43         0.00040
       6 -> 45         0.00067
       6 -> 47         0.00177
       6 -> 51         0.00074
       6 -> 54        -0.00025
       7 ->  9         0.68272
       7 -> 13         0.02471
       7 -> 18        -0.02776
       7 -> 23         0.00708
       7 -> 29        -0.00523
       7 -> 31        -0.00154
       7 -> 44        -0.00084
       7 -> 48         0.00060
       7 -> 52         0.00099
       8 -> 12         0.01901
       8 -> 15         0.13818
       8 -> 19        -0.02632
       8 -> 22        -0.04839
       8 -> 25         0.00373
       8 -> 30        -0.01532
       8 -> 33         0.00578
       8 -> 35        -0.00714
       8 -> 40        -0.00281
       8 -> 42        -0.00037
       8 -> 49         0.00064
       8 -> 50         0.00040
       8 -> 53        -0.00103
       3 <- 10         0.00301
       3 <- 11         0.00863
       3 <- 14         0.00534
       3 <- 17         0.01545
       3 <- 20         0.00103
       3 <- 21        -0.00492
       3 <- 24         0.00439
       3 <- 26         0.00554
       3 <- 28         0.00084
       3 <- 32         0.00275
       3 <- 34        -0.00251
       3 <- 36        -0.00123
       3 <- 39         0.00108
       3 <- 41         0.00015
       3 <- 43         0.00064
       3 <- 45         0.00186
       3 <- 47         0.00114
       3 <- 51         0.00019
       3 <- 54         0.00032
       4 <- 10         0.01039
       4 <- 11        -0.00497
       4 <- 14         0.00671
       4 <- 16         0.00051
       4 <- 17        -0.00419
       4 <- 20         0.00583
       4 <- 24        -0.00463
       4 <- 26         0.00432
       4 <- 32        -0.00167
       4 <- 34         0.00244
       4 <- 36         0.00040
       4 <- 39        -0.00022
       4 <- 41        -0.00012
       4 <- 45        -0.00019
       4 <- 47        -0.00144
       5 <- 12         0.00918
       5 <- 15         0.01164
       5 <- 19         0.00142
       5 <- 22         0.00101
       5 <- 25         0.00765
       5 <- 30        -0.00175
       5 <- 33        -0.00229
       5 <- 35         0.00137
       5 <- 40         0.00138
       5 <- 42         0.00056
       5 <- 49         0.00051
       5 <- 50        -0.00040
       5 <- 53        -0.00030
       6 <- 10        -0.00703
       6 <- 11        -0.01252
       6 <- 14        -0.00676
       6 <- 16        -0.01170
       6 <- 17        -0.03596
       6 <- 20        -0.01682
       6 <- 21         0.01423
       6 <- 24        -0.01384
       6 <- 26        -0.00787
       6 <- 28        -0.00696
       6 <- 32         0.00019
       6 <- 34        -0.00277
       6 <- 36         0.00158
       6 <- 39         0.00029
       6 <- 41        -0.00066
       6 <- 43         0.00034
       6 <- 45         0.00022
       6 <- 47         0.00143
       6 <- 51         0.00054
       6 <- 54        -0.00017
       7 <-  9        -0.09866
       7 <- 13         0.01258
       7 <- 18        -0.01471
       7 <- 23         0.00748
       7 <- 29        -0.00600
       7 <- 37        -0.00024
       7 <- 44        -0.00031
       7 <- 52         0.00081
       8 <- 12         0.00053
       8 <- 15         0.02673
       8 <- 19        -0.00699
       8 <- 22        -0.01956
       8 <- 25         0.00109
       8 <- 30        -0.00944
       8 <- 33         0.00383
       8 <- 35        -0.00490
       8 <- 40        -0.00215
       8 <- 42        -0.00029
       8 <- 49         0.00043
       8 <- 50         0.00030
       8 <- 53        -0.00090

 Excited State   5:      Singlet-B2     7.6106 eV  162.91 nm  f=0.0284  <S**2>=0.000
       3 -> 12        -0.00037
       3 -> 15        -0.00138
       3 -> 19         0.00161
       3 -> 22         0.00056
       3 -> 25        -0.00019
       3 -> 30         0.00307
       3 -> 33         0.00019
       3 -> 35        -0.00093
       3 -> 40        -0.00075
       3 -> 49         0.00088
       3 -> 50        -0.00016
       4 -> 12         0.00206
       4 -> 15         0.00081
       4 -> 19         0.00107
       4 -> 22        -0.00149
       4 -> 25         0.00240
       4 -> 30        -0.00164
       4 -> 33         0.00048
       4 -> 35        -0.00063
       4 -> 49         0.00018
       5 -> 10        -0.00227
       5 -> 11         0.00034
       5 -> 14         0.01104
       5 -> 16        -0.00587
       5 -> 17        -0.00081
       5 -> 20        -0.00410
       5 -> 21        -0.00368
       5 -> 24        -0.00063
       5 -> 26         0.00197
       5 -> 28         0.00149
       5 -> 32         0.00033
       5 -> 34        -0.00060
       5 -> 36        -0.00061
       5 -> 39         0.00062
       5 -> 41        -0.00058
       5 -> 43         0.00026
       5 -> 45         0.00093
       5 -> 47         0.00023
       5 -> 51        -0.00047
       6 -> 12        -0.00239
       6 -> 15        -0.00085
       6 -> 19        -0.00079
       6 -> 22         0.00089
       6 -> 25         0.00016
       6 -> 30         0.00130
       6 -> 33        -0.00052
       6 -> 35         0.00151
       6 -> 40         0.00130
       6 -> 42         0.00012
       6 -> 49        -0.00152
       6 -> 50         0.00019
       6 -> 53         0.00014
       7 -> 27         0.00051
       7 -> 38        -0.00071
       7 -> 46        -0.00247
       8 -> 10         0.06012
       8 -> 11         0.70267
       8 -> 14         0.00801
       8 -> 16         0.00994
       8 -> 17         0.04753
       8 -> 20        -0.00877
       8 -> 21         0.00121
       8 -> 24         0.00201
       8 -> 26         0.00031
       8 -> 28         0.00361
       8 -> 32         0.00015
       8 -> 34        -0.00028
       8 -> 36        -0.00054
       8 -> 39        -0.00025
       8 -> 41        -0.00090
       8 -> 43         0.00041
       8 -> 45         0.00305
       8 -> 47         0.00027
       8 -> 51        -0.00139
       8 -> 54         0.00016
       3 <- 12         0.00033
       3 <- 15        -0.00046
       3 <- 19         0.00120
       3 <- 30         0.00156
       3 <- 33         0.00029
       3 <- 35        -0.00087
       3 <- 40        -0.00069
       3 <- 49         0.00084
       3 <- 50        -0.00011
       3 <- 53        -0.00043
       4 <- 12         0.00020
       4 <- 15         0.00096
       4 <- 19         0.00013
       4 <- 22        -0.00123
       4 <- 25         0.00106

 The electronic state is 1-A1.
 Alpha  occ. eigenvalues --  -19.16147 -10.30336  -0.99838  -0.66981  -0.49141
 Alpha  occ. eigenvalues --   -0.44354  -0.36985  -0.28896
 Alpha virt. eigenvalues --   -0.10451   0.00240   0.03350   0.04171   0.06240
 Alpha virt. eigenvalues --    0.12074   0.16145   0.18860   0.21707   0.21792
 Alpha virt. eigenvalues --    0.23679   0.30263   0.41449   0.43760   0.50950

 Mulliken charges:
               1
     1  C   -0.016590
     2  H    0.148788
     3  H    0.148788
     4  O   -0.280986
 Sum of Mulliken charges =  -0.00000

 Dipole moment (field-independent basis, Debye):
    X=             -0.0000    Y=              0.0000    Z=             -3.1447  Tot=              3.1447
 Quadrupole moment (field-independent basis, Debye-Ang):
   XX=            -12.2250   YY=            -11.7522   ZZ=            -11.9813
   XY=              0.0000   XZ=              0.0000   YZ=              0.0000

 Normal termination of Gaussian 16 at Fri Sep 17 10:52:50 2021.
