 Gaussian 16, Revision A.03,
 Gaussian 16:  ES64L-G16RevA.03 25-Dec-2016

 --------------------------------------------------------------------
 #p B3LYP/6-311+G** #p TD=(singlets,nstates=30)IOp(6/8=3) IOp(9/40=4)
 --------------------------------------------------------------------

 --------------------------------
 Scan Step 289, Bond Length 1.945
 --------------------------------
 Symbolic Z-matrix:
 Charge =  0 Multiplicity = 1

                         Standard orientation:
 ---------------------------------------------------------------------
 Center     Atomic      Atomic             Coordinates (Angstroms)
 Number     Number       Type             X           Y           Z
 ---------------------------------------------------------------------
      1          6           0        0.000000    0.000000   -0.898581
      2          1           0        0.000000    0.937260   -1.489931
      3          1           0       -0.000000   -0.937260   -1.489931
      4          8           0        0.000000   -0.000000    1.046419
 ---------------------------------------------------------------------

 SCF Done:  E(RB3LYP) =  -114.311709134     A.U. after   13 cycles

 Excitation energies and oscillator strengths:

 Excited State   1:      Singlet-A2     1.0642 eV 1165.01 nm  f=0.0000  <S**2>=0.000
       3 -> 27         0.00058
       3 -> 38         0.00033
       3 -> 47         0.00327
       4 -> 27         0.00029
       4 -> 47        -0.00079
       5 -> 13         0.00104
       5 -> 18         0.00131
       5 -> 23         0.00118
       5 -> 28         0.00094
       5 -> 37         0.00057
       5 -> 44         0.00016
       5 -> 52         0.00013
       6 -> 27        -0.00052
       6 -> 38        -0.00047
       6 -> 47         0.00078
       7 -> 12        -0.00145
       7 -> 16         0.00540
       7 -> 19        -0.00495
       7 -> 22        -0.00114
       7 -> 25        -0.00043
       7 -> 30        -0.00205
       7 -> 33         0.00025
       7 -> 49         0.00012
       7 -> 53         0.00035
       8 ->  9         0.71207
       8 -> 13        -0.00497
       8 -> 18         0.02025
       8 -> 23        -0.00031
       8 -> 28         0.00974
       8 -> 31         0.00157
       8 -> 37         0.00045
       8 -> 46        -0.00027
       8 -> 52         0.00179
       3 <- 27         0.00011
       3 <- 38         0.00013
       3 <- 47         0.00329
       4 <- 27         0.00055
       4 <- 38         0.00016
       4 <- 47        -0.00059
       5 <-  9         0.00062
       5 <- 13        -0.00027
       5 <- 18        -0.00027
       5 <- 23         0.00013
       5 <- 28        -0.00022
       5 <- 31         0.00018
       5 <- 37         0.00033
       6 <- 38        -0.00034
       6 <- 47         0.00055
       7 <- 12         0.00227
       7 <- 16        -0.01045
       7 <- 19         0.00627
       7 <- 22         0.00504
       7 <- 25        -0.00063
       7 <- 30         0.00566
       7 <- 33        -0.00033
       7 <- 49        -0.00046
       7 <- 53         0.00143
       8 <-  9        -0.08579
       8 <- 13        -0.00075
       8 <- 18        -0.00804
       8 <- 23        -0.00047
       8 <- 28        -0.00281
       8 <- 31        -0.00086
       8 <- 37        -0.00014
       8 <- 46         0.00013
       8 <- 52         0.00040
 This state for optimization and/or second-order correction.
 Total Energy, E(TD-HF/TD-DFT) =  -114.272599198
 Copying the excited state density for this state as the 1-particle RhoCI density.

 Excited State   2:      Singlet-A1     2.7770 eV  446.47 nm  f=0.0199  <S**2>=0.000
       3 -> 10        -0.01142
       3 -> 11        -0.00190
       3 -> 17        -0.00282
       3 -> 20        -0.00309
       3 -> 21         0.00072
       3 -> 26         0.00060
       3 -> 29         0.00017
       3 -> 32         0.00253
       3 -> 34         0.00090
       3 -> 36        -0.00086
       3 -> 39        -0.00026
       3 -> 43         0.00042
       3 -> 45        -0.00131
       3 -> 48         0.00231
       3 -> 50         0.00168
       3 -> 54        -0.00014
       4 -> 10         0.00022
       4 -> 11         0.00871
       4 -> 14         0.00118
       4 -> 15        -0.00675
       4 -> 17         0.00184
       4 -> 20         0.00132
       4 -> 21         0.00017
       4 -> 24        -0.00349
       4 -> 26         0.00253
       4 -> 32        -0.00097
       4 -> 34        -0.00060
       4 -> 39        -0.00029
       4 -> 43        -0.00039
       4 -> 45         0.00073
       4 -> 48        -0.00063
       4 -> 50        -0.00021
       4 -> 54         0.00013
       5 -> 12         0.00738
       5 -> 16         0.00088
       5 -> 19         0.00092
       5 -> 22         0.00602
       5 -> 25        -0.00337
       5 -> 30         0.00031
       5 -> 33        -0.00218
       5 -> 35         0.00268
       5 -> 40        -0.00084
       5 -> 42        -0.00097
       5 -> 51        -0.00091
       6 -> 10         0.26642
       6 -> 11         0.02653
       6 -> 14        -0.02802
       6 -> 15        -0.01721
       6 -> 17        -0.01397
       6 -> 20         0.00015
       6 -> 21         0.00335
       6 -> 24        -0.00612
       6 -> 26        -0.00211
       6 -> 29        -0.00170
       6 -> 32         0.00482
       6 -> 34         0.00135
       6 -> 36         0.00080
       6 -> 39        -0.00157
       6 -> 43         0.00075
       6 -> 45        -0.00099
       6 -> 48         0.00066
       6 -> 50         0.00041
       6 -> 54        -0.00099
       7 ->  9         0.67246
       7 -> 13        -0.00829
       7 -> 18        -0.00789
       7 -> 23        -0.00315
       7 -> 28         0.00182
       7 -> 31        -0.00330
       7 -> 37         0.00136
       7 -> 44        -0.00095
       7 -> 52         0.00104
       8 -> 12        -0.00680
       8 -> 16         0.02780
       8 -> 19        -0.01613
       8 -> 22        -0.00881
       8 -> 30        -0.00663
       8 -> 33         0.00072
       8 -> 35        -0.00036
       8 -> 40         0.00010
       8 -> 42         0.00014
       8 -> 51         0.00011
       8 -> 53        -0.00046
       3 <- 10        -0.00958
       3 <- 11        -0.00192
       3 <- 15        -0.00040
       3 <- 17        -0.00169
       3 <- 20        -0.00284
       3 <- 21         0.00031
       3 <- 24        -0.00039
       3 <- 26        -0.00016
       3 <- 29         0.00044
       3 <- 32         0.00212
       3 <- 34         0.00046
       3 <- 36        -0.00094
       3 <- 39        -0.00019
       3 <- 43         0.00044
       3 <- 45        -0.00140
       3 <- 48         0.00231
       3 <- 50         0.00169
       4 <- 10         0.00130
       4 <- 11         0.00682
       4 <- 14         0.00114
       4 <- 15        -0.00491
       4 <- 17         0.00118
       4 <- 20         0.00196
       4 <- 24        -0.00278
       4 <- 26         0.00235
       4 <- 29        -0.00042
       4 <- 32        -0.00091
       4 <- 34        -0.00052
       4 <- 36         0.00020
       4 <- 39        -0.00034
       4 <- 43        -0.00035
       4 <- 45         0.00063
       4 <- 48        -0.00037
       4 <- 54         0.00011
       5 <- 12         0.00491
       5 <- 16         0.00069
       5 <- 19         0.00079
       5 <- 22         0.00458
       5 <- 25        -0.00277
       5 <- 30         0.00032
       5 <- 33        -0.00188
       5 <- 35         0.00237
       5 <- 40        -0.00078
       5 <- 42        -0.00088
       5 <- 51        -0.00087
       6 <- 10         0.09479
       6 <- 11         0.01232
       6 <- 14        -0.01490
       6 <- 15        -0.01006
       6 <- 17        -0.00913
       6 <- 20        -0.00123
       6 <- 21         0.00259
       6 <- 24        -0.00419
       6 <- 26        -0.00087
       6 <- 29        -0.00066
       6 <- 32         0.00447
       6 <- 34         0.00150
       6 <- 36         0.00033
       6 <- 39        -0.00140
       6 <- 43         0.00064
       6 <- 45        -0.00072
       6 <- 48         0.00036
       6 <- 50         0.00028
       6 <- 54        -0.00093
       7 <-  9        -0.12893
       7 <- 13         0.00190
       7 <- 18        -0.01013
       7 <- 28        -0.00102
       7 <- 31        -0.00156
       7 <- 37         0.00066
       7 <- 44        -0.00086
       7 <- 46        -0.00047
       7 <- 52         0.00098
       8 <- 12        -0.00334
       8 <- 16         0.01576
       8 <- 19        -0.01032
       8 <- 22        -0.00627
       8 <- 25         0.00012
       8 <- 30        -0.00553
       8 <- 33         0.00059
       8 <- 35        -0.00027
       8 <- 42         0.00010
       8 <- 49        -0.00020
       8 <- 53        -0.00044

 Excited State   3:      Singlet-B2     2.7921 eV  444.06 nm  f=0.0013  <S**2>=0.000
       3 -> 12        -0.00102
       3 -> 16         0.00085
       3 -> 19        -0.00335
       3 -> 22         0.00113
       3 -> 25        -0.00087
       3 -> 30        -0.00217
       3 -> 33         0.00035
       3 -> 35         0.00102
       3 -> 40        -0.00105
       3 -> 42        -0.00029
       3 -> 49        -0.00407
       3 -> 51         0.00014
       3 -> 53         0.00023
       4 -> 12         0.00031
       4 -> 16        -0.00112
       4 -> 19         0.00026
       4 -> 22         0.00141
       4 -> 25         0.00041
       4 -> 30         0.00065
       4 -> 33        -0.00026
       4 -> 35         0.00038
       4 -> 40         0.00020
       4 -> 49         0.00072
       5 -> 10         0.00871
       5 -> 11         0.00083
       5 -> 14        -0.00207
       5 -> 15         0.00242
       5 -> 17        -0.00052
       5 -> 20         0.00178
       5 -> 21         0.00225
       5 -> 24         0.00122
       5 -> 26        -0.00020
       5 -> 29        -0.00202
       5 -> 32        -0.00060
       5 -> 34        -0.00010
       5 -> 39         0.00050
       5 -> 41         0.00033
       5 -> 48        -0.00027
       5 -> 50         0.00018
       5 -> 54        -0.00016
       6 -> 12         0.00234
       6 -> 16        -0.00291
       6 -> 19         0.00435
       6 -> 22        -0.00070
       6 -> 25         0.00115
       6 -> 30         0.00048
       6 -> 33        -0.00023
       6 -> 35        -0.00097
       6 -> 40         0.00058
       6 -> 42         0.00052
       6 -> 49         0.00093
       6 -> 53        -0.00044
       7 -> 27        -0.00043
       7 -> 38         0.00023
       7 -> 47         0.00260
       8 -> 10         0.70676
       8 -> 11         0.04133
       8 -> 14        -0.03924
       8 -> 15        -0.01711
       8 -> 17        -0.01645
       8 -> 20         0.00707
       8 -> 21         0.00456
       8 -> 24        -0.00486
       8 -> 26        -0.00355
       8 -> 29        -0.01367
       8 -> 32         0.00174
       8 -> 34        -0.00089
       8 -> 36         0.00185
       8 -> 39         0.00023
       8 -> 41        -0.00017
       8 -> 45        -0.00074
       8 -> 48        -0.00318
       8 -> 50         0.00105
       8 -> 54        -0.00251
       3 <- 12        -0.00035
       3 <- 16         0.00033
       3 <- 19        -0.00170
       3 <- 22         0.00086
       3 <- 25        -0.00079
       3 <- 30        -0.00090
       3 <- 33         0.00033
       3 <- 35         0.00062
       3 <- 40        -0.00091
       3 <- 42        -0.00014
       3 <- 49        -0.00411
       3 <- 51         0.00014
       3 <- 53         0.00063
       4 <- 12         0.00012
       4 <- 16        -0.00147
       4 <- 19         0.00019
       4 <- 22         0.00181
       4 <- 25         0.00018
       4 <- 30         0.00095
       4 <- 33        -0.00027
       4 <- 35         0.00054
       4 <- 49         0.00050
       5 <- 10        -0.00096
       5 <- 11        -0.00042
       5 <- 14        -0.00034
       5 <- 15         0.00199
       5 <- 17         0.00019
       5 <- 20         0.00075
       5 <- 21         0.00137
       5 <- 24         0.00133
       5 <- 29        -0.00045
       5 <- 32        -0.00020
       5 <- 39         0.00026
       5 <- 41         0.00035
       5 <- 45        -0.00017
       5 <- 48        -0.00029
       6 <- 12        -0.00116
       6 <- 16         0.00838
       6 <- 19        -0.00492
       6 <- 22        -0.00521
       6 <- 25         0.00139
       6 <- 30        -0.00630
       6 <- 33         0.00013
       6 <- 35        -0.00074
       6 <- 40         0.00056
       6 <- 42         0.00048
       6 <- 49         0.00148
       6 <- 53        -0.00146
       7 <- 27        -0.00045
       7 <- 38         0.00019
       7 <- 47         0.00228
       8 <- 10        -0.05884
       8 <- 11        -0.00691
       8 <- 14         0.00661
       8 <- 15         0.00223
       8 <- 17         0.00285
       8 <- 20        -0.00369
       8 <- 21        -0.00092
       8 <- 24         0.00134
       8 <- 26         0.00084
       8 <- 29         0.00301
       8 <- 32         0.00193
       8 <- 34         0.00073
       8 <- 36        -0.00094
       8 <- 39        -0.00076
       8 <- 41         0.00013
       8 <- 43         0.00027
       8 <- 45        -0.00138
       8 <- 48        -0.00269
       8 <- 50         0.00104
       8 <- 54        -0.00065

 Excited State   4:      Singlet-B1     3.0716 eV  403.64 nm  f=0.0001  <S**2>=0.000
       3 ->  9        -0.01762
       3 -> 13         0.00050
       3 -> 18        -0.00335
       3 -> 23         0.00105
       3 -> 28        -0.00144
       3 -> 31        -0.00112
       3 -> 37         0.00017
       3 -> 44         0.00017
       3 -> 46        -0.00140
       3 -> 52         0.00046
       4 ->  9        -0.00422
       4 -> 13         0.00060
       4 -> 18         0.00026
       4 -> 23         0.00045
       4 -> 28         0.00065
       4 -> 31        -0.00077
       4 -> 46         0.00010
       4 -> 52        -0.00013
       5 -> 27        -0.00202
       5 -> 47         0.00030
       6 ->  9         0.45869
       6 -> 13        -0.01225
       6 -> 18         0.01143
       6 -> 23        -0.00756
       6 -> 28         0.00379
       6 -> 31         0.00035
       6 -> 37        -0.00021
       6 -> 44        -0.00087
       6 -> 46         0.00217
       6 -> 52         0.00033
       7 -> 10         0.54365
       7 -> 11         0.03269
       7 -> 14        -0.03233
       7 -> 15        -0.01570
       7 -> 17        -0.01288
       7 -> 20         0.00460
       7 -> 21         0.00250
       7 -> 24        -0.00594
       7 -> 26        -0.00438
       7 -> 29        -0.00823
       7 -> 32         0.00172
       7 -> 34        -0.00077
       7 -> 36         0.00096
       7 -> 41        -0.00013
       7 -> 43         0.00045
       7 -> 45        -0.00108
       7 -> 48         0.00289
       7 -> 50         0.00090
       7 -> 54        -0.00115
       8 -> 27         0.00013
       8 -> 47         0.00350
       3 <-  9        -0.00586
       3 <- 13        -0.00047
       3 <- 18        -0.00214
       3 <- 23        -0.00014
       3 <- 28        -0.00092
       3 <- 31        -0.00066
       3 <- 44        -0.00014
       3 <- 46        -0.00135
       3 <- 52         0.00061
       4 <-  9        -0.00162
       4 <- 13         0.00073
       4 <- 18         0.00106
       4 <- 23         0.00053
       4 <- 28         0.00136
       4 <- 31        -0.00059
       4 <- 44        -0.00035
       5 <- 27        -0.00195
       5 <- 47         0.00028
       6 <-  9        -0.06325
       6 <- 13         0.00232
       6 <- 18        -0.00682
       6 <- 23         0.00086
       6 <- 28        -0.00417
       6 <- 31        -0.00223
       6 <- 44         0.00038
       6 <- 46         0.00216
       6 <- 52        -0.00075
       7 <- 10        -0.07043
       7 <- 11        -0.00838
       7 <- 14         0.01086
       7 <- 15         0.00522
       7 <- 17         0.00383
       7 <- 20        -0.00046
       7 <- 21        -0.00272
       7 <- 24         0.00263
       7 <- 26         0.00161
       7 <- 29         0.00243
       7 <- 36        -0.00021
       7 <- 39        -0.00037
       7 <- 41         0.00024
       7 <- 43         0.00024
       7 <- 45        -0.00077
       7 <- 48         0.00265
       7 <- 50         0.00116
       7 <- 54         0.00023
       8 <- 27         0.00042
       8 <- 47         0.00319

 Excited State   5:      Singlet-B1     3.6246 eV  342.07 nm  f=0.0053  <S**2>=0.000
       3 ->  9        -0.00654
       3 -> 13         0.00030
       3 -> 18         0.00014
       3 -> 23         0.00020
       3 -> 28         0.00159
       3 -> 31         0.00079
       3 -> 44         0.00037
       3 -> 46         0.00318
       3 -> 52         0.00044
       4 ->  9         0.02835
       4 -> 13        -0.00576
       4 -> 18        -0.00054
       4 -> 23        -0.00461
       4 -> 28        -0.00031
       4 -> 31        -0.00086
       4 -> 37        -0.00035
       4 -> 44         0.00037
       4 -> 46        -0.00092
       4 -> 52        -0.00021
       5 -> 27         0.00545
       5 -> 38         0.00378
       6 ->  9         0.54109
       6 -> 13        -0.01011
       6 -> 18         0.00491
       6 -> 23        -0.00661
       6 -> 28        -0.00119
       6 -> 31         0.00445
       6 -> 37        -0.00285
       6 -> 44        -0.00141
       6 -> 46         0.00188
       6 -> 52         0.00108
       7 -> 10        -0.45319
       7 -> 11        -0.02062
       7 -> 14         0.02165
       7 -> 15         0.01748
       7 -> 17         0.00383
       7 -> 20         0.00233
       7 -> 21        -0.00116
       7 -> 24         0.00588
       7 -> 26         0.00285
       7 -> 29         0.00520
       7 -> 34         0.00309
       7 -> 36         0.00148
       7 -> 39        -0.00060
       7 -> 43        -0.00023
       7 -> 45         0.00046
       7 -> 48         0.00092
       7 -> 50         0.00047
       7 -> 54         0.00143
       8 -> 27        -0.00040
       8 -> 38        -0.00016
       8 -> 47         0.00107
       3 <-  9        -0.00223
       3 <- 13        -0.00097
       3 <- 18        -0.00037
       3 <- 23        -0.00067
       3 <- 28         0.00124
       3 <- 31        -0.00026
       3 <- 37         0.00033
       3 <- 44         0.00037
       3 <- 46         0.00327
       4 <-  9         0.01535
       4 <- 13        -0.00298
       4 <- 18         0.00035
       4 <- 23        -0.00303
       4 <- 31        -0.00064
       4 <- 37        -0.00031
       4 <- 44         0.00043
       4 <- 46        -0.00057
       4 <- 52        -0.00015
       5 <- 27         0.00400
       5 <- 38         0.00325
       6 <-  9         0.00812
       6 <- 13         0.00151
       6 <- 18         0.00079
       6 <- 23        -0.00036
       6 <- 28        -0.00169
       6 <- 31         0.00457
       6 <- 37        -0.00270
       6 <- 44        -0.00090
       6 <- 46         0.00114
       6 <- 52         0.00112
       7 <- 10        -0.00955
       7 <- 11        -0.00190
       7 <- 14         0.00408
       7 <- 15         0.00774
       7 <- 17         0.00090
       7 <- 20         0.00496
       7 <- 21        -0.00028
       7 <- 24         0.00390
       7 <- 26         0.00105
       7 <- 29         0.00091
       7 <- 32        -0.00116
       7 <- 34         0.00214
       7 <- 36         0.00235
       7 <- 39        -0.00027
       7 <- 43        -0.00033
       7 <- 45         0.00057
       7 <- 48         0.00100
       7 <- 50         0.00076
       7 <- 54         0.00112
       8 <- 47         0.00124

 Excited State   6:      Singlet-A2     6.7108 eV  184.75 nm  f=0.0000  <S**2>=0.000
       3 -> 27        -0.00094
       3 -> 38        -0.00025
       4 -> 27        -0.00604
       4 -> 38         0.00044
       4 -> 47        -0.00016
       5 ->  9         0.70638

 The electronic state is 1-A1.
 Alpha  occ. eigenvalues --  -19.17819 -10.34334  -0.88146  -0.72045  -0.49480
 Alpha  occ. eigenvalues --   -0.37620  -0.29898  -0.28540
 Alpha virt. eigenvalues --   -0.18122  -0.10290  -0.00305   0.04026   0.06082
 Alpha virt. eigenvalues --    0.06087   0.11485   0.12888   0.18579   0.20837
 Alpha virt. eigenvalues --    0.23869   0.30415   0.38471   0.39091   0.50396

 Mulliken charges:
               1
     1  C   -0.110351
     2  H    0.194947
     3  H    0.194947
     4  O   -0.279543
 Sum of Mulliken charges =  -0.00000

 Dipole moment (field-independent basis, Debye):
    X=             -0.0000    Y=             -0.0000    Z=             -4.3631  Tot=              4.3631
 Quadrupole moment (field-independent basis, Debye-Ang):
   XX=            -13.1233   YY=            -12.1102   ZZ=            -10.3008
   XY=              0.0000   XZ=              0.0000   YZ=             -0.0000

 Normal termination of Gaussian 16 at Fri Sep 17 10:53:15 2021.
