 Gaussian 16, Revision C.01,
 Gaussian 16:  ES64L-G16RevC.01  3-Jul-2019

 ---------------------------------------
 #P wB97XD/6-311+G* NoSymm #P Field=Y+38
 ---------------------------------------

 -------
 TitleMe
 -------
 Symbolic Z-matrix:
 Charge =  1 Multiplicity = 1

                          Input orientation:
 ---------------------------------------------------------------------
 Center     Atomic      Atomic             Coordinates (Angstroms)
 Number     Number       Type             X           Y           Z
 ---------------------------------------------------------------------
      1          6           0        0.029500    1.339700    0.068200
      2          6           0        1.434800    1.286700    0.006400
      3          6           0        2.111800    0.051100   -0.005400
      4          6           0        1.445100   -1.137200    0.031200
      5          6           0       -0.687900    0.168200    0.110000
      6          1           0       -0.471300    2.298400    0.078100
      7          1           0        2.027300    2.196500   -0.032200
      8          1           0        1.989700   -2.076400    0.023200
      9          1           0       -1.771600    0.180400    0.158200
     10          7           0        3.586400    0.051000   -0.067500
     11          8           0        4.147100   -1.059700   -0.088100
     12          8           0        4.145000    1.163900   -0.090100
     13          6           0       -0.023600   -1.145800    0.083500
     14          1           0       -0.436700   -1.872500    0.788900
     15         35           0       -0.535900   -1.869700   -1.740800
 ---------------------------------------------------------------------

 SCF Done:  E(RwB97XD) =  -3010.53703700     A.U. after   19 cycles

 Alpha  occ. eigenvalues -- -483.30495 -62.85514 -56.65212 -56.64633 -56.64630
 Alpha  occ. eigenvalues --  -19.45540 -19.45533 -14.85073 -10.57581 -10.57326
 Alpha  occ. eigenvalues --  -10.56790 -10.56521 -10.56482 -10.52882  -9.01316
 Alpha  occ. eigenvalues --   -6.84008  -6.82112  -6.82097  -2.93909  -2.93406
 Alpha  occ. eigenvalues --   -2.93392  -2.91876  -2.91876  -1.49337  -1.32315
 Alpha  occ. eigenvalues --   -1.22240  -1.13570  -1.11455  -1.03748  -1.00721
 Alpha  occ. eigenvalues --   -0.95049  -0.90602  -0.84988  -0.80448  -0.80297
 Alpha  occ. eigenvalues --   -0.79662  -0.77881  -0.75779  -0.75586  -0.71852
 Alpha  occ. eigenvalues --   -0.69000  -0.67250  -0.63291  -0.59638  -0.56823
 Alpha  occ. eigenvalues --   -0.55879  -0.55536  -0.55280  -0.54544
 Alpha virt. eigenvalues --   -0.29187  -0.20952  -0.15168  -0.12916  -0.08900
 Alpha virt. eigenvalues --   -0.06248  -0.05811  -0.04520  -0.04391  -0.02672
 Alpha virt. eigenvalues --   -0.02259  -0.01879  -0.00797  -0.00399   0.00863

 Mulliken charges:
               1
     1  C   -0.584208
     2  C    0.537170
     3  C   -0.737704
     4  C    0.300582
     5  C   -0.008890
     6  H    0.317840
     7  H    0.352187
     8  H    0.386185
     9  H    0.349737
    10  N   -0.106146
    11  O    0.050446
    12  O    0.006219
    13  C   -0.477918
    14  H    0.413639
    15  Br   0.200861
 Sum of Mulliken charges =   1.00000

 Dipole moment (field-independent basis, Debye):
    X=             -0.9552    Y=             -1.6798    Z=             -0.1644  Tot=              1.9394
 Quadrupole moment (field-independent basis, Debye-Ang):
   XX=            -71.4523   YY=            -51.5234   ZZ=            -62.3055
   XY=              0.0806   XZ=              1.2342   YZ=              2.1621

 Normal termination of Gaussian 16 at Wed May  1 15:07:18 2024.
