 Gaussian 16, Revision C.01,
 Gaussian 16:  ES64L-G16RevC.01  3-Jul-2019

 ----------------------------------------
 #P wB97XD/6-311+G* NoSymm #P Field=Z-233
 ----------------------------------------

 -------
 TitleMe
 -------
 Symbolic Z-matrix:
 Charge =  1 Multiplicity = 1

                          Input orientation:
 ---------------------------------------------------------------------
 Center     Atomic      Atomic             Coordinates (Angstroms)
 Number     Number       Type             X           Y           Z
 ---------------------------------------------------------------------
      1          6           0        0.029500    1.339700    0.068200
      2          6           0        1.434800    1.286700    0.006400
      3          6           0        2.111800    0.051100   -0.005400
      4          6           0        1.445100   -1.137200    0.031200
      5          6           0       -0.687900    0.168200    0.110000
      6          1           0       -0.471300    2.298400    0.078100
      7          1           0        2.027300    2.196500   -0.032200
      8          1           0        1.989700   -2.076400    0.023200
      9          1           0       -1.771600    0.180400    0.158200
     10          7           0        3.586400    0.051000   -0.067500
     11          8           0        4.147100   -1.059700   -0.088100
     12          8           0        4.145000    1.163900   -0.090100
     13          6           0       -0.023600   -1.145800    0.083500
     14          1           0       -0.436700   -1.872500    0.788900
     15         35           0       -0.535900   -1.869700   -1.740800
 ---------------------------------------------------------------------

 SCF Done:  E(RwB97XD) =  -3010.55366109     A.U. after   20 cycles

 Alpha  occ. eigenvalues -- -483.35051 -62.90123 -56.69746 -56.69272 -56.69272
 Alpha  occ. eigenvalues --  -19.46748 -19.46653 -14.86232 -10.60171 -10.58739
 Alpha  occ. eigenvalues --  -10.58243 -10.58063 -10.57740 -10.53864  -9.05962
 Alpha  occ. eigenvalues --   -6.88447  -6.86875  -6.86867  -2.98397  -2.97974
 Alpha  occ. eigenvalues --   -2.97966  -2.96707  -2.96707  -1.50474  -1.33445
 Alpha  occ. eigenvalues --   -1.23903  -1.15920  -1.12881  -1.07268  -1.01980
 Alpha  occ. eigenvalues --   -0.96678  -0.91972  -0.86125  -0.81751  -0.81519
 Alpha  occ. eigenvalues --   -0.80859  -0.79182  -0.76997  -0.76894  -0.74256
 Alpha  occ. eigenvalues --   -0.70395  -0.68608  -0.65437  -0.62855  -0.60824
 Alpha  occ. eigenvalues --   -0.58055  -0.57767  -0.56896  -0.56418
 Alpha virt. eigenvalues --   -0.31299  -0.22260  -0.19966  -0.17472  -0.14982
 Alpha virt. eigenvalues --   -0.13620  -0.12302  -0.09562  -0.08190  -0.07957
 Alpha virt. eigenvalues --   -0.05555  -0.04678  -0.03649  -0.02632  -0.02354

 Mulliken charges:
               1
     1  C   -0.626109
     2  C    0.586103
     3  C   -0.733665
     4  C    0.308647
     5  C    0.071624
     6  H    0.345380
     7  H    0.371337
     8  H    0.383066
     9  H    0.362771
    10  N   -0.109147
    11  O    0.036102
    12  O    0.031513
    13  C   -0.467838
    14  H    0.483758
    15  Br  -0.043543
 Sum of Mulliken charges =   1.00000

 Dipole moment (field-independent basis, Debye):
    X=             -0.2619    Y=              0.2684    Z=              4.0281  Tot=              4.0455
 Quadrupole moment (field-independent basis, Debye-Ang):
   XX=            -70.4928   YY=            -53.2388   ZZ=            -67.4771
   XY=              0.6862   XZ=              2.9618   YZ=             -1.8031

 Normal termination of Gaussian 16 at Wed May  1 15:17:29 2024.
