 Gaussian 16, Revision C.01,
 Gaussian 16:  ES64L-G16RevC.01  3-Jul-2019

 ----------------------------------------
 #P wB97XD/6-311+G* NoSymm #P Field=X-291
 ----------------------------------------

 -------
 TitleMe
 -------
 Symbolic Z-matrix:
 Charge =  1 Multiplicity = 1

                          Input orientation:
 ---------------------------------------------------------------------
 Center     Atomic      Atomic             Coordinates (Angstroms)
 Number     Number       Type             X           Y           Z
 ---------------------------------------------------------------------
      1          6           0        0.029500    1.339700    0.068200
      2          6           0        1.434800    1.286700    0.006400
      3          6           0        2.111800    0.051100   -0.005400
      4          6           0        1.445100   -1.137200    0.031200
      5          6           0       -0.687900    0.168200    0.110000
      6          1           0       -0.471300    2.298400    0.078100
      7          1           0        2.027300    2.196500   -0.032200
      8          1           0        1.989700   -2.076400    0.023200
      9          1           0       -1.771600    0.180400    0.158200
     10          7           0        3.586400    0.051000   -0.067500
     11          8           0        4.147100   -1.059700   -0.088100
     12          8           0        4.145000    1.163900   -0.090100
     13          6           0       -0.023600   -1.145800    0.083500
     14          1           0       -0.436700   -1.872500    0.788900
     15         35           0       -0.535900   -1.869700   -1.740800
 ---------------------------------------------------------------------

 SCF Done:  E(RwB97XD) =  -3010.57796959     A.U. after   31 cycles

 Alpha  occ. eigenvalues -- -483.29202 -62.84263 -56.63891 -56.63416 -56.63404
 Alpha  occ. eigenvalues --  -19.33137 -19.33119 -14.72109 -10.55653 -10.53189
 Alpha  occ. eigenvalues --  -10.51421 -10.50587 -10.50149 -10.49907  -9.00096
 Alpha  occ. eigenvalues --   -6.82590  -6.81015  -6.80974  -2.92538  -2.92123
 Alpha  occ. eigenvalues --   -2.92089  -2.90828  -2.90827  -1.36366  -1.19274
 Alpha  occ. eigenvalues --   -1.18015  -1.09458  -1.06673  -1.01266  -0.93652
 Alpha  occ. eigenvalues --   -0.90738  -0.85074  -0.79823  -0.75342  -0.74431
 Alpha  occ. eigenvalues --   -0.72094  -0.69743  -0.68871  -0.66426  -0.64332
 Alpha  occ. eigenvalues --   -0.63743  -0.60945  -0.59368  -0.56476  -0.55027
 Alpha  occ. eigenvalues --   -0.51549  -0.43230  -0.41746  -0.41345
 Alpha virt. eigenvalues --   -0.25656  -0.19101  -0.14419  -0.13420  -0.13170
 Alpha virt. eigenvalues --   -0.11089  -0.09294  -0.05857  -0.04468  -0.04456
 Alpha virt. eigenvalues --   -0.03466  -0.01753  -0.00280   0.00608   0.00899

 Mulliken charges:
               1
     1  C   -0.480358
     2  C    0.314770
     3  C   -0.546731
     4  C    0.299933
     5  C   -0.039280
     6  H    0.270114
     7  H    0.411259
     8  H    0.412237
     9  H    0.204742
    10  N   -0.141601
    11  O    0.202131
    12  O    0.200390
    13  C   -0.471439
    14  H    0.354253
    15  Br   0.009581
 Sum of Mulliken charges =   1.00000

 Dipole moment (field-independent basis, Debye):
    X=              9.0442    Y=              0.4531    Z=              0.7332  Tot=              9.0852
 Quadrupole moment (field-independent basis, Debye-Ang):
   XX=            -47.3533   YY=            -53.5514   ZZ=            -65.3933
   XY=             -0.5251   XZ=             -1.4485   YZ=             -0.5523

 Normal termination of Gaussian 16 at Wed May  1 14:59:07 2024.
