 Gaussian 16, Revision A.03,
 Gaussian 16:  ES64L-G16RevA.03 25-Dec-2016

 --------------------------------------------------------------------
 #p B3LYP/6-311+G** #p TD=(singlets,nstates=30)IOp(6/8=3) IOp(9/40=4)
 --------------------------------------------------------------------

 --------------------------------
 Scan Step 259, Bond Length 1.795
 --------------------------------
 Symbolic Z-matrix:
 Charge =  0 Multiplicity = 1

                         Standard orientation:
 ---------------------------------------------------------------------
 Center     Atomic      Atomic             Coordinates (Angstroms)
 Number     Number       Type             X           Y           Z
 ---------------------------------------------------------------------
      1          6           0        0.000000    0.000000   -0.823581
      2          1           0        0.000000    0.937260   -1.414931
      3          1           0       -0.000000   -0.937260   -1.414931
      4          8           0        0.000000   -0.000000    0.971419
 ---------------------------------------------------------------------

 SCF Done:  E(RB3LYP) =  -114.358248511     A.U. after   13 cycles

 Excitation energies and oscillator strengths:

 Excited State   1:      Singlet-A2     1.3797 eV  898.63 nm  f=0.0000  <S**2>=0.000
       3 -> 27         0.00078
       3 -> 38         0.00050
       3 -> 46         0.00335
       4 -> 27         0.00042
       4 -> 46        -0.00102
       5 ->  9         0.00241
       5 -> 13         0.00111
       5 -> 18         0.00186
       5 -> 23         0.00143
       5 -> 28         0.00147
       5 -> 37         0.00082
       5 -> 44         0.00023
       5 -> 52         0.00020
       6 -> 27        -0.00059
       6 -> 38        -0.00060
       6 -> 46         0.00100
       7 -> 12        -0.00122
       7 -> 16         0.00524
       7 -> 19        -0.00458
       7 -> 22        -0.00109
       7 -> 25        -0.00062
       7 -> 29        -0.00186
       7 -> 33         0.00029
       7 -> 49         0.00013
       7 -> 53         0.00039
       8 ->  9         0.71040
       8 -> 13        -0.00762
       8 -> 18         0.02097
       8 -> 23        -0.00127
       8 -> 28         0.01046
       8 -> 31         0.00158
       8 -> 37         0.00051
       8 -> 48        -0.00030
       8 -> 52         0.00188
       3 <- 27         0.00024
       3 <- 38         0.00027
       3 <- 46         0.00338
       4 <- 27         0.00078
       4 <- 38         0.00020
       4 <- 46        -0.00080
       5 <-  9         0.00026
       5 <- 13        -0.00036
       5 <- 18        -0.00042
       5 <- 23         0.00018
       5 <- 28        -0.00031
       5 <- 31         0.00024
       5 <- 37         0.00048
       6 <- 38        -0.00046
       6 <- 46         0.00074
       7 <- 12         0.00162
       7 <- 16        -0.01053
       7 <- 19         0.00530
       7 <- 22         0.00595
       7 <- 25        -0.00063
       7 <- 29         0.00559
       7 <- 33        -0.00036
       7 <- 35         0.00024
       7 <- 40        -0.00016
       7 <- 42         0.00013
       7 <- 49        -0.00048
       7 <- 53         0.00146
       8 <-  9        -0.07129
       8 <- 13        -0.00030
       8 <- 18        -0.00757
       8 <- 23        -0.00026
       8 <- 28        -0.00271
       8 <- 31        -0.00079
       8 <- 37        -0.00023
       8 <- 48         0.00013
       8 <- 52         0.00045
 This state for optimization and/or second-order correction.
 Total Energy, E(TD-HF/TD-DFT) =  -114.307545355
 Copying the excited state density for this state as the 1-particle RhoCI density.

 Excited State   2:      Singlet-A1     3.6269 eV  341.85 nm  f=0.0364  <S**2>=0.000
       3 -> 10        -0.01585
       3 -> 11        -0.00392
       3 -> 14         0.00236
       3 -> 15         0.00077
       3 -> 17        -0.00316
       3 -> 20        -0.00369
       3 -> 21         0.00028
       3 -> 24         0.00078
       3 -> 26         0.00169
       3 -> 30        -0.00089
       3 -> 32         0.00277
       3 -> 34        -0.00120
       3 -> 36        -0.00105
       3 -> 39         0.00048
       3 -> 43         0.00053
       3 -> 45        -0.00085
       3 -> 47         0.00231
       3 -> 50         0.00148
       4 -> 10        -0.00255
       4 -> 11         0.01117
       4 -> 14         0.00225
       4 -> 15        -0.00818
       4 -> 17         0.00239
       4 -> 20         0.00255
       4 -> 21         0.00031
       4 -> 24        -0.00396
       4 -> 26         0.00362
       4 -> 30         0.00051
       4 -> 32        -0.00129
       4 -> 34         0.00089
       4 -> 36         0.00020
       4 -> 39         0.00016
       4 -> 43        -0.00049
       4 -> 45         0.00079
       4 -> 47        -0.00084
       4 -> 50        -0.00029
       4 -> 54         0.00015
       5 -> 12         0.01072
       5 -> 16         0.00369
       5 -> 19         0.00123
       5 -> 22         0.00708
       5 -> 25        -0.00517
       5 -> 29         0.00032
       5 -> 33        -0.00252
       5 -> 35         0.00275
       5 -> 40        -0.00108
       5 -> 42         0.00094
       5 -> 49         0.00019
       5 -> 51        -0.00083
       6 -> 10         0.24127
       6 -> 11         0.04441
       6 -> 14        -0.05030
       6 -> 15        -0.02672
       6 -> 17        -0.01653
       6 -> 20        -0.00265
       6 -> 21         0.00658
       6 -> 24        -0.00881
       6 -> 26        -0.00371
       6 -> 30        -0.00504
       6 -> 32         0.00339
       6 -> 34        -0.00139
       6 -> 36         0.00034
       6 -> 39         0.00126
       6 -> 41        -0.00015
       6 -> 43         0.00084
       6 -> 45        -0.00085
       6 -> 47         0.00085
       6 -> 50         0.00062
       6 -> 54        -0.00093
       7 ->  9         0.67743
       7 -> 13        -0.00608
       7 -> 18        -0.01159
       7 -> 23        -0.00232
       7 -> 28         0.00090
       7 -> 31        -0.00327
       7 -> 37         0.00128
       7 -> 44        -0.00098
       7 -> 48         0.00013
       7 -> 52         0.00106
       8 -> 12        -0.00771
       8 -> 16         0.04106
       8 -> 19        -0.01951
       8 -> 22        -0.01454
       8 -> 29        -0.00863
       8 -> 33         0.00111
       8 -> 35        -0.00093
       8 -> 40         0.00039
       8 -> 42        -0.00030
       8 -> 49         0.00020
       8 -> 51         0.00016
       8 -> 53        -0.00053
       3 <- 10        -0.01217
       3 <- 11        -0.00337
       3 <- 14         0.00195
       3 <- 15         0.00020
       3 <- 17        -0.00178
       3 <- 20        -0.00310
       3 <- 21        -0.00018
       3 <- 24         0.00022
       3 <- 26         0.00068
       3 <- 30        -0.00041
       3 <- 32         0.00245
       3 <- 34        -0.00064
       3 <- 36        -0.00102
       3 <- 39         0.00045
       3 <- 43         0.00060
       3 <- 45        -0.00100
       3 <- 47         0.00233
       3 <- 50         0.00148
       4 <- 10        -0.00050
       4 <- 11         0.00797
       4 <- 14         0.00161
       4 <- 15        -0.00549
       4 <- 17         0.00141
       4 <- 20         0.00288
       4 <- 21         0.00014
       4 <- 24        -0.00297
       4 <- 26         0.00314
       4 <- 30        -0.00011
       4 <- 32        -0.00142
       4 <- 34         0.00075
       4 <- 36         0.00049
       4 <- 39         0.00017
       4 <- 43        -0.00045
       4 <- 45         0.00075
       4 <- 47        -0.00051
       4 <- 50        -0.00016
       4 <- 54         0.00012
       5 <- 12         0.00618
       5 <- 16         0.00235
       5 <- 19         0.00097
       5 <- 22         0.00499
       5 <- 25        -0.00395
       5 <- 29         0.00034
       5 <- 33        -0.00208
       5 <- 35         0.00236
       5 <- 40        -0.00098
       5 <- 42         0.00083
       5 <- 49         0.00019
       5 <- 51        -0.00078
       6 <- 10         0.08124
       6 <- 11         0.01773
       6 <- 14        -0.02358
       6 <- 15        -0.01380
       6 <- 17        -0.00968
       6 <- 20        -0.00290
       6 <- 21         0.00444
       6 <- 24        -0.00578
       6 <- 26        -0.00198
       6 <- 30        -0.00345
       6 <- 32         0.00343
       6 <- 34        -0.00157
       6 <- 36        -0.00017
       6 <- 39         0.00116
       6 <- 41        -0.00013
       6 <- 43         0.00069
       6 <- 45        -0.00064
       6 <- 47         0.00049
       6 <- 50         0.00048
       6 <- 54        -0.00084
       7 <-  9        -0.13081
       7 <- 13         0.00401
       7 <- 18        -0.01181
       7 <- 23         0.00119
       7 <- 28        -0.00203
       7 <- 31        -0.00159
       7 <- 37         0.00060
       7 <- 44        -0.00076
       7 <- 48        -0.00039
       7 <- 52         0.00096
       8 <- 12        -0.00295
       8 <- 16         0.01961
       8 <- 19        -0.01082
       8 <- 22        -0.00936
       8 <- 25         0.00011
       8 <- 29        -0.00682
       8 <- 33         0.00087
       8 <- 35        -0.00073
       8 <- 40         0.00031
       8 <- 42        -0.00024
       8 <- 51         0.00013
       8 <- 53        -0.00050

 Excited State   3:      Singlet-B2     4.0758 eV  304.20 nm  f=0.0033  <S**2>=0.000
       3 -> 12        -0.00130
       3 -> 16         0.00149
       3 -> 19        -0.00416
       3 -> 22         0.00100
       3 -> 25        -0.00084
       3 -> 29        -0.00280
       3 -> 33         0.00015
       3 -> 35         0.00161
       3 -> 40        -0.00144
       3 -> 42         0.00052
       3 -> 49        -0.00372
       3 -> 51         0.00018
       3 -> 53         0.00029
       4 -> 12         0.00043
       4 -> 16        -0.00170
       4 -> 19         0.00041
       4 -> 22         0.00200
       4 -> 25         0.00080
       4 -> 29         0.00104
       4 -> 33        -0.00037
       4 -> 35         0.00046
       4 -> 40         0.00034
       4 -> 42        -0.00012
       4 -> 49         0.00071
       4 -> 51        -0.00011
       5 -> 10         0.01065
       5 -> 11         0.00175
       5 -> 14        -0.00447
       5 -> 15         0.00359
       5 -> 17        -0.00045
       5 -> 20         0.00205
       5 -> 21         0.00362
       5 -> 24         0.00153
       5 -> 26        -0.00074
       5 -> 30        -0.00204
       5 -> 32        -0.00163
       5 -> 34         0.00040
       5 -> 39        -0.00076
       5 -> 41         0.00047
       5 -> 47        -0.00049
       5 -> 50         0.00031
       5 -> 54        -0.00021
       6 -> 12         0.00257
       6 -> 16        -0.00262
       6 -> 19         0.00401
       6 -> 22        -0.00057
       6 -> 25         0.00110
       6 -> 35        -0.00142
       6 -> 40         0.00102
       6 -> 42        -0.00068
       6 -> 49         0.00136
       6 -> 53        -0.00045
       7 -> 27        -0.00059
       7 -> 38         0.00042
       7 -> 46         0.00329
       8 -> 10         0.69989
       8 -> 11         0.07623
       8 -> 14        -0.06747
       8 -> 15        -0.02658
       8 -> 17        -0.01646
       8 -> 20         0.00371
       8 -> 21         0.00665
       8 -> 24        -0.00625
       8 -> 26        -0.00483
       8 -> 30        -0.01249
       8 -> 32        -0.00272
       8 -> 34         0.00140
       8 -> 36         0.00114
       8 -> 39        -0.00064
       8 -> 41        -0.00013
       8 -> 45        -0.00092
       8 -> 47        -0.00406
       8 -> 50         0.00166
       8 -> 54        -0.00236
       3 <- 12        -0.00046
       3 <- 16         0.00049
       3 <- 19        -0.00203
       3 <- 22         0.00095
       3 <- 25        -0.00076
       3 <- 29        -0.00113
       3 <- 33         0.00016
       3 <- 35         0.00112
       3 <- 40        -0.00125
       3 <- 42         0.00039
       3 <- 49        -0.00378
       3 <- 51         0.00017
       3 <- 53         0.00078
       4 <- 16        -0.00183
       4 <- 19         0.00017
       4 <- 22         0.00224
       4 <- 25         0.00048
       4 <- 29         0.00120
       4 <- 33        -0.00040
       4 <- 35         0.00067
       4 <- 40         0.00014
       4 <- 49         0.00050
       5 <- 10        -0.00087
       5 <- 11        -0.00082
       5 <- 14        -0.00055
       5 <- 15         0.00279
       5 <- 17         0.00020
       5 <- 20         0.00077
       5 <- 21         0.00178
       5 <- 24         0.00179
       5 <- 26        -0.00018
       5 <- 30        -0.00043
       5 <- 32        -0.00032
       5 <- 39        -0.00032
       5 <- 41         0.00050
       5 <- 45        -0.00026
       5 <- 47        -0.00048
       5 <- 50         0.00017
       6 <- 12        -0.00059
       6 <- 16         0.00739
       6 <- 19        -0.00380
       6 <- 22        -0.00507
       6 <- 25         0.00110
       6 <- 29        -0.00592
       6 <- 33         0.00028
       6 <- 35        -0.00130
       6 <- 40         0.00103
       6 <- 42        -0.00072
       6 <- 49         0.00180
       6 <- 53        -0.00137
       7 <- 27        -0.00058
       7 <- 38         0.00034
       7 <- 46         0.00281
       8 <- 10        -0.03728
       8 <- 11        -0.00801
       8 <- 14         0.00848
       8 <- 15         0.00237
       8 <- 17         0.00157
       8 <- 20        -0.00307
       8 <- 21        -0.00156
       8 <- 24         0.00159
       8 <- 26         0.00140
       8 <- 30         0.00088
       8 <- 32         0.00304
       8 <- 34        -0.00093
       8 <- 36        -0.00070
       8 <- 39         0.00124
       8 <- 41         0.00027
       8 <- 43         0.00047
       8 <- 45        -0.00169
       8 <- 47        -0.00331
       8 <- 50         0.00126
       8 <- 54        -0.00064

 Excited State   4:      Singlet-B1     4.0992 eV  302.46 nm  f=0.0005  <S**2>=0.000
       3 ->  9        -0.02409
       3 -> 13         0.00097
       3 -> 18        -0.00381
       3 -> 23         0.00129
       3 -> 28        -0.00086
       3 -> 31        -0.00067
       3 -> 37         0.00013
       3 -> 44         0.00032
       3 -> 48         0.00059
       3 -> 52         0.00077
       4 ->  9         0.00851
       4 -> 13        -0.00193
       4 -> 18         0.00013
       4 -> 23        -0.00173
       4 -> 28         0.00048
       4 -> 31        -0.00125
       4 -> 37        -0.00028
       4 -> 48        -0.00061
       4 -> 52        -0.00034
       5 -> 38         0.00167
       5 -> 46         0.00050
       6 ->  9         0.67692
       6 -> 13        -0.01714
       6 -> 18         0.01438
       6 -> 23        -0.01019
       6 -> 28         0.00359
       6 -> 31         0.00232
       6 -> 37        -0.00157
       6 -> 44        -0.00193
       6 -> 48         0.00347
       6 -> 52         0.00103
       7 -> 10         0.20692
       7 -> 11         0.02657
       7 -> 14        -0.02497
       7 -> 15        -0.00809
       7 -> 17        -0.00971
       7 -> 20         0.00369
       7 -> 21         0.00157
       7 -> 24        -0.00256
       7 -> 26        -0.00279
       7 -> 30        -0.00464
       7 -> 34        -0.00063
       7 -> 36         0.00145
       7 -> 39         0.00018
       7 -> 41        -0.00021
       7 -> 43         0.00048
       7 -> 45        -0.00053
       7 -> 47         0.00365
       7 -> 50         0.00122
       8 -> 27         0.00013
       8 -> 46         0.00448
       3 <-  9        -0.00810
       3 <- 13        -0.00083
       3 <- 18        -0.00255
       3 <- 23        -0.00055
       3 <- 28        -0.00048
       3 <- 31        -0.00076
       3 <- 37         0.00016
       3 <- 48         0.00069
       3 <- 52         0.00070
       4 <-  9         0.00533
       4 <- 13        -0.00035
       4 <- 18         0.00148
       4 <- 23        -0.00066
       4 <- 28         0.00143
       4 <- 31        -0.00087
       4 <- 37        -0.00017
       4 <- 44        -0.00012
       4 <- 48        -0.00054
       4 <- 52        -0.00018
       5 <- 27        -0.00053
       5 <- 38         0.00144
       5 <- 46         0.00044
       6 <-  9        -0.03791
       6 <- 13         0.00207
       6 <- 18        -0.00460
       6 <- 28        -0.00394
       6 <- 31         0.00017
       6 <- 37        -0.00128
       6 <- 44        -0.00063
       6 <- 48         0.00312
       7 <- 10        -0.04363
       7 <- 11        -0.00938
       7 <- 14         0.01355
       7 <- 15         0.00864
       7 <- 17         0.00286
       7 <- 20         0.00310
       7 <- 21        -0.00344
       7 <- 24         0.00414
       7 <- 26         0.00176
       7 <- 30         0.00196
       7 <- 32         0.00035
       7 <- 34        -0.00099
       7 <- 36         0.00150
       7 <- 39         0.00058
       7 <- 41         0.00014
       7 <- 43         0.00027
       7 <- 45        -0.00029
       7 <- 47         0.00338
       7 <- 50         0.00131
       7 <- 54         0.00085
       8 <- 27         0.00059
       8 <- 38         0.00012
       8 <- 46         0.00419

 Excited State   5:      Singlet-B1     4.8941 eV  253.34 nm  f=0.0072  <S**2>=0.000
       3 ->  9        -0.00673
       3 -> 13         0.00028
       3 -> 18        -0.00228
       3 -> 23         0.00052
       3 -> 28        -0.00272
       3 -> 31        -0.00149
       3 -> 37         0.00011
       3 -> 44         0.00023
       3 -> 48        -0.00296
       3 -> 52        -0.00016
       4 ->  9        -0.03086
       4 -> 13         0.00604
       4 -> 18         0.00099
       4 -> 23         0.00463
       4 -> 28         0.00124
       4 -> 31         0.00023
       4 -> 37         0.00033
       4 -> 44        -0.00044
       4 -> 48         0.00081
       4 -> 52         0.00015
       5 -> 27        -0.00656
       5 -> 38        -0.00336
       5 -> 46         0.00025
       6 ->  9        -0.20704
       6 -> 13         0.00111
       6 -> 18         0.00071
       6 -> 23         0.00122
       6 -> 28         0.00297
       6 -> 31        -0.00383
       6 -> 37         0.00229
       6 -> 44         0.00065
       6 -> 52        -0.00076
       7 -> 10         0.66979
       7 -> 11         0.06324
       7 -> 14        -0.05907
       7 -> 15        -0.03240
       7 -> 17        -0.00925
       7 -> 20        -0.00273
       7 -> 21         0.00347
       7 -> 24        -0.00949
       7 -> 26        -0.00609
       7 -> 30        -0.00727
       7 -> 32        -0.00173
       7 -> 34         0.00375
       7 -> 36        -0.00142
       7 -> 39        -0.00063
       7 -> 43         0.00056
       7 -> 45        -0.00095
       7 -> 47         0.00106
       7 -> 50         0.00050
       7 -> 54        -0.00164
       8 -> 27         0.00069
       8 -> 38         0.00021
       8 -> 46         0.00129
       3 <-  9        -0.00139
       3 <- 13         0.00069
       3 <- 18        -0.00085
       3 <- 23         0.00060
       3 <- 28        -0.00183
       3 <- 31        -0.00020
       3 <- 37        -0.00022
       3 <- 48        -0.00310
       3 <- 52         0.00029
       4 <-  9        -0.01311
       4 <- 13         0.00275
       4 <- 18         0.00027
       4 <- 23         0.00269
       4 <- 28         0.00119
       4 <- 37         0.00037
       4 <- 44        -0.00064
       4 <- 48         0.00040
       4 <- 52         0.00013
       5 <- 27        -0.00466
       5 <- 38        -0.00272
       5 <- 46         0.00026
       6 <-  9        -0.02807
       6 <- 13        -0.00012
       6 <- 18        -0.00357
       6 <- 23         0.00059
       6 <- 28        -0.00030
       6 <- 31        -0.00461
       6 <- 37         0.00214
       6 <- 44         0.00075

 The electronic state is 1-A1.
 Alpha  occ. eigenvalues --  -19.17687 -10.33791  -0.89639  -0.71208  -0.49168
 Alpha  occ. eigenvalues --   -0.39299  -0.31014  -0.28751
 Alpha virt. eigenvalues --   -0.16837  -0.06293   0.00048   0.04051   0.06095
 Alpha virt. eigenvalues --    0.06603   0.11875   0.13468   0.18770   0.21068
 Alpha virt. eigenvalues --    0.23965   0.30385   0.38564   0.39769   0.50686

 Mulliken charges:
               1
     1  C   -0.092920
     2  H    0.191024
     3  H    0.191024
     4  O   -0.289127
 Sum of Mulliken charges =  -0.00000

 Dipole moment (field-independent basis, Debye):
    X=             -0.0000    Y=              0.0000    Z=             -4.1218  Tot=              4.1218
 Quadrupole moment (field-independent basis, Debye-Ang):
   XX=            -13.0052   YY=            -12.0185   ZZ=            -10.7378
   XY=              0.0000   XZ=              0.0000   YZ=             -0.0000

 Normal termination of Gaussian 16 at Fri Sep 17 10:53:08 2021.
