 Gaussian 16, Revision C.01,
 Gaussian 16:  ES64L-G16RevC.01  3-Jul-2019

 ----------------------------------------
 #P wB97XD/6-311+G* NoSymm #P Field=X+116
 ----------------------------------------

 -------
 TitleMe
 -------
 Symbolic Z-matrix:
 Charge =  1 Multiplicity = 1

                          Input orientation:
 ---------------------------------------------------------------------
 Center     Atomic      Atomic             Coordinates (Angstroms)
 Number     Number       Type             X           Y           Z
 ---------------------------------------------------------------------
      1          6           0        0.519300    1.233000   -0.031900
      2          6           0        1.944500    1.269200   -0.036700
      3          6           0        2.620400    0.092800   -0.025000
      4          6           0       -0.196000    0.030100    0.001000
      5          1           0       -0.020700    2.174200   -0.043400
      6          1           0        2.482800    2.208900   -0.036100
      7          1           0       -1.277700    0.039900    0.011700
      8          7           0        4.092100    0.095900    0.036600
      9          8           0        4.639300   -1.021700    0.144600
     10          8           0        4.664900    1.198400   -0.023300
     11          6           0        0.494300   -1.167100    0.021000
     12          1           0       -0.032500   -2.114900    0.054500
     13          6           0        1.962900   -1.216500   -0.021100
     14          1           0        2.443600   -1.963100    0.615100
     15         35           0        2.173000   -1.949100   -1.906200
 ---------------------------------------------------------------------

 SCF Done:  E(RwB97XD) =  -3010.52673084     A.U. after   18 cycles

 Alpha  occ. eigenvalues -- -483.35094 -62.90124 -56.69810 -56.69250 -56.69241
 Alpha  occ. eigenvalues --  -19.53473 -19.53398 -14.92684 -10.63329 -10.62092
 Alpha  occ. eigenvalues --  -10.60451 -10.59912 -10.57871 -10.55267  -9.05936
 Alpha  occ. eigenvalues --   -6.88597  -6.86755  -6.86730  -2.98505  -2.98019
 Alpha  occ. eigenvalues --   -2.97998  -2.96524  -2.96524  -1.57079  -1.40115
 Alpha  occ. eigenvalues --   -1.26360  -1.16827  -1.16373  -1.08797  -1.04789
 Alpha  occ. eigenvalues --   -0.98922  -0.94668  -0.90660  -0.87237  -0.85672
 Alpha  occ. eigenvalues --   -0.84623  -0.82066  -0.81070  -0.79500  -0.75659
 Alpha  occ. eigenvalues --   -0.71348  -0.70974  -0.66875  -0.64828  -0.64170
 Alpha  occ. eigenvalues --   -0.63384  -0.63297  -0.60342  -0.58751
 Alpha virt. eigenvalues --   -0.33966  -0.26020  -0.19698  -0.17259  -0.12815
 Alpha virt. eigenvalues --   -0.10059  -0.09550  -0.08988  -0.07697  -0.06373
 Alpha virt. eigenvalues --   -0.05819  -0.05327  -0.05089  -0.04312  -0.03658

 Mulliken charges:
               1
     1  C   -0.124508
     2  C    0.183513
     3  C   -0.134719
     4  C   -0.322805
     5  H    0.374503
     6  H    0.336184
     7  H    0.383660
     8  N   -0.236879
     9  O    0.043156
    10  O    0.013853
    11  C   -0.163761
    12  H    0.385157
    13  C   -0.294791
    14  H    0.397050
    15  Br   0.160389
 Sum of Mulliken charges =   1.00000

 Dipole moment (field-independent basis, Debye):
    X=             -0.5184    Y=             -0.7377    Z=             -0.5906  Tot=              1.0778
 Quadrupole moment (field-independent basis, Debye-Ang):
   XX=            -80.9833   YY=            -51.3803   ZZ=            -62.5371
   XY=             -2.1340   XZ=             -1.6488   YZ=              2.0766

 Normal termination of Gaussian 16 at Thu May  2 14:16:58 2024.
