 Gaussian 16, Revision A.03,
 Gaussian 16:  ES64L-G16RevA.03 25-Dec-2016

 --------------------------------------------------------------------
 #p B3LYP/6-311+G** #p TD=(singlets,nstates=30)IOp(6/8=3) IOp(9/40=4)
 --------------------------------------------------------------------

 ---------------------------------------------
 Scan Step 118, Bond Length 1.0899999999999999
 ---------------------------------------------
 Symbolic Z-matrix:
 Charge =  0 Multiplicity = 1

                         Standard orientation:
 ---------------------------------------------------------------------
 Center     Atomic      Atomic             Coordinates (Angstroms)
 Number     Number       Type             X           Y           Z
 ---------------------------------------------------------------------
      1          6           0        0.000000   -0.000000   -0.471081
      2          1           0        0.000000    0.937260   -1.062431
      3          1           0       -0.000000   -0.937260   -1.062431
      4          8           0        0.000000    0.000000    0.618919
 ---------------------------------------------------------------------

 SCF Done:  E(RB3LYP) =  -114.516582897     A.U. after    9 cycles

 Excitation energies and oscillator strengths:

 Excited State   1:      Singlet-A2     4.6173 eV  268.52 nm  f=0.0000  <S**2>=0.000
       3 -> 27         0.00284
       3 -> 38         0.00239
       3 -> 45         0.00206
       4 -> 27         0.00252
       4 -> 38        -0.00069
       4 -> 45        -0.00111
       5 ->  9         0.02018
       5 -> 13        -0.00634
       5 -> 17         0.00611
       5 -> 23        -0.00172
       5 -> 28         0.00400
       5 -> 31         0.00289
       5 -> 36         0.00393
       5 -> 44         0.00068
       5 -> 47         0.00013
       5 -> 52         0.00085
       6 -> 27         0.00031
       6 -> 38        -0.00069
       6 -> 45         0.00169
       7 -> 12        -0.00062
       7 -> 16         0.00208
       7 -> 18        -0.00211
       7 -> 22         0.00131
       7 -> 24         0.00129
       7 -> 30        -0.00077
       7 -> 34         0.00038
       7 -> 35         0.00044
       7 -> 40        -0.00039
       7 -> 48         0.00055
       7 -> 51         0.00023
       7 -> 53         0.00042
       8 ->  9         0.70307
       8 -> 13        -0.06944
       8 -> 17         0.02462
       8 -> 23        -0.01176
       8 -> 28         0.00752
       8 -> 31         0.00337
       8 -> 36        -0.00100
       8 -> 44        -0.00022
       8 -> 47        -0.00020
       8 -> 52         0.00145
       3 <- 27         0.00195
       3 <- 38         0.00202
       3 <- 45         0.00214
       4 <- 27         0.00333
       4 <- 38        -0.00013
       4 <- 45        -0.00099
       5 <- 13        -0.00092
       5 <- 17        -0.00076
       5 <- 23         0.00053
       5 <- 28        -0.00050
       5 <- 31        -0.00107
       5 <- 36         0.00179
       5 <- 44         0.00035
       5 <- 47         0.00017
       5 <- 52         0.00022
       6 <- 27         0.00076
       6 <- 38        -0.00065
       6 <- 45         0.00132
       7 <- 12        -0.00094
       7 <- 16        -0.00575
       7 <- 18        -0.00098
       7 <- 22         0.00676
       7 <- 24        -0.00064
       7 <- 30         0.00260
       7 <- 34        -0.00132
       7 <- 35         0.00254
       7 <- 40        -0.00099
       7 <- 42         0.00037
       7 <- 48         0.00038
       7 <- 53         0.00113
       8 <-  9        -0.01858
       8 <- 13         0.00473
       8 <- 17        -0.00390
       8 <- 23         0.00076
       8 <- 28        -0.00060
       8 <- 31         0.00152
       8 <- 36        -0.00190
       8 <- 52         0.00043
 This state for optimization and/or second-order correction.
 Total Energy, E(TD-HF/TD-DFT) =  -114.346899456
 Copying the excited state density for this state as the 1-particle RhoCI density.

 Excited State   2:      Singlet-B2     6.6354 eV  186.85 nm  f=0.0496  <S**2>=0.000
       3 -> 12         0.00125
       3 -> 16         0.00063
       3 -> 18         0.00111
       3 -> 22        -0.00025
       3 -> 24         0.00130
       3 -> 30        -0.00012
       3 -> 34         0.00010
       3 -> 35        -0.00027
       4 -> 12        -0.00424
       4 -> 16         0.00119
       4 -> 18         0.00233
       4 -> 22        -0.00333
       4 -> 24         0.00375
       4 -> 34        -0.00075
       4 -> 35         0.00079
       4 -> 40        -0.00050
       5 -> 10        -0.00341
       5 -> 11        -0.00928
       5 -> 14         0.00680
       5 -> 15        -0.00121
       5 -> 19         0.00261
       5 -> 20         0.00041
       5 -> 21         0.00483
       5 -> 25         0.00015
       5 -> 26         0.00248
       5 -> 29         0.00205
       5 -> 33        -0.00092
       5 -> 37        -0.00036
       5 -> 39        -0.00030
       5 -> 41        -0.00011
       5 -> 43        -0.00056
       5 -> 46        -0.00051
       5 -> 49         0.00016
       6 -> 12         0.00108
       6 -> 16         0.00113
       6 -> 18         0.00341
       6 -> 22        -0.00271
       6 -> 24         0.00161
       6 -> 30        -0.00035
       6 -> 34        -0.00014
       6 -> 35         0.00011
       6 -> 40         0.00020
       6 -> 42        -0.00028
       6 -> 48         0.00039
       6 -> 51        -0.00048
       7 -> 27         0.00043
       7 -> 38        -0.00032
       7 -> 45         0.00067
       8 -> 10         0.70464
       8 -> 11        -0.05340
       8 -> 14         0.00323
       8 -> 15        -0.00903
       8 -> 19         0.01678
       8 -> 20         0.01102
       8 -> 21        -0.00468
       8 -> 25         0.00070
       8 -> 26         0.00151
       8 -> 29         0.00057
       8 -> 32         0.00043
       8 -> 33         0.00223
       8 -> 37         0.00052
       8 -> 39         0.00050
       8 -> 41        -0.00015
       8 -> 43         0.00068
       8 -> 46        -0.00084
       8 -> 54         0.00017
       3 <- 12         0.00034
       3 <- 16         0.00051
       3 <- 18         0.00047
       3 <- 22        -0.00035
       3 <- 24         0.00084
       3 <- 30        -0.00011
       3 <- 35        -0.00026
       4 <- 12         0.00058
       4 <- 16         0.00157
       4 <- 18         0.00241
       4 <- 22        -0.00203
       4 <- 24         0.00265
       4 <- 34        -0.00050
       4 <- 35         0.00052
       4 <- 40        -0.00022
       4 <- 42        -0.00017
       4 <- 48        -0.00011
       5 <- 10         0.00245
       5 <- 11        -0.00020
       5 <- 14         0.00494
       5 <- 15        -0.00111
       5 <- 19         0.00062
       5 <- 20         0.00041
       5 <- 21         0.00229
       5 <- 25         0.00169
       5 <- 26         0.00154
       5 <- 29         0.00056
       5 <- 32        -0.00027
       5 <- 33        -0.00088
       5 <- 37        -0.00037
       5 <- 39        -0.00017
       5 <- 43        -0.00040
       5 <- 46        -0.00044
       5 <- 49         0.00015
       6 <- 12         0.00032
       6 <- 16        -0.00018
       6 <- 18         0.00161
       6 <- 22        -0.00094
       6 <- 24         0.00061
       6 <- 30         0.00037
       6 <- 34        -0.00021
       6 <- 35         0.00029
       6 <- 40         0.00019
       6 <- 42        -0.00026
       6 <- 48         0.00033
       6 <- 51        -0.00049
       6 <- 53         0.00011
       7 <- 27         0.00034
       7 <- 38        -0.00024
       7 <- 45         0.00057
       8 <- 10        -0.00256
       8 <- 11        -0.00072
       8 <- 14        -0.00787
       8 <- 19        -0.00045
       8 <- 20        -0.00040
       8 <- 21        -0.00289
       8 <- 25        -0.00277
       8 <- 29        -0.00070
       8 <- 32        -0.00043
       8 <- 33         0.00143
       8 <- 37         0.00051
       8 <- 39         0.00041
       8 <- 43         0.00052
       8 <- 46        -0.00057
       8 <- 50        -0.00014

 Excited State   3:      Singlet-B2     7.4305 eV  166.86 nm  f=0.0217  <S**2>=0.000
       3 -> 12        -0.00022
       3 -> 16        -0.00066
       3 -> 18         0.00059
       3 -> 22         0.00028
       3 -> 24         0.00029
       3 -> 30         0.00161
       3 -> 34         0.00013
       3 -> 35        -0.00036
       3 -> 40         0.00032
       3 -> 42        -0.00017
       3 -> 48         0.00029
       3 -> 51        -0.00027
       4 -> 12         0.00307
       4 -> 16        -0.00079
       4 -> 18         0.00317
       4 -> 22        -0.00154
       4 -> 24         0.00327
       4 -> 30        -0.00109
       4 -> 34         0.00053
       4 -> 35        -0.00043
       4 -> 42        -0.00018
       4 -> 48         0.00020
       4 -> 51        -0.00015
       5 -> 10        -0.00757
       5 -> 11         0.00027
       5 -> 14         0.00622
       5 -> 15        -0.00671
       5 -> 19        -0.00369
       5 -> 20        -0.00314
       5 -> 21         0.00100
       5 -> 25         0.00141
       5 -> 26        -0.00039
       5 -> 29         0.00148
       5 -> 32        -0.00082
       5 -> 33        -0.00142
       5 -> 37        -0.00011
       5 -> 39         0.00045
       5 -> 41        -0.00084
       5 -> 46         0.00080
       5 -> 49        -0.00020
       5 -> 50         0.00041
       6 -> 12        -0.00324
       6 -> 16        -0.00188
       6 -> 18        -0.00140
       6 -> 22         0.00146
       6 -> 30         0.00062
       6 -> 34        -0.00045
       6 -> 35         0.00146
       6 -> 40        -0.00091
       6 -> 42         0.00023
       6 -> 48        -0.00083
       6 -> 51         0.00066
       6 -> 53         0.00012
       7 -> 27        -0.00039
       7 -> 38        -0.00112
       7 -> 45        -0.00148
       8 -> 10         0.05402
       8 -> 11         0.70411
       8 -> 14        -0.01106
       8 -> 15         0.01581
       8 -> 19        -0.02491
       8 -> 20         0.01157
       8 -> 21        -0.00216
       8 -> 25         0.00054
       8 -> 26        -0.00156
       8 -> 29        -0.00052
       8 -> 32        -0.00036
       8 -> 33         0.00015
       8 -> 41        -0.00138
       8 -> 43         0.00015
       8 -> 46         0.00134
       8 -> 49        -0.00044
       8 -> 50         0.00074
       8 -> 54        -0.00016
       3 <- 12         0.00032
       3 <- 16        -0.00026
       3 <- 18         0.00078
       3 <- 24         0.00040
       3 <- 30         0.00097
       3 <- 34         0.00021
       3 <- 35        -0.00041
       3 <- 40         0.00029
       3 <- 42        -0.00014
       3 <- 48         0.00023
       3 <- 51        -0.00017
       3 <- 53        -0.00024
       4 <- 12         0.00036
       4 <- 16         0.00053
       4 <- 18         0.00089
       4 <- 22        -0.00118
       4 <- 24         0.00135
       4 <- 30        -0.00047
       4 <- 34         0.00049
       4 <- 42        -0.00020
       4 <- 48         0.00013
       4 <- 51        -0.00020
       5 <- 10         0.00131
       5 <- 11        -0.00086
       5 <- 14         0.00228
       5 <- 15        -0.00045
       5 <- 19         0.00080
       5 <- 20        -0.00020
       5 <- 21         0.00086
       5 <- 25         0.00116
       5 <- 26        -0.00050
       5 <- 29         0.00077
       5 <- 32         0.00060
       5 <- 33        -0.00106
       5 <- 37         0.00017
       5 <- 39         0.00019
       5 <- 41        -0.00087
       5 <- 46         0.00074
       5 <- 50         0.00036
       6 <- 12        -0.00034
       6 <- 16        -0.00030
       6 <- 18        -0.00017
       6 <- 22         0.00050
       6 <- 30         0.00026
       6 <- 34        -0.00026
       6 <- 35         0.00110
       6 <- 40        -0.00066
       6 <- 42         0.00015
       6 <- 48        -0.00070
       6 <- 51         0.00055
       7 <- 38        -0.00090
       7 <- 45        -0.00125
       8 <- 10        -0.00080
       8 <- 11         0.00017
       8 <- 14        -0.00426
       8 <- 15         0.00060
       8 <- 19         0.00309
       8 <- 20        -0.00137
       8 <- 21        -0.00211
       8 <- 25         0.00011
       8 <- 26        -0.00159
       8 <- 29        -0.00034
       8 <- 32         0.00131
       8 <- 33         0.00041
       8 <- 37        -0.00014
       8 <- 39        -0.00029
       8 <- 41        -0.00117
       8 <- 46         0.00108
       8 <- 49        -0.00022
       8 <- 50         0.00057

 Excited State   4:      Singlet-A1     7.5838 eV  163.49 nm  f=0.0540  <S**2>=0.000
       3 -> 10         0.00168
       3 -> 11        -0.00101
       3 -> 14         0.00058
       3 -> 15        -0.00032
       3 -> 19         0.00077
       3 -> 20         0.00121
       3 -> 21         0.00041
       3 -> 25        -0.00031
       3 -> 26         0.00087
       3 -> 29         0.00117
       3 -> 32        -0.00028
       3 -> 33        -0.00039
       3 -> 37        -0.00028
       3 -> 39         0.00012
       3 -> 41        -0.00021
       3 -> 50         0.00037
       3 -> 54        -0.00021
       4 -> 10         0.00526
       4 -> 11         0.00753
       4 -> 14         0.00559
       4 -> 19         0.00045
       4 -> 20         0.00521
       4 -> 21         0.00207
       4 -> 25         0.00719
       4 -> 26         0.00108
       4 -> 29        -0.00047
       4 -> 32         0.00034
       4 -> 33        -0.00066
       4 -> 39        -0.00026
       4 -> 41         0.00018
       4 -> 43         0.00015
       4 -> 46        -0.00024
       4 -> 49        -0.00017
       5 -> 12         0.00737
       5 -> 16         0.00034
       5 -> 18         0.01152
       5 -> 22        -0.00136
       5 -> 24         0.00515
       5 -> 34        -0.00015
       5 -> 35         0.00082
       5 -> 51         0.00032
       5 -> 53        -0.00015
       6 -> 10         0.01317
       6 -> 11        -0.00376
       6 -> 14         0.00428
       6 -> 15         0.00147
       6 -> 19         0.00432
       6 -> 20         0.00448
       6 -> 21         0.00169
       6 -> 25         0.00268
       6 -> 26         0.00045
       6 -> 29        -0.00121
       6 -> 32         0.00061
       6 -> 33        -0.00036
       6 -> 43         0.00012
       6 -> 49        -0.00043
       6 -> 50        -0.00047
       7 ->  9         0.01291
       7 -> 13         0.00821
       7 -> 17         0.00412
       7 -> 23         0.00514
       7 -> 28        -0.00014
       7 -> 31         0.00085
       7 -> 36         0.00056
       7 -> 44         0.00065
       7 -> 47        -0.00035
       7 -> 52        -0.00011
       8 -> 12         0.70573
       8 -> 16        -0.01869
       8 -> 18         0.02868
       8 -> 22         0.00517
       8 -> 24         0.00251
       8 -> 30         0.00126
       8 -> 34         0.00152
       8 -> 35        -0.00211
       8 -> 40        -0.00073
       8 -> 42         0.00051
       8 -> 48        -0.00036
       8 -> 51         0.00030
       8 -> 53        -0.00020
       3 <- 10         0.00059
       3 <- 11        -0.00018
       3 <- 14         0.00035
       3 <- 19         0.00030
       3 <- 20         0.00056
       3 <- 21         0.00035
       3 <- 26         0.00051
       3 <- 29         0.00074
       3 <- 32        -0.00027
       3 <- 33        -0.00021
       3 <- 37        -0.00022
       3 <- 39         0.00010
       3 <- 41        -0.00017
       3 <- 46         0.00018
       3 <- 50         0.00032
       3 <- 54        -0.00019
       4 <- 10         0.00481
       4 <- 11         0.00204
       4 <- 14         0.00409
       4 <- 15        -0.00052
       4 <- 19         0.00031
       4 <- 20         0.00296
       4 <- 21         0.00084
       4 <- 25         0.00403
       4 <- 26         0.00067
       4 <- 32         0.00017
       4 <- 33        -0.00099
       4 <- 39        -0.00030
       4 <- 46        -0.00022
       4 <- 49        -0.00014
       4 <- 50         0.00010
       5 <- 12         0.00277
       5 <- 16         0.00176
       5 <- 18         0.00417
       5 <- 22        -0.00035
       5 <- 24         0.00279
       5 <- 34        -0.00034
       5 <- 35         0.00075
       5 <- 40         0.00011
       5 <- 51         0.00021
       5 <- 53        -0.00013
       6 <- 10         0.00361
       6 <- 11        -0.00043
       6 <- 14         0.00177
       6 <- 15         0.00047
       6 <- 19         0.00149
       6 <- 20         0.00224
       6 <- 21         0.00064
       6 <- 25         0.00140
       6 <- 26         0.00052
       6 <- 29        -0.00071
       6 <- 32         0.00042
       6 <- 33        -0.00038
       6 <- 39        -0.00011
       6 <- 41         0.00014
       6 <- 49        -0.00031
       6 <- 50        -0.00046
       7 <-  9         0.00173
       7 <- 13         0.00223
       7 <- 17         0.00133
       7 <- 23         0.00270
       7 <- 28        -0.00018
       7 <- 31         0.00060
       7 <- 36         0.00044
       7 <- 44         0.00054
       7 <- 47        -0.00030
       8 <- 12        -0.00162
       8 <- 16        -0.00752
       8 <- 18        -0.00288
       8 <- 22         0.00077
       8 <- 24        -0.00218
       8 <- 34         0.00081
       8 <- 35        -0.00114
       8 <- 40        -0.00067
       8 <- 42         0.00043
       8 <- 48        -0.00042
       8 <- 51         0.00024
       8 <- 53        -0.00021

 Excited State   5:      Singlet-A2     8.0881 eV  153.29 nm  f=0.0000  <S**2>=0.000
       3 -> 27        -0.00067
       3 -> 38        -0.00060
       3 -> 45        -0.00035
       4 -> 27         0.00014
       4 -> 38         0.00055
       4 -> 45         0.00010
       5 ->  9        -0.00909
       5 -> 13        -0.00138
       5 -> 17         0.00592
       5 -> 23        -0.00136
       5 -> 31        -0.00176
       5 -> 36        -0.00124
       5 -> 44        -0.00023
       5 -> 52        -0.00013
       6 -> 27         0.00021
       6 -> 38         0.00028
       6 -> 45        -0.00036
       7 -> 12        -0.00052
       7 -> 16        -0.00180
       7 -> 18         0.00184
       7 -> 22        -0.00072
       7 -> 24        -0.00016
       7 -> 30         0.00012
       7 -> 35        -0.00017
       7 -> 40         0.00014
       7 -> 48        -0.00013
       8 ->  9         0.06942
       8 -> 13         0.70321
       8 -> 17         0.01414
       8 -> 23         0.01870
       8 -> 31        -0.00133
       8 -> 36        -0.00012
       8 -> 47         0.00018
       8 -> 52        -0.00019
       3 <- 27        -0.00026
       3 <- 38        -0.00043
       3 <- 45        -0.00044
       4 <- 27        -0.00025
       5 <-  9        -0.00025
       5 <- 13        -0.00028
       5 <- 17         0.00061
       5 <- 36        -0.00029
       6 <- 38         0.00021
       7 <- 12        -0.00066
       7 <- 16        -0.00079
       7 <- 18         0.00066
       7 <- 22        -0.00127
       7 <- 24        -0.00035
       7 <- 30         0.00019
       7 <- 34         0.00045
       7 <- 35        -0.00075
       7 <- 40         0.00040
       7 <- 42        -0.00020
       7 <- 53        -0.00015
       8 <-  9         0.00297
       8 <- 13         0.00141
       8 <- 17         0.00023
       8 <- 23        -0.00026
       8 <- 31        -0.00016
       8 <- 36         0.00024

 Excited State   6:      Singlet-B2    10.2937 eV  120.45 nm  f=0.1822  <S**2>=0.000
       3 -> 12        -0.00031
       3 -> 16        -0.00195
       3 -> 18         0.00077
       3 -> 22         0.00142
       3 -> 24         0.00101
       3 -> 30         0.00141
       3 -> 34        -0.00070
       3 -> 40        -0.00026
       3 -> 42         0.00047
       3 -> 48         0.00034
       3 -> 51        -0.00020
       3 -> 53        -0.00011

 The electronic state is 1-A1.
 Alpha  occ. eigenvalues --  -19.14398 -10.26021  -1.14236  -0.62768  -0.52992
 Alpha  occ. eigenvalues --   -0.48180  -0.45517  -0.27166
 Alpha virt. eigenvalues --   -0.03346   0.01097   0.04141   0.04331   0.06834
 Alpha virt. eigenvalues --    0.13442   0.18277   0.19126   0.22017   0.22778
 Alpha virt. eigenvalues --    0.27174   0.34877   0.48128   0.48843   0.51137

 Mulliken charges:
               1
     1  C    0.058196
     2  H    0.078214
     3  H    0.078214
     4  O   -0.214624
 Sum of Mulliken charges =  -0.00000

 Dipole moment (field-independent basis, Debye):
    X=             -0.0000    Y=             -0.0000    Z=             -1.8900  Tot=              1.8900
 Quadrupole moment (field-independent basis, Debye-Ang):
   XX=            -11.4029   YY=            -11.8330   ZZ=            -12.7304
   XY=              0.0000   XZ=              0.0000   YZ=             -0.0000

 Normal termination of Gaussian 16 at Fri Sep 17 10:52:37 2021.
