 Gaussian 16, Revision C.01,
 Gaussian 16:  ES64L-G16RevC.01  3-Jul-2019

 ----------------------------------------
 #P wB97XD/6-311+G* NoSymm #P Field=Z-282
 ----------------------------------------

 -------
 TitleMe
 -------
 Symbolic Z-matrix:
 Charge =  1 Multiplicity = 1

                          Input orientation:
 ---------------------------------------------------------------------
 Center     Atomic      Atomic             Coordinates (Angstroms)
 Number     Number       Type             X           Y           Z
 ---------------------------------------------------------------------
      1          6           0        0.029500    1.339700    0.068200
      2          6           0        1.434800    1.286700    0.006400
      3          6           0        2.111800    0.051100   -0.005400
      4          6           0        1.445100   -1.137200    0.031200
      5          6           0       -0.687900    0.168200    0.110000
      6          1           0       -0.471300    2.298400    0.078100
      7          1           0        2.027300    2.196500   -0.032200
      8          1           0        1.989700   -2.076400    0.023200
      9          1           0       -1.771600    0.180400    0.158200
     10          7           0        3.586400    0.051000   -0.067500
     11          8           0        4.147100   -1.059700   -0.088100
     12          8           0        4.145000    1.163900   -0.090100
     13          6           0       -0.023600   -1.145800    0.083500
     14          1           0       -0.436700   -1.872500    0.788900
     15         35           0       -0.535900   -1.869700   -1.740800
 ---------------------------------------------------------------------

 SCF Done:  E(RwB97XD) =  -3010.56226180     A.U. after   20 cycles

 Alpha  occ. eigenvalues -- -483.35991 -62.91071 -56.70679 -56.70226 -56.70225
 Alpha  occ. eigenvalues --  -19.47017 -19.46916 -14.86492 -10.60673 -10.59081
 Alpha  occ. eigenvalues --  -10.58556 -10.58374 -10.58039 -10.54149  -9.06914
 Alpha  occ. eigenvalues --   -6.89360  -6.87847  -6.87843  -2.99319  -2.98910
 Alpha  occ. eigenvalues --   -2.98905  -2.97693  -2.97693  -1.50728  -1.33698
 Alpha  occ. eigenvalues --   -1.24272  -1.16461  -1.13202  -1.07935  -1.02263
 Alpha  occ. eigenvalues --   -0.97020  -0.92275  -0.86386  -0.82063  -0.81776
 Alpha  occ. eigenvalues --   -0.81122  -0.79463  -0.77289  -0.77182  -0.74800
 Alpha  occ. eigenvalues --   -0.70703  -0.68931  -0.65868  -0.63694  -0.61824
 Alpha  occ. eigenvalues --   -0.58468  -0.58084  -0.57143  -0.56663
 Alpha virt. eigenvalues --   -0.31795  -0.23228  -0.22252  -0.18920  -0.16438
 Alpha virt. eigenvalues --   -0.15258  -0.14174  -0.11150  -0.09684  -0.09473
 Alpha virt. eigenvalues --   -0.06476  -0.05437  -0.04180  -0.03189  -0.02954

 Mulliken charges:
               1
     1  C   -0.637483
     2  C    0.599214
     3  C   -0.735970
     4  C    0.309261
     5  C    0.083793
     6  H    0.348820
     7  H    0.373328
     8  H    0.385794
     9  H    0.366063
    10  N   -0.111047
    11  O    0.038392
    12  O    0.033361
    13  C   -0.462565
    14  H    0.500134
    15  Br  -0.091094
 Sum of Mulliken charges =   1.00000

 Dipole moment (field-independent basis, Debye):
    X=             -0.1410    Y=              0.4437    Z=              4.8966  Tot=              4.9186
 Quadrupole moment (field-independent basis, Debye-Ang):
   XX=            -70.3420   YY=            -53.5172   ZZ=            -68.6657
   XY=              0.5646   XZ=              3.3525   YZ=             -2.5461

 Normal termination of Gaussian 16 at Wed May  1 15:13:22 2024.
