 Gaussian 16, Revision C.01,
 Gaussian 16:  ES64L-G16RevC.01  3-Jul-2019

 ----------------------------------------
 #P wB97XD/6-311+G* NoSymm #P Field=Y+175
 ----------------------------------------

 -------
 TitleMe
 -------
 Symbolic Z-matrix:
 Charge =  1 Multiplicity = 1

                          Input orientation:
 ---------------------------------------------------------------------
 Center     Atomic      Atomic             Coordinates (Angstroms)
 Number     Number       Type             X           Y           Z
 ---------------------------------------------------------------------
      1          6           0        0.519300    1.233000   -0.031900
      2          6           0        1.944500    1.269200   -0.036700
      3          6           0        2.620400    0.092800   -0.025000
      4          6           0       -0.196000    0.030100    0.001000
      5          1           0       -0.020700    2.174200   -0.043400
      6          1           0        2.482800    2.208900   -0.036100
      7          1           0       -1.277700    0.039900    0.011700
      8          7           0        4.092100    0.095900    0.036600
      9          8           0        4.639300   -1.021700    0.144600
     10          8           0        4.664900    1.198400   -0.023300
     11          6           0        0.494300   -1.167100    0.021000
     12          1           0       -0.032500   -2.114900    0.054500
     13          6           0        1.962900   -1.216500   -0.021100
     14          1           0        2.443600   -1.963100    0.615100
     15         35           0        2.173000   -1.949100   -1.906200
 ---------------------------------------------------------------------

 SCF Done:  E(RwB97XD) =  -3010.55585130     A.U. after   21 cycles

 Alpha  occ. eigenvalues -- -483.28626 -62.83603 -56.63335 -56.62719 -56.62698
 Alpha  occ. eigenvalues --  -19.46330 -19.45986 -14.85456 -10.58700 -10.56679
 Alpha  occ. eigenvalues --  -10.55839 -10.55583 -10.53638 -10.52075  -8.99374
 Alpha  occ. eigenvalues --   -6.82155  -6.80142  -6.80077  -2.92033  -2.91514
 Alpha  occ. eigenvalues --   -2.91463  -2.89853  -2.89852  -1.49786  -1.32760
 Alpha  occ. eigenvalues --   -1.21486  -1.12154  -1.11221  -1.03206  -0.99235
 Alpha  occ. eigenvalues --   -0.94403  -0.89924  -0.84633  -0.80500  -0.79836
 Alpha  occ. eigenvalues --   -0.79420  -0.77240  -0.75914  -0.74636  -0.70887
 Alpha  occ. eigenvalues --   -0.67595  -0.66768  -0.62300  -0.58513  -0.57296
 Alpha  occ. eigenvalues --   -0.56440  -0.55725  -0.52991  -0.52261
 Alpha virt. eigenvalues --   -0.28906  -0.20146  -0.15337  -0.13782  -0.12269
 Alpha virt. eigenvalues --   -0.11046  -0.07052  -0.06908  -0.05440  -0.03394
 Alpha virt. eigenvalues --   -0.02524  -0.01712  -0.00758  -0.00115   0.00458

 Mulliken charges:
               1
     1  C   -0.102685
     2  C    0.207912
     3  C   -0.119165
     4  C   -0.382958
     5  H    0.268083
     6  H    0.279076
     7  H    0.326876
     8  N   -0.246609
     9  O    0.186579
    10  O   -0.029642
    11  C   -0.173718
    12  H    0.416556
    13  C   -0.400246
    14  H    0.452370
    15  Br   0.317572
 Sum of Mulliken charges =   1.00000

 Dipole moment (field-independent basis, Debye):
    X=              3.0463    Y=             -6.0611    Z=             -1.4743  Tot=              6.9419
 Quadrupole moment (field-independent basis, Debye-Ang):
   XX=            -67.5925   YY=            -48.9387   ZZ=            -60.3368
   XY=            -13.7468   XZ=             -4.1435   YZ=              5.1920

 Normal termination of Gaussian 16 at Thu May  2 14:19:53 2024.
