 Gaussian 16, Revision A.03,
 Gaussian 16:  ES64L-G16RevA.03 25-Dec-2016

 --------------------------------------------------------------------
 #p B3LYP/6-311+G** #p TD=(singlets,nstates=30)IOp(6/8=3) IOp(9/40=4)
 --------------------------------------------------------------------

 -------------------------------
 Scan Step 232, Bond Length 1.66
 -------------------------------
 Symbolic Z-matrix:
 Charge =  0 Multiplicity = 1

                         Standard orientation:
 ---------------------------------------------------------------------
 Center     Atomic      Atomic             Coordinates (Angstroms)
 Number     Number       Type             X           Y           Z
 ---------------------------------------------------------------------
      1          6           0        0.000000   -0.000000   -0.756081
      2          1           0        0.000000    0.937260   -1.347431
      3          1           0       -0.000000   -0.937260   -1.347431
      4          8           0        0.000000    0.000000    0.903919
 ---------------------------------------------------------------------

 SCF Done:  E(RB3LYP) =  -114.405601622     A.U. after   10 cycles

 Excitation energies and oscillator strengths:

 Excited State   1:      Singlet-A2     1.7722 eV  699.60 nm  f=0.0000  <S**2>=0.000
       3 -> 27         0.00104
       3 -> 38         0.00074
       3 -> 46         0.00333
       4 -> 27         0.00060
       4 -> 46        -0.00122
       5 ->  9         0.00558
       5 -> 13         0.00104
       5 -> 18         0.00252
       5 -> 23         0.00159
       5 -> 28         0.00214
       5 -> 31        -0.00011
       5 -> 37         0.00118
       5 -> 44         0.00030
       5 -> 52         0.00029
       6 -> 27        -0.00063
       6 -> 38        -0.00072
       6 -> 46         0.00123
       7 -> 12        -0.00100
       7 -> 16         0.00493
       7 -> 19        -0.00421
       7 -> 22        -0.00091
       7 -> 25         0.00084
       7 -> 30        -0.00164
       7 -> 33         0.00034
       7 -> 49         0.00012
       7 -> 50         0.00014
       7 -> 53         0.00043
       8 ->  9         0.70905
       8 -> 13        -0.01115
       8 -> 18         0.02145
       8 -> 23        -0.00264
       8 -> 28         0.01092
       8 -> 31         0.00130
       8 -> 37         0.00060
       8 -> 48        -0.00031
       8 -> 52         0.00193
       3 <- 27         0.00043
       3 <- 38         0.00048
       3 <- 46         0.00337
       4 <- 27         0.00107
       4 <- 38         0.00023
       4 <- 46        -0.00098
       5 <- 13        -0.00047
       5 <- 18        -0.00059
       5 <- 23         0.00024
       5 <- 28        -0.00041
       5 <- 31         0.00031
       5 <- 37         0.00067
       6 <- 38        -0.00058
       6 <- 46         0.00094
       7 <- 12         0.00095
       7 <- 16        -0.01027
       7 <- 19         0.00425
       7 <- 22         0.00665
       7 <- 25         0.00057
       7 <- 30         0.00540
       7 <- 33        -0.00045
       7 <- 36         0.00060
       7 <- 40        -0.00038
       7 <- 42         0.00016
       7 <- 49        -0.00044
       7 <- 53         0.00146
       8 <-  9        -0.05751
       8 <- 13         0.00021
       8 <- 18        -0.00693
       8 <- 28        -0.00251
       8 <- 31        -0.00068
       8 <- 37        -0.00038
       8 <- 48         0.00011
       8 <- 52         0.00050
 This state for optimization and/or second-order correction.
 Total Energy, E(TD-HF/TD-DFT) =  -114.340473628
 Copying the excited state density for this state as the 1-particle RhoCI density.

 Excited State   2:      Singlet-A1     4.5959 eV  269.77 nm  f=0.0611  <S**2>=0.000
       3 -> 10        -0.01785
       3 -> 11        -0.00968
       3 -> 14         0.00799
       3 -> 15         0.00343
       3 -> 17        -0.00342
       3 -> 20        -0.00398
       3 -> 21        -0.00058
       3 -> 24         0.00186
       3 -> 26         0.00315
       3 -> 29        -0.00129
       3 -> 32         0.00276
       3 -> 34         0.00193
       3 -> 35        -0.00118
       3 -> 39         0.00071
       3 -> 43         0.00047
       3 -> 45         0.00035
       3 -> 47         0.00229
       3 -> 51         0.00120
       3 -> 54         0.00012
       4 -> 10        -0.00787
       4 -> 11         0.01302
       4 -> 14         0.00422
       4 -> 15        -0.00955
       4 -> 17         0.00293
       4 -> 20         0.00431
       4 -> 21         0.00040
       4 -> 24        -0.00465
       4 -> 26         0.00463
       4 -> 29         0.00098
       4 -> 32        -0.00136
       4 -> 34        -0.00140
       4 -> 35         0.00042
       4 -> 41         0.00012
       4 -> 43        -0.00050
       4 -> 45        -0.00083
       4 -> 47        -0.00109
       4 -> 51        -0.00033
       4 -> 54         0.00012
       5 -> 12         0.01499
       5 -> 16         0.00826
       5 -> 19         0.00143
       5 -> 22         0.00752
       5 -> 25         0.00725
       5 -> 33        -0.00290
       5 -> 36         0.00278
       5 -> 40        -0.00139
       5 -> 42         0.00071
       5 -> 49         0.00039
       5 -> 50        -0.00073
       5 -> 53        -0.00011
       6 -> 10         0.18571
       6 -> 11         0.08588
       6 -> 14        -0.08482
       6 -> 15        -0.04799
       6 -> 17        -0.01913
       6 -> 20        -0.00788
       6 -> 21         0.01117
       6 -> 24        -0.01226
       6 -> 26        -0.00575
       6 -> 29        -0.00726
       6 -> 32         0.00142
       6 -> 34         0.00142
       6 -> 35        -0.00037
       6 -> 39         0.00097
       6 -> 41        -0.00032
       6 -> 43         0.00085
       6 -> 45         0.00082
       6 -> 47         0.00110
       6 -> 51         0.00078
       6 -> 54        -0.00077
       7 ->  9         0.68227
       7 -> 13        -0.00190
       7 -> 18        -0.01618
       7 -> 23        -0.00083
       7 -> 28        -0.00060
       7 -> 31        -0.00313
       7 -> 37         0.00104
       7 -> 44        -0.00103
       7 -> 48         0.00032
       7 -> 52         0.00105
       8 -> 12        -0.00778
       8 -> 16         0.05959
       8 -> 19        -0.02289
       8 -> 22        -0.02243
       8 -> 25         0.00036
       8 -> 30        -0.01098
       8 -> 33         0.00181
       8 -> 36        -0.00204
       8 -> 40         0.00099
       8 -> 42        -0.00036
       8 -> 49         0.00048
       8 -> 50         0.00021
       8 -> 53        -0.00065
       3 <- 10        -0.01254
       3 <- 11        -0.00721
       3 <- 14         0.00611
       3 <- 15         0.00217
       3 <- 17        -0.00181
       3 <- 20        -0.00302
       3 <- 21        -0.00098
       3 <- 24         0.00107
       3 <- 26         0.00178
       3 <- 29        -0.00078
       3 <- 32         0.00251
       3 <- 34         0.00118
       3 <- 35        -0.00103
       3 <- 39         0.00065
       3 <- 43         0.00057
       3 <- 45         0.00054
       3 <- 47         0.00235
       3 <- 51         0.00118
       3 <- 54         0.00023
       4 <- 10        -0.00364
       4 <- 11         0.00846
       4 <- 14         0.00232
       4 <- 15        -0.00588
       4 <- 17         0.00156
       4 <- 20         0.00394
       4 <- 21         0.00027
       4 <- 24        -0.00327
       4 <- 26         0.00376
       4 <- 29         0.00023
       4 <- 32        -0.00163
       4 <- 34        -0.00121
       4 <- 35         0.00067
       4 <- 43        -0.00047
       4 <- 45        -0.00088
       4 <- 47        -0.00071
       4 <- 51        -0.00018
       5 <- 12         0.00730
       5 <- 16         0.00452
       5 <- 19         0.00103
       5 <- 22         0.00486
       5 <- 25         0.00512
       5 <- 30         0.00014
       5 <- 33        -0.00229
       5 <- 36         0.00230
       5 <- 40        -0.00123
       5 <- 42         0.00060
       5 <- 49         0.00035
       5 <- 50        -0.00067
       5 <- 53        -0.00010
       6 <- 10         0.05795
       6 <- 11         0.02919
       6 <- 14        -0.03494
       6 <- 15        -0.02167
       6 <- 17        -0.00986
       6 <- 20        -0.00556
       6 <- 21         0.00677
       6 <- 24        -0.00764
       6 <- 26        -0.00332
       6 <- 29        -0.00505
       6 <- 32         0.00181
       6 <- 34         0.00170
       6 <- 35        -0.00070
       6 <- 39         0.00099
       6 <- 41        -0.00023
       6 <- 43         0.00071
       6 <- 45         0.00070
       6 <- 47         0.00067
       6 <- 51         0.00062
       6 <- 54        -0.00066
       7 <-  9        -0.12719
       7 <- 13         0.00635
       7 <- 18        -0.01330
       7 <- 23         0.00274
       7 <- 28        -0.00329
       7 <- 31        -0.00149
       7 <- 37         0.00042
       7 <- 44        -0.00066
       7 <- 48        -0.00025
       7 <- 52         0.00093
       8 <- 12        -0.00215
       8 <- 16         0.02324
       8 <- 19        -0.01069
       8 <- 22        -0.01285
       8 <- 30        -0.00816
       8 <- 33         0.00138
       8 <- 36        -0.00158
       8 <- 40         0.00080
       8 <- 42        -0.00029
       8 <- 49         0.00030
       8 <- 50         0.00017
       8 <- 53        -0.00059

 Excited State   3:      Singlet-B1     4.9838 eV  248.77 nm  f=0.0013  <S**2>=0.000
       3 ->  9        -0.02741
       3 -> 13         0.00145
       3 -> 18        -0.00434
       3 -> 23         0.00159
       3 -> 28        -0.00083
       3 -> 31        -0.00049
       3 -> 44         0.00023
       3 -> 48         0.00099
       3 -> 52         0.00091
       4 ->  9         0.01271
       4 -> 13        -0.00260
       4 -> 18         0.00019
       4 -> 23        -0.00234
       4 -> 28         0.00028
       4 -> 31        -0.00145
       4 -> 37        -0.00038
       4 -> 44         0.00012
       4 -> 48        -0.00098
       4 -> 52        -0.00052
       5 -> 38         0.00200
       5 -> 46         0.00076
       6 ->  9         0.70325
       6 -> 13        -0.01915
       6 -> 18         0.01606
       6 -> 23        -0.01075
       6 -> 28         0.00397
       6 -> 31         0.00305
       6 -> 37        -0.00204
       6 -> 44        -0.00261
       6 -> 48         0.00395
       6 -> 52         0.00135
       7 -> 10         0.06707
       7 -> 11         0.02636
       7 -> 14        -0.01998
       7 -> 15        -0.00624
       7 -> 17        -0.00897
       7 -> 20         0.00317
       7 -> 21         0.00054
       7 -> 24        -0.00095
       7 -> 26        -0.00179
       7 -> 29        -0.00385
       7 -> 32        -0.00043
       7 -> 34         0.00090
       7 -> 35         0.00171
       7 -> 39         0.00016
       7 -> 41        -0.00042
       7 -> 43         0.00052
       7 -> 47         0.00406
       7 -> 51         0.00119
       7 -> 54         0.00032
       8 -> 27         0.00035
       8 -> 46         0.00505
       3 <-  9        -0.00924
       3 <- 13        -0.00074
       3 <- 18        -0.00279
       3 <- 23        -0.00060
       3 <- 28        -0.00051
       3 <- 31        -0.00070
       3 <- 37         0.00010
       3 <- 44        -0.00021
       3 <- 48         0.00114
       3 <- 52         0.00074
       4 <-  9         0.00669
       4 <- 13        -0.00036
       4 <- 18         0.00180
       4 <- 23        -0.00070
       4 <- 28         0.00153
       4 <- 31        -0.00097
       4 <- 37        -0.00023
       4 <- 48        -0.00085
       4 <- 52        -0.00029
       5 <- 27        -0.00050
       5 <- 38         0.00165
       5 <- 46         0.00067
       6 <-  9        -0.02738
       6 <- 13         0.00174
       6 <- 18        -0.00349
       6 <- 23        -0.00023
       6 <- 28        -0.00351
       6 <- 31         0.00100
       6 <- 37        -0.00175
       6 <- 44        -0.00131
       6 <- 48         0.00354
       6 <- 52         0.00041
       7 <- 10        -0.02367
       7 <- 11        -0.01183
       7 <- 14         0.01512
       7 <- 15         0.01084
       7 <- 17         0.00188
       7 <- 20         0.00458
       7 <- 21        -0.00401
       7 <- 24         0.00439
       7 <- 26         0.00170
       7 <- 29         0.00133
       7 <- 32         0.00011
       7 <- 34         0.00099
       7 <- 35         0.00241
       7 <- 39         0.00048
       7 <- 43         0.00035
       7 <- 45        -0.00020
       7 <- 47         0.00374
       7 <- 51         0.00113
       7 <- 54         0.00103
       8 <- 27         0.00083
       8 <- 38         0.00022
       8 <- 46         0.00472

 Excited State   4:      Singlet-B2     5.4651 eV  226.87 nm  f=0.0090  <S**2>=0.000
       3 -> 12        -0.00149
       3 -> 16         0.00197
       3 -> 19        -0.00462
       3 -> 22         0.00068
       3 -> 25         0.00062
       3 -> 30        -0.00333
       3 -> 33        -0.00014
       3 -> 36         0.00210
       3 -> 40        -0.00180
       3 -> 42         0.00033
       3 -> 49        -0.00308
       3 -> 50         0.00022
       3 -> 53         0.00031
       4 -> 12         0.00045
       4 -> 16        -0.00243
       4 -> 19         0.00033
       4 -> 22         0.00276
       4 -> 25        -0.00151
       4 -> 30         0.00141
       4 -> 33        -0.00046
       4 -> 36         0.00053
       4 -> 40         0.00047
       4 -> 49         0.00054
       4 -> 50        -0.00012
       5 -> 10         0.00973
       5 -> 11         0.00452
       5 -> 14        -0.00942
       5 -> 15         0.00425
       5 -> 17         0.00011
       5 -> 20         0.00216
       5 -> 21         0.00541
       5 -> 24         0.00182
       5 -> 26        -0.00145
       5 -> 29        -0.00199
       5 -> 32        -0.00190
       5 -> 34        -0.00099
       5 -> 35        -0.00030
       5 -> 39        -0.00100
       5 -> 41         0.00066
       5 -> 45         0.00013
       5 -> 47        -0.00076
       5 -> 51         0.00046
       5 -> 54        -0.00024
       6 -> 12         0.00301
       6 -> 16        -0.00204
       6 -> 19         0.00345
       6 -> 22        -0.00034
       6 -> 25        -0.00092
       6 -> 30        -0.00043
       6 -> 33         0.00020
       6 -> 36        -0.00197
       6 -> 40         0.00161
       6 -> 42        -0.00051
       6 -> 49         0.00163
       6 -> 53        -0.00040
       7 -> 27        -0.00068
       7 -> 38         0.00071
       7 -> 46         0.00374
       8 -> 10         0.66883
       8 -> 11         0.19344
       8 -> 14        -0.11388
       8 -> 15        -0.04802
       8 -> 17        -0.01525
       8 -> 20         0.00022
       8 -> 21         0.00751
       8 -> 24        -0.00691
       8 -> 26        -0.00555
       8 -> 29        -0.01084
       8 -> 32        -0.00355
       8 -> 34        -0.00195
       8 -> 39        -0.00073
       8 -> 43        -0.00028
       8 -> 45         0.00145
       8 -> 47        -0.00454
       8 -> 51         0.00216
       8 -> 54        -0.00193
       3 <- 12        -0.00054
       3 <- 16         0.00057
       3 <- 19        -0.00219
       3 <- 22         0.00094
       3 <- 25         0.00056
       3 <- 30        -0.00132
       3 <- 33        -0.00011
       3 <- 36         0.00158
       3 <- 40        -0.00158
       3 <- 42         0.00027
       3 <- 49        -0.00317
       3 <- 50         0.00019
       3 <- 53         0.00086
       4 <- 16        -0.00221
       4 <- 22         0.00264
       4 <- 25        -0.00094
       4 <- 30         0.00134
       4 <- 33        -0.00052
       4 <- 36         0.00075
       4 <- 40         0.00017
       4 <- 49         0.00040
       5 <- 10        -0.00031
       5 <- 11        -0.00142
       5 <- 14        -0.00108
       5 <- 15         0.00365
       5 <- 17         0.00021
       5 <- 20         0.00066
       5 <- 21         0.00208
       5 <- 24         0.00234
       5 <- 26        -0.00040
       5 <- 29        -0.00047
       5 <- 32        -0.00016
       5 <- 34        -0.00021
       5 <- 39        -0.00036
       5 <- 41         0.00068
       5 <- 43         0.00011
       5 <- 45         0.00040
       5 <- 47        -0.00067
       5 <- 51         0.00025
       6 <- 12        -0.00012
       6 <- 16         0.00616
       6 <- 19        -0.00283
       6 <- 22        -0.00445
       6 <- 25        -0.00069
       6 <- 30        -0.00519
       6 <- 33         0.00051
       6 <- 36        -0.00195
       6 <- 40         0.00164
       6 <- 42        -0.00058
       6 <- 49         0.00187
       6 <- 53        -0.00118
       7 <- 27        -0.00066
       7 <- 38         0.00056
       7 <- 46         0.00312
       8 <- 10        -0.02161
       8 <- 11        -0.01120
       8 <- 14         0.01125
       8 <- 15         0.00357
       8 <- 17         0.00064
       8 <- 20        -0.00266
       8 <- 21        -0.00215
       8 <- 24         0.00153
       8 <- 26         0.00187
       8 <- 29        -0.00057
       8 <- 32         0.00275
       8 <- 34         0.00128
       8 <- 35        -0.00041
       8 <- 39         0.00151
       8 <- 41         0.00048
       8 <- 43         0.00043
       8 <- 45         0.00217
       8 <- 47        -0.00349
       8 <- 51         0.00139
       8 <- 54        -0.00050

 Excited State   5:      Singlet-B1     6.5248 eV  190.02 nm  f=0.0075  <S**2>=0.000
       3 ->  9        -0.01446
       3 -> 13         0.00089
       3 -> 18        -0.00313
       3 -> 23         0.00103
       3 -> 28        -0.00342
       3 -> 31        -0.00158
       3 -> 44         0.00050
       3 -> 48        -0.00220
       4 ->  9        -0.03511
       4 -> 13         0.00640
       4 -> 18         0.00151
       4 -> 23         0.00465
       4 -> 28         0.00203
       4 -> 31        -0.00024
       4 -> 37         0.00036
       4 -> 44        -0.00046
       4 -> 48         0.00053
       4 -> 52         0.00011
       5 -> 27        -0.00738
       5 -> 38        -0.00309
       5 -> 46         0.00056
       6 ->  9        -0.07228
       6 -> 13        -0.00351
       6 -> 18         0.00231
       6 -> 23        -0.00121
       6 -> 28         0.00331
       6 -> 31        -0.00362
       6 -> 37         0.00185
       6 -> 48         0.00095
       6 -> 52        -0.00049
       7 -> 10         0.67373
       7 -> 11         0.16495
       7 -> 14        -0.10118
       7 -> 15        -0.05113
       7 -> 17        -0.00944
       7 -> 20        -0.00513
       7 -> 21         0.00350
       7 -> 24        -0.00955
       7 -> 26        -0.00766
       7 -> 29        -0.00652
       7 -> 32        -0.00153
       7 -> 34        -0.00396
       7 -> 35        -0.00201
       7 -> 39        -0.00068
       7 -> 43         0.00058
       7 -> 45         0.00081
       7 -> 47         0.00206
       7 -> 51         0.00105
       7 -> 54        -0.00129
       8 -> 27         0.00121
       8 -> 38         0.00033
       8 -> 46         0.00240
       3 <-  9        -0.00303
       3 <- 13         0.00066
       3 <- 18        -0.00127
       3 <- 23         0.00063
       3 <- 28        -0.00209
       3 <- 31        -0.00030
       3 <- 37        -0.00021
       3 <- 44         0.00022
       3 <- 48        -0.00239
       3 <- 52         0.00043
       4 <-  9        -0.01066
       4 <- 13         0.00234
       4 <- 18         0.00055
       4 <- 23         0.00223
       4 <- 28         0.00180
       4 <- 31        -0.00037
       4 <- 37         0.00044
       4 <- 44        -0.00069
       4 <- 48         0.00012
       5 <- 27        -0.00483
       5 <- 38        -0.00233
       5 <- 46         0.00050
       6 <-  9        -0.02362
       6 <- 18        -0.00357

 The electronic state is 1-A1.
 Alpha  occ. eigenvalues --  -19.17391 -10.33047  -0.91699  -0.70188  -0.48924
 Alpha  occ. eigenvalues --   -0.40888  -0.32357  -0.28912
 Alpha virt. eigenvalues --   -0.15310  -0.02506   0.00681   0.04077   0.06114
 Alpha virt. eigenvalues --    0.07909   0.12489   0.14125   0.18900   0.21300
 Alpha virt. eigenvalues --    0.23984   0.30239   0.38879   0.40655   0.50885

 Mulliken charges:
               1
     1  C   -0.071501
     2  H    0.183741
     3  H    0.183741
     4  O   -0.295982
 Sum of Mulliken charges =   0.00000

 Dipole moment (field-independent basis, Debye):
    X=             -0.0000    Y=              0.0000    Z=             -3.8767  Tot=              3.8767
 Quadrupole moment (field-independent basis, Debye-Ang):
   XX=            -12.8303   YY=            -11.9283   ZZ=            -11.1361
   XY=              0.0000   XZ=              0.0000   YZ=             -0.0000

 Normal termination of Gaussian 16 at Fri Sep 17 10:53:04 2021.
