 Gaussian 16, Revision C.01,
 Gaussian 16:  ES64L-G16RevC.01  3-Jul-2019

 ----------------------------------------
 #P wB97XD/6-311+G* NoSymm #P Field=Z+252
 ----------------------------------------

 -------
 TitleMe
 -------
 Symbolic Z-matrix:
 Charge =  1 Multiplicity = 1

                          Input orientation:
 ---------------------------------------------------------------------
 Center     Atomic      Atomic             Coordinates (Angstroms)
 Number     Number       Type             X           Y           Z
 ---------------------------------------------------------------------
      1          6           0        0.519300    1.233000   -0.031900
      2          6           0        1.944500    1.269200   -0.036700
      3          6           0        2.620400    0.092800   -0.025000
      4          6           0       -0.196000    0.030100    0.001000
      5          1           0       -0.020700    2.174200   -0.043400
      6          1           0        2.482800    2.208900   -0.036100
      7          1           0       -1.277700    0.039900    0.011700
      8          7           0        4.092100    0.095900    0.036600
      9          8           0        4.639300   -1.021700    0.144600
     10          8           0        4.664900    1.198400   -0.023300
     11          6           0        0.494300   -1.167100    0.021000
     12          1           0       -0.032500   -2.114900    0.054500
     13          6           0        1.962900   -1.216500   -0.021100
     14          1           0        2.443600   -1.963100    0.615100
     15         35           0        2.173000   -1.949100   -1.906200
 ---------------------------------------------------------------------

 SCF Done:  E(RwB97XD) =  -3010.56202202     A.U. after   21 cycles

 Alpha  occ. eigenvalues -- -483.27435 -62.82377 -56.62145 -56.61484 -56.61455
 Alpha  occ. eigenvalues --  -19.45699 -19.45692 -14.85042 -10.57781 -10.55865
 Alpha  occ. eigenvalues --  -10.55762 -10.55147 -10.52024 -10.51465  -8.98123
 Alpha  occ. eigenvalues --   -6.80997  -6.78847  -6.78762  -2.90852  -2.90304
 Alpha  occ. eigenvalues --   -2.90237  -2.88519  -2.88517  -1.49347  -1.32330
 Alpha  occ. eigenvalues --   -1.20797  -1.11454  -1.10414  -1.02157  -0.98364
 Alpha  occ. eigenvalues --   -0.93702  -0.89195  -0.84051  -0.79944  -0.79249
 Alpha  occ. eigenvalues --   -0.78921  -0.76640  -0.75376  -0.74164  -0.69948
 Alpha  occ. eigenvalues --   -0.67069  -0.66143  -0.60912  -0.57859  -0.56810
 Alpha  occ. eigenvalues --   -0.56053  -0.55354  -0.51464  -0.50676
 Alpha virt. eigenvalues --   -0.28159  -0.19559  -0.14816  -0.12976  -0.11431
 Alpha virt. eigenvalues --   -0.10238  -0.10107  -0.06758  -0.05927  -0.04877
 Alpha virt. eigenvalues --   -0.02781  -0.01368   0.00139   0.00331   0.01235

 Mulliken charges:
               1
     1  C   -0.177728
     2  C    0.254643
     3  C   -0.011990
     4  C   -0.346875
     5  H    0.344610
     6  H    0.349882
     7  H    0.327962
     8  N   -0.295601
     9  O    0.089434
    10  O    0.071762
    11  C   -0.259704
    12  H    0.351521
    13  C   -0.458154
    14  H    0.329923
    15  Br   0.430316
 Sum of Mulliken charges =   1.00000

 Dipole moment (field-independent basis, Debye):
    X=              3.1932    Y=             -1.9715    Z=             -5.3656  Tot=              6.5477
 Quadrupole moment (field-independent basis, Debye-Ang):
   XX=            -67.8919   YY=            -49.5419   ZZ=            -56.8693
   XY=             -5.1561   XZ=            -12.0559   YZ=              6.9308

 Normal termination of Gaussian 16 at Thu May  2 14:20:16 2024.
