 Gaussian 16, Revision A.03,
 Gaussian 16:  ES64L-G16RevA.03 25-Dec-2016

 --------------------------------------------------------------------
 #p B3LYP/6-311+G** #p TD=(singlets,nstates=30)IOp(6/8=3) IOp(9/40=4)
 --------------------------------------------------------------------

 -------------------------------
 Scan Step 208, Bond Length 1.54
 -------------------------------
 Symbolic Z-matrix:
 Charge =  0 Multiplicity = 1

                         Standard orientation:
 ---------------------------------------------------------------------
 Center     Atomic      Atomic             Coordinates (Angstroms)
 Number     Number       Type             X           Y           Z
 ---------------------------------------------------------------------
      1          6           0        0.000000    0.000000   -0.696081
      2          1           0        0.000000    0.937260   -1.287431
      3          1           0       -0.000000   -0.937260   -1.287431
      4          8           0        0.000000   -0.000000    0.843919
 ---------------------------------------------------------------------

 SCF Done:  E(RB3LYP) =  -114.450369876     A.U. after   10 cycles

 Excitation energies and oscillator strengths:

 Excited State   1:      Singlet-A2     2.2187 eV  558.82 nm  f=0.0000  <S**2>=0.000
       3 -> 27         0.00135
       3 -> 38         0.00103
       3 -> 46         0.00323
       4 -> 27         0.00082
       4 -> 38        -0.00017
       4 -> 46        -0.00135
       5 ->  9         0.00949
       5 -> 13         0.00074
       5 -> 18         0.00327
       5 -> 23         0.00159
       5 -> 28         0.00289
       5 -> 31        -0.00029
       5 -> 37         0.00163
       5 -> 44         0.00037
       5 -> 52         0.00040
       6 -> 27        -0.00061
       6 -> 38        -0.00081
       6 -> 46         0.00144
       7 -> 12        -0.00083
       7 -> 16         0.00454
       7 -> 19        -0.00387
       7 -> 22        -0.00063
       7 -> 25         0.00105
       7 -> 30        -0.00144
       7 -> 33         0.00039
       7 -> 49         0.00013
       7 -> 50         0.00019
       7 -> 53         0.00046
       8 ->  9         0.70807
       8 -> 13        -0.01568
       8 -> 18         0.02180
       8 -> 23        -0.00431
       8 -> 28         0.01107
       8 -> 31         0.00074
       8 -> 37         0.00065
       8 -> 48        -0.00031
       8 -> 52         0.00193
       3 <- 27         0.00067
       3 <- 38         0.00074
       3 <- 46         0.00329
       4 <- 27         0.00139
       4 <- 38         0.00023
       4 <- 46        -0.00110
       5 <-  9        -0.00037
       5 <- 13        -0.00057
       5 <- 18        -0.00076
       5 <- 23         0.00031
       5 <- 28        -0.00053
       5 <- 31         0.00040
       5 <- 37         0.00089
       5 <- 44         0.00012
       5 <- 52         0.00011
       6 <- 38        -0.00067
       6 <- 46         0.00111
       7 <- 12         0.00036
       7 <- 16        -0.00978
       7 <- 19         0.00323
       7 <- 22         0.00712
       7 <- 25         0.00048
       7 <- 30         0.00510
       7 <- 33        -0.00062
       7 <- 36         0.00106
       7 <- 40         0.00058
       7 <- 42         0.00012
       7 <- 49        -0.00034
       7 <- 50         0.00012
       7 <- 53         0.00145
       8 <-  9        -0.04637
       8 <- 13         0.00076
       8 <- 18        -0.00626
       8 <- 23         0.00030
       8 <- 28        -0.00221
       8 <- 31        -0.00058
       8 <- 37        -0.00056
       8 <- 52         0.00052
 This state for optimization and/or second-order correction.
 Total Energy, E(TD-HF/TD-DFT) =  -114.368835110
 Copying the excited state density for this state as the 1-particle RhoCI density.

 Excited State   2:      Singlet-A1     5.6396 eV  219.84 nm  f=0.0919  <S**2>=0.000
       3 -> 10         0.01166
       3 -> 11        -0.01645
       3 -> 14        -0.01298
       3 -> 15         0.01249
       3 -> 17        -0.00367
       3 -> 20        -0.00352
       3 -> 21        -0.00203
       3 -> 24         0.00329
       3 -> 26         0.00498
       3 -> 29        -0.00085
       3 -> 32         0.00278
       3 -> 34         0.00313
       3 -> 35        -0.00042
       3 -> 39         0.00096
       3 -> 43         0.00043
       3 -> 45        -0.00049
       3 -> 47         0.00214
       3 -> 51         0.00083
       3 -> 54         0.00025
       4 -> 10         0.01654
       4 -> 11         0.01094
       4 -> 14        -0.00908
       4 -> 15        -0.00891
       4 -> 17         0.00326
       4 -> 20         0.00651
       4 -> 21         0.00038
       4 -> 24        -0.00563
       4 -> 26         0.00548
       4 -> 29         0.00116
       4 -> 32        -0.00126
       4 -> 34        -0.00217
       4 -> 35         0.00016
       4 -> 39        -0.00015
       4 -> 41         0.00014
       4 -> 43        -0.00036
       4 -> 45        -0.00057
       4 -> 47        -0.00148
       4 -> 51        -0.00029
       5 -> 12         0.02036
       5 -> 16         0.01515
       5 -> 19         0.00157
       5 -> 22         0.00680
       5 -> 25         0.00956
       5 -> 30        -0.00077
       5 -> 33        -0.00323
       5 -> 36         0.00263
       5 -> 40         0.00156
       5 -> 42         0.00062
       5 -> 49         0.00054
       5 -> 50        -0.00062
       5 -> 53        -0.00018
       6 -> 10        -0.09251
       6 -> 11         0.10969
       6 -> 14         0.08701
       6 -> 15        -0.09853
       6 -> 17        -0.02052
       6 -> 20        -0.01619
       6 -> 21         0.01734
       6 -> 24        -0.01666
       6 -> 26        -0.00831
       6 -> 29        -0.00887
       6 -> 32         0.00033
       6 -> 34         0.00171
       6 -> 35        -0.00115
       6 -> 39         0.00066
       6 -> 41        -0.00054
       6 -> 43         0.00073
       6 -> 45         0.00059
       6 -> 47         0.00152
       6 -> 51         0.00084
       6 -> 54        -0.00055
       7 ->  9         0.68560
       7 -> 13         0.00512
       7 -> 18        -0.02113
       7 -> 23         0.00150
       7 -> 28        -0.00243
       7 -> 31        -0.00279
       7 -> 37         0.00068
       7 -> 44        -0.00106
       7 -> 48         0.00050
       7 -> 52         0.00104
       8 -> 12        -0.00595
       8 -> 16         0.08399
       8 -> 19        -0.02564
       8 -> 22        -0.03204
       8 -> 25         0.00113
       8 -> 30        -0.01324
       8 -> 33         0.00298
       8 -> 36        -0.00373
       8 -> 40        -0.00172
       8 -> 42        -0.00034
       8 -> 49         0.00066
       8 -> 50         0.00027
       8 -> 53        -0.00079
       3 <- 10         0.00737
       3 <- 11        -0.01099
       3 <- 14        -0.00933
       3 <- 15         0.00844
       3 <- 17        -0.00184
       3 <- 20        -0.00238
       3 <- 21        -0.00215
       3 <- 24         0.00215
       3 <- 26         0.00309
       3 <- 29        -0.00048
       3 <- 32         0.00255
       3 <- 34         0.00207
       3 <- 35        -0.00041
       3 <- 39         0.00081
       3 <- 41         0.00011
       3 <- 43         0.00051
       3 <- 45        -0.00032
       3 <- 47         0.00231
       3 <- 51         0.00081
       3 <- 54         0.00033
       4 <- 10         0.00804
       4 <- 11         0.00654
       4 <- 14        -0.00441
       4 <- 15        -0.00523
       4 <- 17         0.00155
       4 <- 20         0.00497
       4 <- 21         0.00031
       4 <- 24        -0.00369
       4 <- 26         0.00418
       4 <- 29         0.00029
       4 <- 32        -0.00161
       4 <- 34        -0.00190
       4 <- 35         0.00037
       4 <- 39        -0.00021
       4 <- 43        -0.00036
       4 <- 45        -0.00079
       4 <- 47        -0.00109
       4 <- 51        -0.00012
       5 <- 12         0.00821
       5 <- 16         0.00714
       5 <- 19         0.00104
       5 <- 22         0.00399
       5 <- 25         0.00619
       5 <- 30        -0.00038
       5 <- 33        -0.00245
       5 <- 36         0.00211
       5 <- 40         0.00134
       5 <- 42         0.00050
       5 <- 49         0.00047
       5 <- 50        -0.00056
       5 <- 53        -0.00016
       6 <- 10        -0.02508
       6 <- 11         0.03182
       6 <- 14         0.03190
       6 <- 15        -0.03933
       6 <- 17        -0.00920
       6 <- 20        -0.00910
       6 <- 21         0.00954
       6 <- 24        -0.00979
       6 <- 26        -0.00489
       6 <- 29        -0.00591
       6 <- 32         0.00081
       6 <- 34         0.00201
       6 <- 35        -0.00103
       6 <- 39         0.00078
       6 <- 41        -0.00037
       6 <- 43         0.00064
       6 <- 45         0.00064
       6 <- 47         0.00103
       6 <- 51         0.00066
       6 <- 54        -0.00045
       7 <-  9        -0.11930
       7 <- 13         0.00880
       7 <- 18        -0.01437
       7 <- 23         0.00451
       7 <- 28        -0.00455
       7 <- 31        -0.00118
       7 <- 37         0.00017
       7 <- 44        -0.00057
       7 <- 52         0.00089
       8 <- 12        -0.00109
       8 <- 16         0.02596
       8 <- 19        -0.00981
       8 <- 22        -0.01617
       8 <- 25         0.00034
       8 <- 30        -0.00920
       8 <- 33         0.00216
       8 <- 36        -0.00278
       8 <- 40        -0.00137
       8 <- 42        -0.00027
       8 <- 49         0.00045
       8 <- 50         0.00022
       8 <- 53        -0.00071

 Excited State   3:      Singlet-B1     5.8612 eV  211.53 nm  f=0.0015  <S**2>=0.000
       3 ->  9        -0.03042
       3 -> 13         0.00213
       3 -> 18        -0.00511
       3 -> 23         0.00209
       3 -> 28        -0.00115
       3 -> 31        -0.00049
       3 -> 44         0.00028
       3 -> 48         0.00087
       3 -> 52         0.00101
       4 ->  9         0.01439
       4 -> 13        -0.00270
       4 -> 18         0.00038
       4 -> 23        -0.00246
       4 -> 28         0.00021
       4 -> 31        -0.00166
       4 -> 37        -0.00043
       4 -> 44         0.00012
       4 -> 48        -0.00123
       4 -> 52        -0.00067
       5 -> 27        -0.00042
       5 -> 38         0.00200
       5 -> 46         0.00117
       6 ->  9         0.70589
       6 -> 13        -0.02175
       6 -> 18         0.01779
       6 -> 23        -0.01127
       6 -> 28         0.00475
       6 -> 31         0.00354
       6 -> 37        -0.00232
       6 -> 44        -0.00307
       6 -> 48         0.00442
       6 -> 52         0.00156
       7 -> 10        -0.01742
       7 -> 11         0.01864
       7 -> 14         0.01206
       7 -> 15        -0.00820
       7 -> 17        -0.00958
       7 -> 20         0.00259
       7 -> 21        -0.00034
       7 -> 24        -0.00019
       7 -> 26        -0.00116
       7 -> 29        -0.00411
       7 -> 32        -0.00083
       7 -> 34         0.00034
       7 -> 35         0.00185
       7 -> 39         0.00012
       7 -> 41        -0.00077
       7 -> 43         0.00062
       7 -> 45        -0.00138
       7 -> 47         0.00432
       7 -> 51         0.00116
       7 -> 54         0.00049
       8 -> 27         0.00079
       8 -> 38         0.00021
       8 -> 46         0.00570
       3 <-  9        -0.01009
       3 <- 13        -0.00045
       3 <- 18        -0.00304
       3 <- 23        -0.00044
       3 <- 28        -0.00076
       3 <- 31        -0.00062
       3 <- 44        -0.00027
       3 <- 48         0.00107
       3 <- 52         0.00081
       4 <-  9         0.00665
       4 <- 13        -0.00015
       4 <- 18         0.00211
       4 <- 23        -0.00049
       4 <- 28         0.00180
       4 <- 31        -0.00116
       4 <- 37        -0.00018
       4 <- 44         0.00013
       4 <- 48        -0.00106
       4 <- 52        -0.00038
       5 <- 27        -0.00091
       5 <- 38         0.00160
       5 <- 46         0.00104
       6 <-  9        -0.02388
       6 <- 13         0.00175
       6 <- 18        -0.00312
       6 <- 23        -0.00026
       6 <- 28        -0.00321
       6 <- 31         0.00154
       6 <- 37        -0.00206
       6 <- 44        -0.00175
       6 <- 48         0.00394
       6 <- 52         0.00056
       7 <- 10         0.00887
       7 <- 11        -0.01104
       7 <- 14        -0.01131
       7 <- 15         0.01578
       7 <- 17         0.00095
       7 <- 20         0.00549
       7 <- 21        -0.00482
       7 <- 24         0.00468
       7 <- 26         0.00194
       7 <- 29         0.00087
       7 <- 32        -0.00047
       7 <- 35         0.00288
       7 <- 39         0.00040
       7 <- 41        -0.00039
       7 <- 43         0.00050
       7 <- 45        -0.00141
       7 <- 47         0.00389
       7 <- 51         0.00097
       7 <- 54         0.00109
       8 <- 27         0.00119
       8 <- 38         0.00038
       8 <- 46         0.00525

 Excited State   4:      Singlet-B2     6.5835 eV  188.33 nm  f=0.0186  <S**2>=0.000
       3 -> 12         0.00171
       3 -> 16        -0.00144
       3 -> 19         0.00384
       3 -> 22        -0.00031
       3 -> 30         0.00278
       3 -> 33         0.00038
       3 -> 36        -0.00191
       3 -> 40        -0.00148
       3 -> 42        -0.00015
       3 -> 49         0.00196
       3 -> 50        -0.00021
       3 -> 53        -0.00025
       4 -> 12        -0.00059
       4 -> 16         0.00290
       4 -> 19         0.00052
       4 -> 22        -0.00348
       4 -> 25         0.00264
       4 -> 30        -0.00117
       4 -> 33         0.00041
       4 -> 36        -0.00042
       4 -> 40         0.00050
       4 -> 49        -0.00027
       5 -> 10         0.00010
       5 -> 11        -0.00462
       5 -> 14        -0.01463
       5 -> 15         0.00046
       5 -> 17        -0.00148
       5 -> 20        -0.00152
       5 -> 21        -0.00673
       5 -> 24        -0.00186
       5 -> 26         0.00213
       5 -> 29         0.00186
       5 -> 32         0.00069
       5 -> 34         0.00133
       5 -> 35         0.00065
       5 -> 39         0.00080
       5 -> 41        -0.00082
       5 -> 45        -0.00027
       5 -> 47         0.00074
       5 -> 51        -0.00045
       5 -> 54         0.00021
       6 -> 12        -0.00348
       6 -> 16         0.00121
       6 -> 19        -0.00212
       6 -> 22        -0.00038
       6 -> 25         0.00073
       6 -> 30         0.00047
       6 -> 33        -0.00047
       6 -> 36         0.00212
       6 -> 40         0.00156
       6 -> 42         0.00020
       6 -> 49        -0.00123
       6 -> 53         0.00026
       7 -> 27         0.00051
       7 -> 38        -0.00100
       7 -> 46        -0.00298
       8 -> 10         0.64460
       8 -> 11        -0.26198
       8 -> 14        -0.09994
       8 -> 15         0.07503
       8 -> 17         0.00827
       8 -> 20         0.00557
       8 -> 21        -0.00409
       8 -> 24         0.00486
       8 -> 26         0.00537
       8 -> 29         0.00770
       8 -> 32         0.00192
       8 -> 34         0.00124
       8 -> 35         0.00068
       8 -> 39         0.00044
       8 -> 41        -0.00046
       8 -> 43         0.00062
       8 -> 45        -0.00212
       8 -> 47         0.00308
       8 -> 51        -0.00186
       8 -> 54         0.00113
       3 <- 12         0.00056
       3 <- 16        -0.00027
       3 <- 19         0.00180
       3 <- 22        -0.00082
       3 <- 30         0.00110
       3 <- 33         0.00034
       3 <- 36        -0.00154
       3 <- 40        -0.00134
       3 <- 42        -0.00013
       3 <- 49         0.00202
       3 <- 50        -0.00017
       3 <- 53        -0.00068
       4 <- 12         0.00046
       4 <- 16         0.00246
       4 <- 19         0.00065
       4 <- 22        -0.00278
       4 <- 25         0.00163
       4 <- 30        -0.00095
       4 <- 33         0.00050
       4 <- 36        -0.00061
       4 <- 40         0.00014
       4 <- 42        -0.00017
       4 <- 49        -0.00021
       5 <- 10         0.00136
       5 <- 11         0.00135
       5 <- 14        -0.00331
       5 <- 15        -0.00330
       5 <- 17        -0.00026
       5 <- 20        -0.00028
       5 <- 21        -0.00198
       5 <- 24        -0.00281
       5 <- 26         0.00083
       5 <- 29         0.00047
       5 <- 32        -0.00043
       5 <- 34         0.00047
       5 <- 39         0.00024
       5 <- 41        -0.00078
       5 <- 43        -0.00015
       5 <- 45        -0.00054
       5 <- 47         0.00051
       5 <- 51        -0.00023
       6 <- 12        -0.00022
       6 <- 16        -0.00396
       6 <- 19         0.00183
       6 <- 22         0.00276
       6 <- 25         0.00031
       6 <- 30         0.00347
       6 <- 33        -0.00068
       6 <- 36         0.00209
       6 <- 40         0.00151
       6 <- 42         0.00025
       6 <- 49        -0.00127
       6 <- 53         0.00076
       7 <- 27         0.00052
       7 <- 38        -0.00077
       7 <- 46        -0.00243
       8 <- 10        -0.00698
       8 <- 11         0.00922
       8 <- 14         0.00943
       8 <- 15        -0.00607
       8 <- 17        -0.00021
       8 <- 20         0.00164
       8 <- 21         0.00229
       8 <- 24        -0.00068
       8 <- 26        -0.00195
       8 <- 29         0.00074
       8 <- 32        -0.00151
       8 <- 34        -0.00121
       8 <- 35        -0.00015
       8 <- 39        -0.00115
       8 <- 41        -0.00058
       8 <- 45        -0.00245
       8 <- 47         0.00205
       8 <- 51        -0.00107
       8 <- 54         0.00027

 Excited State   5:      Singlet-B2     7.1334 eV  173.81 nm  f=0.0057  <S**2>=0.000
       3 -> 12         0.00120
       3 -> 16         0.00182
       3 -> 19        -0.00148
       3 -> 22        -0.00041
       3 -> 25         0.00096
       3 -> 30        -0.00295
       3 -> 36         0.00083
       3 -> 40         0.00072
       3 -> 49        -0.00102
       4 -> 12        -0.00150
       4 -> 16         0.00011
       4 -> 19         0.00081
       4 -> 22        -0.00029
       4 -> 25         0.00013
       4 -> 30         0.00157
       4 -> 33        -0.00029
       4 -> 36         0.00049
       4 -> 50        -0.00013
       5 -> 10        -0.00811
       5 -> 14         0.00202
       5 -> 15         0.00600
       5 -> 17         0.00167
       5 -> 20         0.00245
       5 -> 21         0.00134
       5 -> 26        -0.00078
       5 -> 29        -0.00079
       5 -> 32        -0.00161
       5 -> 35        -0.00052
       5 -> 39        -0.00075
       5 -> 43        -0.00036
       5 -> 45         0.00045
       5 -> 47        -0.00053
       5 -> 51         0.00038
       6 -> 12        -0.00054
       6 -> 16        -0.00019
       6 -> 19         0.00083
       6 -> 22        -0.00110
       6 -> 30        -0.00103
       6 -> 36        -0.00058
       6 -> 40        -0.00096
       6 -> 42        -0.00024
       6 -> 49         0.00153
       6 -> 50        -0.00013
       6 -> 53        -0.00015
       7 -> 27        -0.00071
       7 -> 46         0.00235
       8 -> 10         0.27377
       8 -> 11         0.64899
       8 -> 14         0.02501
       8 -> 15        -0.05368
       8 -> 17        -0.00659
       8 -> 20         0.01535
       8 -> 21         0.00424
       8 -> 24        -0.00418
       8 -> 26         0.00060
       8 -> 29        -0.00415
       8 -> 32        -0.00061
       8 -> 34        -0.00090
       8 -> 35        -0.00088
       8 -> 39         0.00011
       8 -> 41         0.00014
       8 -> 45         0.00205
       8 -> 47        -0.00233
       8 -> 51         0.00134

 The electronic state is 1-A1.
 Alpha  occ. eigenvalues --  -19.16978 -10.32136  -0.94346  -0.69033  -0.48818
 Alpha  occ. eigenvalues --   -0.42320  -0.33923  -0.29002
 Alpha virt. eigenvalues --   -0.13592  -0.00611   0.01956   0.04107   0.06145
 Alpha virt. eigenvalues --    0.10219   0.14123   0.14845   0.18954   0.21513
 Alpha virt. eigenvalues --    0.23925   0.30093   0.39484   0.41715   0.50971

 Mulliken charges:
               1
     1  C   -0.049531
     2  H    0.173065
     3  H    0.173065
     4  O   -0.296598
 Sum of Mulliken charges =   0.00000

 Dipole moment (field-independent basis, Debye):
    X=             -0.0000    Y=              0.0000    Z=             -3.6189  Tot=              3.6189
 Quadrupole moment (field-independent basis, Debye-Ang):
   XX=            -12.6176   YY=            -11.8468   ZZ=            -11.4902
   XY=              0.0000   XZ=              0.0000   YZ=              0.0000

 Normal termination of Gaussian 16 at Fri Sep 17 10:52:56 2021.
