 Gaussian 16, Revision C.01,
 Gaussian 16:  ES64L-G16RevC.01  3-Jul-2019

 ----------------------------------------
 #P wB97XD/6-311+G* NoSymm #P Field=Z-155
 ----------------------------------------

 -------
 TitleMe
 -------
 Symbolic Z-matrix:
 Charge =  1 Multiplicity = 1

                          Input orientation:
 ---------------------------------------------------------------------
 Center     Atomic      Atomic             Coordinates (Angstroms)
 Number     Number       Type             X           Y           Z
 ---------------------------------------------------------------------
      1          6           0        0.029500    1.339700    0.068200
      2          6           0        1.434800    1.286700    0.006400
      3          6           0        2.111800    0.051100   -0.005400
      4          6           0        1.445100   -1.137200    0.031200
      5          6           0       -0.687900    0.168200    0.110000
      6          1           0       -0.471300    2.298400    0.078100
      7          1           0        2.027300    2.196500   -0.032200
      8          1           0        1.989700   -2.076400    0.023200
      9          1           0       -1.771600    0.180400    0.158200
     10          7           0        3.586400    0.051000   -0.067500
     11          8           0        4.147100   -1.059700   -0.088100
     12          8           0        4.145000    1.163900   -0.090100
     13          6           0       -0.023600   -1.145800    0.083500
     14          1           0       -0.436700   -1.872500    0.788900
     15         35           0       -0.535900   -1.869700   -1.740800
 ---------------------------------------------------------------------

 SCF Done:  E(RwB97XD) =  -3010.54339781     A.U. after   18 cycles

 Alpha  occ. eigenvalues -- -483.33633 -62.88693 -56.68337 -56.67832 -56.67831
 Alpha  occ. eigenvalues --  -19.46351 -19.46264 -14.85845 -10.59420 -10.58224
 Alpha  occ. eigenvalues --  -10.57779 -10.57598 -10.57296 -10.53445  -9.04523
 Alpha  occ. eigenvalues --   -6.87069  -6.85402  -6.85390  -2.97005  -2.96559
 Alpha  occ. eigenvalues --   -2.96548  -2.95213  -2.95213  -1.50096  -1.33068
 Alpha  occ. eigenvalues --   -1.23360  -1.15140  -1.12399  -1.06220  -1.01559
 Alpha  occ. eigenvalues --   -0.96164  -0.91520  -0.85737  -0.81290  -0.81135
 Alpha  occ. eigenvalues --   -0.80467  -0.78771  -0.76583  -0.76457  -0.73450
 Alpha  occ. eigenvalues --   -0.69935  -0.68135  -0.64763  -0.61674  -0.59275
 Alpha  occ. eigenvalues --   -0.57544  -0.57074  -0.56515  -0.56050
 Alpha virt. eigenvalues --   -0.30597  -0.21800  -0.17475  -0.14257  -0.13603
 Alpha virt. eigenvalues --   -0.10008  -0.09013  -0.07716  -0.06195  -0.05422
 Alpha virt. eigenvalues --   -0.04204  -0.03572  -0.02927  -0.02250  -0.01761

 Mulliken charges:
               1
     1  C   -0.608840
     2  C    0.564940
     3  C   -0.729739
     4  C    0.304438
     5  C    0.050684
     6  H    0.340649
     7  H    0.368847
     8  H    0.379273
     9  H    0.358078
    10  N   -0.107111
    11  O    0.033368
    12  O    0.029363
    13  C   -0.472071
    14  H    0.457399
    15  Br   0.030721
 Sum of Mulliken charges =   1.00000

 Dipole moment (field-independent basis, Debye):
    X=             -0.4524    Y=             -0.0133    Z=              2.6637  Tot=              2.7019
 Quadrupole moment (field-independent basis, Debye-Ang):
   XX=            -70.7379   YY=            -52.8087   ZZ=            -65.7222
   XY=              0.8852   XZ=              2.3423   YZ=             -0.6346

 Normal termination of Gaussian 16 at Wed May  1 15:17:37 2024.
