 Gaussian 16, Revision A.03,
 Gaussian 16:  ES64L-G16RevA.03 25-Dec-2016

 --------------------------------------------------------------------
 #p B3LYP/6-311+G** #p TD=(singlets,nstates=30)IOp(6/8=3) IOp(9/40=4)
 --------------------------------------------------------------------

 --------------------------------
 Scan Step 237, Bond Length 1.685
 --------------------------------
 Symbolic Z-matrix:
 Charge =  0 Multiplicity = 1

                         Standard orientation:
 ---------------------------------------------------------------------
 Center     Atomic      Atomic             Coordinates (Angstroms)
 Number     Number       Type             X           Y           Z
 ---------------------------------------------------------------------
      1          6           0        0.000000   -0.000000   -0.768581
      2          1           0        0.000000    0.937260   -1.359931
      3          1           0       -0.000000   -0.937260   -1.359931
      4          8           0        0.000000    0.000000    0.916419
 ---------------------------------------------------------------------

 SCF Done:  E(RB3LYP) =  -114.396511372     A.U. after   11 cycles

 Excitation energies and oscillator strengths:

 Excited State   1:      Singlet-A2     1.6911 eV  733.15 nm  f=0.0000  <S**2>=0.000
       3 -> 27         0.00098
       3 -> 38         0.00069
       3 -> 46         0.00334
       4 -> 27         0.00056
       4 -> 46        -0.00119
       5 ->  9         0.00490
       5 -> 13         0.00107
       5 -> 18         0.00239
       5 -> 23         0.00157
       5 -> 28         0.00200
       5 -> 37         0.00110
       5 -> 44         0.00028
       5 -> 52         0.00027
       6 -> 27        -0.00062
       6 -> 38        -0.00070
       6 -> 46         0.00119
       7 -> 12        -0.00104
       7 -> 16         0.00500
       7 -> 19        -0.00428
       7 -> 22        -0.00095
       7 -> 25         0.00080
       7 -> 29        -0.00168
       7 -> 33         0.00033
       7 -> 49         0.00012
       7 -> 50         0.00013
       7 -> 53         0.00042
       8 ->  9         0.70928
       8 -> 13        -0.01039
       8 -> 18         0.02136
       8 -> 23        -0.00235
       8 -> 28         0.01085
       8 -> 31         0.00137
       8 -> 37         0.00058
       8 -> 48        -0.00031
       8 -> 52         0.00192
       3 <- 27         0.00039
       3 <- 38         0.00043
       3 <- 46         0.00338
       4 <- 27         0.00101
       4 <- 38         0.00023
       4 <- 46        -0.00095
       5 <- 13        -0.00045
       5 <- 18        -0.00056
       5 <- 23         0.00023
       5 <- 28        -0.00039
       5 <- 31         0.00029
       5 <- 37         0.00063
       6 <- 38        -0.00055
       6 <- 46         0.00090
       7 <- 12         0.00108
       7 <- 16        -0.01034
       7 <- 19         0.00445
       7 <- 22         0.00653
       7 <- 25         0.00059
       7 <- 29         0.00544
       7 <- 33        -0.00042
       7 <- 36         0.00052
       7 <- 40        -0.00034
       7 <- 42         0.00016
       7 <- 49        -0.00045
       7 <- 53         0.00146
       8 <-  9        -0.05999
       8 <- 13         0.00010
       8 <- 18        -0.00706
       8 <- 28        -0.00255
       8 <- 31        -0.00070
       8 <- 37        -0.00035
       8 <- 48         0.00011
       8 <- 52         0.00049
 This state for optimization and/or second-order correction.
 Total Energy, E(TD-HF/TD-DFT) =  -114.334364218
 Copying the excited state density for this state as the 1-particle RhoCI density.

 Excited State   2:      Singlet-A1     4.4005 eV  281.75 nm  f=0.0557  <S**2>=0.000
       3 -> 10        -0.01804
       3 -> 11        -0.00809
       3 -> 14         0.00661
       3 -> 15         0.00261
       3 -> 17        -0.00338
       3 -> 20        -0.00397
       3 -> 21        -0.00037
       3 -> 24         0.00163
       3 -> 26         0.00284
       3 -> 30        -0.00129
       3 -> 32         0.00276
       3 -> 34         0.00174
       3 -> 35        -0.00119
       3 -> 39         0.00066
       3 -> 43         0.00049
       3 -> 45         0.00046
       3 -> 47         0.00229
       3 -> 51         0.00126
       4 -> 10        -0.00645
       4 -> 11         0.01289
       4 -> 14         0.00370
       4 -> 15        -0.00933
       4 -> 17         0.00284
       4 -> 20         0.00393
       4 -> 21         0.00039
       4 -> 24        -0.00450
       4 -> 26         0.00444
       4 -> 30         0.00091
       4 -> 32        -0.00136
       4 -> 34        -0.00128
       4 -> 35         0.00039
       4 -> 41         0.00012
       4 -> 43        -0.00051
       4 -> 45        -0.00083
       4 -> 47        -0.00103
       4 -> 51        -0.00032
       4 -> 54         0.00013
       5 -> 12         0.01408
       5 -> 16         0.00721
       5 -> 19         0.00140
       5 -> 22         0.00751
       5 -> 25         0.00682
       5 -> 29         0.00010
       5 -> 33        -0.00282
       5 -> 36         0.00278
       5 -> 40        -0.00134
       5 -> 42         0.00075
       5 -> 49         0.00035
       5 -> 50        -0.00075
       6 -> 10         0.20079
       6 -> 11         0.07543
       6 -> 14        -0.07795
       6 -> 15        -0.04215
       6 -> 17        -0.01866
       6 -> 20        -0.00665
       6 -> 21         0.01016
       6 -> 24        -0.01152
       6 -> 26        -0.00532
       6 -> 30        -0.00691
       6 -> 32         0.00173
       6 -> 34         0.00141
       6 -> 35        -0.00021
       6 -> 39         0.00103
       6 -> 41        -0.00028
       6 -> 43         0.00086
       6 -> 45         0.00083
       6 -> 47         0.00105
       6 -> 51         0.00076
       6 -> 54        -0.00080
       7 ->  9         0.68140
       7 -> 13        -0.00290
       7 -> 18        -0.01524
       7 -> 23        -0.00118
       7 -> 28        -0.00027
       7 -> 31        -0.00317
       7 -> 37         0.00110
       7 -> 44        -0.00102
       7 -> 48         0.00028
       7 -> 52         0.00105
       8 -> 12        -0.00787
       8 -> 16         0.05555
       8 -> 19        -0.02226
       8 -> 22        -0.02074
       8 -> 25         0.00026
       8 -> 29        -0.01051
       8 -> 33         0.00164
       8 -> 36        -0.00177
       8 -> 40         0.00085
       8 -> 42        -0.00036
       8 -> 49         0.00043
       8 -> 50         0.00020
       8 -> 53        -0.00062
       3 <- 10        -0.01291
       3 <- 11        -0.00618
       3 <- 14         0.00514
       3 <- 15         0.00158
       3 <- 17        -0.00181
       3 <- 20        -0.00307
       3 <- 21        -0.00079
       3 <- 24         0.00089
       3 <- 26         0.00155
       3 <- 30        -0.00077
       3 <- 32         0.00250
       3 <- 34         0.00104
       3 <- 35        -0.00105
       3 <- 39         0.00062
       3 <- 43         0.00058
       3 <- 45         0.00064
       3 <- 47         0.00235
       3 <- 51         0.00124
       3 <- 54         0.00020
       4 <- 10        -0.00282
       4 <- 11         0.00852
       4 <- 14         0.00213
       4 <- 15        -0.00583
       4 <- 17         0.00154
       4 <- 20         0.00373
       4 <- 21         0.00025
       4 <- 24        -0.00320
       4 <- 26         0.00366
       4 <- 30         0.00019
       4 <- 32        -0.00161
       4 <- 34        -0.00110
       4 <- 35         0.00066
       4 <- 43        -0.00048
       4 <- 45        -0.00085
       4 <- 47        -0.00066
       4 <- 51        -0.00018
       5 <- 12         0.00710
       5 <- 16         0.00406
       5 <- 19         0.00102
       5 <- 22         0.00493
       5 <- 25         0.00489
       5 <- 29         0.00020
       5 <- 33        -0.00225
       5 <- 36         0.00232
       5 <- 40        -0.00119
       5 <- 42         0.00064
       5 <- 49         0.00032
       5 <- 50        -0.00069
       6 <- 10         0.06383
       6 <- 11         0.02645
       6 <- 14        -0.03290
       6 <- 15        -0.01955
       6 <- 17        -0.00987
       6 <- 20        -0.00497
       6 <- 21         0.00629
       6 <- 24        -0.00725
       6 <- 26        -0.00304
       6 <- 30        -0.00483
       6 <- 32         0.00208
       6 <- 34         0.00167
       6 <- 35        -0.00060
       6 <- 39         0.00103
       6 <- 41        -0.00021
       6 <- 43         0.00072
       6 <- 45         0.00068
       6 <- 47         0.00063
       6 <- 51         0.00060
       6 <- 54        -0.00070
       7 <-  9        -0.12825
       7 <- 13         0.00589
       7 <- 18        -0.01304
       7 <- 23         0.00242
       7 <- 28        -0.00304
       7 <- 31        -0.00152
       7 <- 37         0.00047
       7 <- 44        -0.00068
       7 <- 48        -0.00028
       7 <- 52         0.00094
       8 <- 12        -0.00233
       8 <- 16         0.02259
       8 <- 19        -0.01077
       8 <- 22        -0.01216
       8 <- 29        -0.00791
       8 <- 33         0.00126
       8 <- 36        -0.00138
       8 <- 40         0.00069
       8 <- 42        -0.00029
       8 <- 49         0.00026
       8 <- 50         0.00016
       8 <- 53        -0.00057

 Excited State   3:      Singlet-B1     4.8139 eV  257.56 nm  f=0.0012  <S**2>=0.000
       3 ->  9        -0.02677
       3 -> 13         0.00135
       3 -> 18        -0.00421
       3 -> 23         0.00152
       3 -> 28        -0.00080
       3 -> 31        -0.00050
       3 -> 44         0.00024
       3 -> 48         0.00097
       3 -> 52         0.00089
       4 ->  9         0.01224
       4 -> 13        -0.00255
       4 -> 18         0.00016
       4 -> 23        -0.00229
       4 -> 28         0.00031
       4 -> 31        -0.00141
       4 -> 37        -0.00037
       4 -> 44         0.00012
       4 -> 48        -0.00092
       4 -> 52        -0.00048
       5 -> 27         0.00013
       5 -> 38         0.00198
       5 -> 46         0.00070
       6 ->  9         0.70166
       6 -> 13        -0.01874
       6 -> 18         0.01572
       6 -> 23        -0.01066
       6 -> 28         0.00385
       6 -> 31         0.00294
       6 -> 37        -0.00198
       6 -> 44        -0.00250
       6 -> 48         0.00387
       6 -> 52         0.00130
       7 -> 10         0.08374
       7 -> 11         0.02595
       7 -> 14        -0.02077
       7 -> 15        -0.00613
       7 -> 17        -0.00895
       7 -> 20         0.00327
       7 -> 21         0.00072
       7 -> 24        -0.00115
       7 -> 26        -0.00192
       7 -> 30        -0.00387
       7 -> 32        -0.00035
       7 -> 34         0.00092
       7 -> 35         0.00166
       7 -> 39         0.00017
       7 -> 41        -0.00037
       7 -> 43         0.00050
       7 -> 47         0.00397
       7 -> 51         0.00120
       7 -> 54         0.00027
       8 -> 27         0.00029
       8 -> 46         0.00493
       3 <-  9        -0.00904
       3 <- 13        -0.00078
       3 <- 18        -0.00274
       3 <- 23        -0.00061
       3 <- 28        -0.00047
       3 <- 31        -0.00071
       3 <- 37         0.00012
       3 <- 44        -0.00019
       3 <- 48         0.00112
       3 <- 52         0.00073
       4 <-  9         0.00662
       4 <- 13        -0.00039
       4 <- 18         0.00174
       4 <- 23        -0.00073
       4 <- 28         0.00149
       4 <- 31        -0.00095
       4 <- 37        -0.00022
       4 <- 48        -0.00080
       4 <- 52        -0.00027
       5 <- 27        -0.00045
       5 <- 38         0.00165
       5 <- 46         0.00062
       6 <-  9        -0.02859
       6 <- 13         0.00178
       6 <- 18        -0.00362
       6 <- 23        -0.00020
       6 <- 28        -0.00358
       6 <- 31         0.00089
       6 <- 37        -0.00168
       6 <- 44        -0.00120
       6 <- 48         0.00346
       6 <- 52         0.00037
       7 <- 10        -0.02719
       7 <- 11        -0.01118
       7 <- 14         0.01492
       7 <- 15         0.01026
       7 <- 17         0.00205
       7 <- 20         0.00437
       7 <- 21        -0.00388
       7 <- 24         0.00436
       7 <- 26         0.00169
       7 <- 30         0.00144
       7 <- 32         0.00020
       7 <- 34         0.00106
       7 <- 35         0.00227
       7 <- 39         0.00051
       7 <- 43         0.00033
       7 <- 47         0.00367
       7 <- 51         0.00116
       7 <- 54         0.00101
       8 <- 27         0.00077
       8 <- 38         0.00019
       8 <- 46         0.00462

 Excited State   4:      Singlet-B2     5.1991 eV  238.47 nm  f=0.0074  <S**2>=0.000
       3 -> 12        -0.00146
       3 -> 16         0.00192
       3 -> 19        -0.00459
       3 -> 22         0.00076
       3 -> 25         0.00069
       3 -> 29        -0.00326
       3 -> 36         0.00203
       3 -> 40        -0.00176
       3 -> 42         0.00038
       3 -> 49        -0.00323
       3 -> 50         0.00021
       3 -> 53         0.00031
       4 -> 12         0.00046
       4 -> 16        -0.00228
       4 -> 19         0.00038
       4 -> 22         0.00261
       4 -> 25        -0.00133
       4 -> 29         0.00135
       4 -> 33        -0.00045
       4 -> 36         0.00052
       4 -> 40         0.00045
       4 -> 49         0.00059
       4 -> 50        -0.00012
       5 -> 10         0.01044
       5 -> 11         0.00380
       5 -> 14        -0.00822
       5 -> 15         0.00428
       5 -> 20         0.00216
       5 -> 21         0.00504
       5 -> 24         0.00177
       5 -> 26        -0.00130
       5 -> 30        -0.00198
       5 -> 32        -0.00195
       5 -> 34        -0.00086
       5 -> 35        -0.00023
       5 -> 39        -0.00097
       5 -> 41         0.00062
       5 -> 45         0.00011
       5 -> 47        -0.00071
       5 -> 51         0.00043
       5 -> 54        -0.00024
       6 -> 12         0.00291
       6 -> 16        -0.00218
       6 -> 19         0.00360
       6 -> 22        -0.00040
       6 -> 25        -0.00096
       6 -> 29        -0.00036
       6 -> 33         0.00015
       6 -> 36        -0.00187
       6 -> 40         0.00152
       6 -> 42        -0.00056
       6 -> 49         0.00161
       6 -> 53        -0.00041
       7 -> 27        -0.00067
       7 -> 38         0.00065
       7 -> 46         0.00370
       8 -> 10         0.67964
       8 -> 11         0.15948
       8 -> 14        -0.10490
       8 -> 15        -0.04237
       8 -> 17        -0.01573
       8 -> 20         0.00091
       8 -> 21         0.00755
       8 -> 24        -0.00689
       8 -> 26        -0.00546
       8 -> 30        -0.01116
       8 -> 32        -0.00369
       8 -> 34        -0.00188
       8 -> 35         0.00031
       8 -> 39        -0.00075
       8 -> 43        -0.00022
       8 -> 45         0.00131
       8 -> 47        -0.00453
       8 -> 51         0.00210
       8 -> 54        -0.00204
       3 <- 12        -0.00053
       3 <- 16         0.00057
       3 <- 19        -0.00218
       3 <- 22         0.00095
       3 <- 25         0.00062
       3 <- 29        -0.00129
       3 <- 36         0.00151
       3 <- 40        -0.00155
       3 <- 42         0.00031
       3 <- 49        -0.00331
       3 <- 50         0.00019
       3 <- 53         0.00086
       4 <- 16        -0.00214
       4 <- 22         0.00257
       4 <- 25        -0.00083
       4 <- 29         0.00133
       4 <- 33        -0.00050
       4 <- 36         0.00074
       4 <- 40         0.00017
       4 <- 49         0.00043
       5 <- 10        -0.00051
       5 <- 11        -0.00130
       5 <- 14        -0.00091
       5 <- 15         0.00349
       5 <- 17         0.00021
       5 <- 20         0.00070
       5 <- 21         0.00203
       5 <- 24         0.00223
       5 <- 26        -0.00035
       5 <- 30        -0.00046
       5 <- 32        -0.00022
       5 <- 34        -0.00017
       5 <- 39        -0.00036
       5 <- 41         0.00064
       5 <- 43         0.00011
       5 <- 45         0.00037
       5 <- 47        -0.00064
       5 <- 51         0.00023
       6 <- 12        -0.00020
       6 <- 16         0.00644
       6 <- 19        -0.00301
       6 <- 22        -0.00463
       6 <- 25        -0.00077
       6 <- 29        -0.00538
       6 <- 33         0.00046
       6 <- 36        -0.00183
       6 <- 40         0.00155
       6 <- 42        -0.00063
       6 <- 49         0.00188
       6 <- 53        -0.00123
       7 <- 27        -0.00065
       7 <- 38         0.00051
       7 <- 46         0.00310
       8 <- 10        -0.02469
       8 <- 11        -0.01047
       8 <- 14         0.01077
       8 <- 15         0.00320
       8 <- 17         0.00080
       8 <- 20        -0.00274
       8 <- 21        -0.00205
       8 <- 24         0.00158
       8 <- 26         0.00179
       8 <- 30        -0.00039
       8 <- 32         0.00287
       8 <- 34         0.00121
       8 <- 35        -0.00047
       8 <- 39         0.00149
       8 <- 41         0.00043
       8 <- 43         0.00046
       8 <- 45         0.00206
       8 <- 47        -0.00353
       8 <- 51         0.00138
       8 <- 54        -0.00054

 Excited State   5:      Singlet-B1     6.2043 eV  199.84 nm  f=0.0079  <S**2>=0.000
       3 ->  9        -0.01344
       3 -> 13         0.00079
       3 -> 18        -0.00307
       3 -> 23         0.00094
       3 -> 28        -0.00333
       3 -> 31        -0.00161
       3 -> 44         0.00048
       3 -> 48        -0.00234
       4 ->  9        -0.03416
       4 -> 13         0.00635
       4 -> 18         0.00141
       4 -> 23         0.00465
       4 -> 28         0.00190
       4 -> 31        -0.00015
       4 -> 37         0.00035
       4 -> 44        -0.00047
       4 -> 48         0.00058
       4 -> 52         0.00011
       5 -> 27        -0.00726
       5 -> 38        -0.00313
       5 -> 46         0.00050
       6 ->  9        -0.08766
       6 -> 13        -0.00286
       6 -> 18         0.00222
       6 -> 23        -0.00090
       6 -> 28         0.00334
       6 -> 31        -0.00364
       6 -> 37         0.00193
       6 -> 48         0.00081
       6 -> 52        -0.00053
       7 -> 10         0.67974
       7 -> 11         0.13669
       7 -> 14        -0.09386
       7 -> 15        -0.04686
       7 -> 17        -0.00972
       7 -> 20        -0.00466
       7 -> 21         0.00373
       7 -> 24        -0.00985
       7 -> 26        -0.00744
       7 -> 30        -0.00672
       7 -> 32        -0.00178
       7 -> 34        -0.00400
       7 -> 35        -0.00186
       7 -> 39        -0.00067
       7 -> 43         0.00061
       7 -> 45         0.00088
       7 -> 47         0.00193
       7 -> 51         0.00098
       7 -> 54        -0.00138
       8 -> 27         0.00110
       8 -> 38         0.00030
       8 -> 46         0.00227
       3 <-  9        -0.00286
       3 <- 13         0.00066
       3 <- 18        -0.00125
       3 <- 23         0.00061
       3 <- 28        -0.00207
       3 <- 31        -0.00031
       3 <- 37        -0.00021
       3 <- 44         0.00021
       3 <- 48        -0.00253
       3 <- 52         0.00042
       4 <-  9        -0.01115
       4 <- 13         0.00244
       4 <- 18         0.00053
       4 <- 23         0.00233
       4 <- 28         0.00172
       4 <- 31        -0.00028
       4 <- 37         0.00042
       4 <- 44        -0.00069
       4 <- 48         0.00017
       4 <- 52         0.00010
       5 <- 27        -0.00484
       5 <- 38        -0.00239
       5 <- 46         0.00046
       6 <-  9        -0.02510
       6 <- 18        -0.00367
       6 <- 23         0.00028
       6 <- 28        -0.00064
       6 <- 31        -0.00415
       6 <- 37         0.00166

 The electronic state is 1-A1.
 Alpha  occ. eigenvalues --  -19.17459 -10.33205  -0.91253  -0.70398  -0.48963
 Alpha  occ. eigenvalues --   -0.40590  -0.32079  -0.28886
 Alpha virt. eigenvalues --   -0.15623  -0.03140   0.00512   0.04072   0.06110
 Alpha virt. eigenvalues --    0.07562   0.12335   0.13992   0.18880   0.21256
 Alpha virt. eigenvalues --    0.23986   0.30271   0.38797   0.40469   0.50855

 Mulliken charges:
               1
     1  C   -0.075784
     2  H    0.185424
     3  H    0.185424
     4  O   -0.295063
 Sum of Mulliken charges =  -0.00000

 Dipole moment (field-independent basis, Debye):
    X=             -0.0000    Y=             -0.0000    Z=             -3.9250  Tot=              3.9250
 Quadrupole moment (field-independent basis, Debye-Ang):
   XX=            -12.8678   YY=            -11.9454   ZZ=            -11.0622
   XY=              0.0000   XZ=              0.0000   YZ=              0.0000

 Normal termination of Gaussian 16 at Fri Sep 17 10:53:02 2021.
