 Gaussian 16, Revision A.03,
 Gaussian 16:  ES64L-G16RevA.03 25-Dec-2016

 --------------------------------------------------------------------
 #p B3LYP/6-311+G** #p TD=(singlets,nstates=30)IOp(6/8=3) IOp(9/40=4)
 --------------------------------------------------------------------

 -------------------------------
 Scan Step 47, Bond Length 0.735
 -------------------------------
 Symbolic Z-matrix:
 Charge =  0 Multiplicity = 1

                         Standard orientation:
 ---------------------------------------------------------------------
 Center     Atomic      Atomic             Coordinates (Angstroms)
 Number     Number       Type             X           Y           Z
 ---------------------------------------------------------------------
      1          6           0        0.000000   -0.000000   -0.293581
      2          1           0        0.000000    0.937260   -0.884931
      3          1           0       -0.000000   -0.937260   -0.884931
      4          8           0        0.000000    0.000000    0.441419
 ---------------------------------------------------------------------

 SCF Done:  E(RB3LYP) =  -113.387907710     A.U. after    9 cycles

 Excitation energies and oscillator strengths:

 Excited State   1:      Singlet-B2     5.1304 eV  241.67 nm  f=0.1128  <S**2>=0.000
       3 -> 11         0.00076
       3 -> 16         0.00049
       3 -> 19         0.00080
       3 -> 23         0.00029
       3 -> 24        -0.00100
       3 -> 29        -0.00022
       3 -> 32        -0.00013
       3 -> 40         0.00015
       3 -> 43         0.00019
       3 -> 50        -0.00013
       3 -> 53         0.00014
       4 ->  9        -0.00287
       4 -> 12         0.00391
       4 -> 14         0.00395
       4 -> 15         0.00160
       4 -> 18         0.00322
       4 -> 20         0.00188
       4 -> 21         0.00192
       4 -> 25         0.00151
       4 -> 26        -0.00080
       4 -> 30         0.00049
       4 -> 31         0.00164
       4 -> 34         0.00040
       4 -> 38        -0.00074
       4 -> 41        -0.00051
       4 -> 44        -0.00035
       4 -> 46        -0.00075
       4 -> 49         0.00025
       5 -> 28         0.00159
       5 -> 35         0.00067
       5 -> 45         0.00084
       6 -> 11        -0.00659
       6 -> 16         0.00254
       6 -> 19         0.00054
       6 -> 23        -0.00146
       6 -> 24        -0.00458
       6 -> 29        -0.00086
       6 -> 32        -0.00098
       6 -> 36         0.00054
       6 -> 43         0.00028
       6 -> 47         0.00020
       7 -> 11         0.00574
       7 -> 16         0.00391
       7 -> 19         0.00284
       7 -> 23        -0.00057
       7 -> 24        -0.00157
       7 -> 29         0.00072
       7 -> 32         0.00052
       7 -> 36        -0.00061
       7 -> 43        -0.00042
       7 -> 47         0.00045
       7 -> 50         0.00046
       7 -> 53        -0.00011
       8 ->  9         0.70571
       8 -> 12        -0.00030
       8 -> 14         0.03996
       8 -> 15        -0.00849
       8 -> 18        -0.02162
       8 -> 20         0.00589
       8 -> 21         0.00963
       8 -> 25        -0.00029
       8 -> 30         0.00197
       8 -> 31        -0.00290
       8 -> 34        -0.00118
       8 -> 38        -0.00110
       8 -> 39         0.00026
       8 -> 41        -0.00070
       8 -> 44         0.00023
       8 -> 46         0.00088
       8 -> 49        -0.00031
       8 -> 51         0.00011
       3 <- 11         0.00029
       3 <- 16         0.00016
       3 <- 19         0.00052
       3 <- 23         0.00021
       3 <- 24        -0.00075
       3 <- 29        -0.00019
       3 <- 32        -0.00015
       3 <- 40         0.00016
       3 <- 43         0.00018
       3 <- 53         0.00014
       4 <-  9        -0.00150
       4 <- 12        -0.00024
       4 <- 14         0.00323
       4 <- 15         0.00188
       4 <- 18         0.00074
       4 <- 20         0.00098
       4 <- 21         0.00140
       4 <- 25         0.00141
       4 <- 26        -0.00129
       4 <- 31         0.00065
       4 <- 34         0.00027
       4 <- 38        -0.00047
       4 <- 39         0.00016
       4 <- 41        -0.00043
       4 <- 44        -0.00027
       4 <- 46        -0.00067
       4 <- 49         0.00019
       5 <- 28         0.00130
       5 <- 35         0.00054
       5 <- 45         0.00071
       6 <- 11        -0.00079
       6 <- 16         0.00248
       6 <- 19         0.00134
       6 <- 23        -0.00058
       6 <- 24        -0.00346
       6 <- 29        -0.00053
       6 <- 32        -0.00081
       6 <- 36         0.00049
       6 <- 43         0.00016
       6 <- 47         0.00016
       7 <- 11         0.00115
       7 <- 16         0.00205
       7 <- 19         0.00036
       7 <- 23        -0.00020
       7 <- 24        -0.00052
       7 <- 29         0.00129
       7 <- 32         0.00038
       7 <- 36        -0.00031
       7 <- 43        -0.00030
       7 <- 47         0.00047
       7 <- 50         0.00053
       8 <-  9        -0.00687
       8 <- 12        -0.00432
       8 <- 14         0.01779
       8 <- 15         0.00496
       8 <- 18         0.00147
       8 <- 20         0.00020
       8 <- 21         0.00489
       8 <- 25         0.00315
       8 <- 26         0.00036
       8 <- 30         0.00133
       8 <- 31        -0.00176
       8 <- 34        -0.00146
       8 <- 38        -0.00105
       8 <- 39         0.00022
       8 <- 41        -0.00056
       8 <- 46         0.00072
       8 <- 49        -0.00025
 This state for optimization and/or second-order correction.
 Total Energy, E(TD-HF/TD-DFT) =  -113.199370583
 Copying the excited state density for this state as the 1-particle RhoCI density.

 Excited State   2:      Singlet-A2     5.3747 eV  230.68 nm  f=0.0000  <S**2>=0.000
       3 -> 28        -0.00203
       3 -> 35        -0.00137
       3 -> 45        -0.00055
       4 -> 10        -0.00141
       4 -> 13        -0.00270
       4 -> 17        -0.00448
       4 -> 22         0.00232
       4 -> 27        -0.00239
       4 -> 33        -0.00029
       4 -> 37        -0.00192
       4 -> 42        -0.00023
       4 -> 48        -0.00012
       4 -> 52        -0.00037
       5 -> 11         0.00036
       5 -> 19         0.00037
       5 -> 23        -0.00113
       5 -> 24        -0.00015
       5 -> 32        -0.00014
       5 -> 36        -0.00037
       5 -> 43        -0.00041
       5 -> 47        -0.00044
       5 -> 50         0.00019
       5 -> 53        -0.00013
       6 -> 28        -0.00364
       6 -> 35         0.00053
       6 -> 45         0.00018
       7 -> 28         0.00034
       7 -> 35        -0.00015
       7 -> 45        -0.00059
       8 -> 10         0.70480
       8 -> 13         0.04939
       8 -> 17         0.02927
       8 -> 22         0.00137
       8 -> 27         0.00251
       8 -> 33         0.00316
       8 -> 37        -0.00215
       8 -> 42         0.00010
       8 -> 48         0.00012
       8 -> 52         0.00047
       3 <- 28        -0.00162
       3 <- 35        -0.00118
       3 <- 45        -0.00054
       4 <- 10        -0.00017
       4 <- 13        -0.00090
       4 <- 17        -0.00064
       4 <- 27        -0.00027
       4 <- 33         0.00084
       4 <- 37        -0.00100
       4 <- 42        -0.00030
       5 <- 11         0.00071
       5 <- 16        -0.00070
       5 <- 19         0.00191
       5 <- 23        -0.00194
       5 <- 24        -0.00145
       5 <- 29        -0.00138
       5 <- 32         0.00035
       5 <- 36        -0.00097
       5 <- 43        -0.00050
       5 <- 47        -0.00040
       5 <- 53        -0.00034
       6 <- 28        -0.00365
       6 <- 35         0.00065
       6 <- 45         0.00019
       7 <- 28         0.00045
       7 <- 35        -0.00016
       7 <- 45        -0.00056
       8 <- 10        -0.00031
       8 <- 13        -0.00673
       8 <- 17        -0.00540
       8 <- 22         0.00021
       8 <- 27        -0.00042
       8 <- 33         0.00303
       8 <- 37        -0.00175
       8 <- 42         0.00013
       8 <- 52         0.00016

 Excited State   3:      Singlet-B2     6.0018 eV  206.58 nm  f=0.0302  <S**2>=0.000
       3 -> 11        -0.00011
       3 -> 16         0.00051
       3 -> 19        -0.00023
       3 -> 23         0.00026
       3 -> 24        -0.00041
       3 -> 29         0.00055
       3 -> 32         0.00013
       3 -> 36        -0.00024
       3 -> 43        -0.00024
       3 -> 47         0.00017
       3 -> 50         0.00014
       3 -> 53        -0.00015
       4 ->  9         0.00259
       4 -> 12         0.00035
       4 -> 14         0.00161
       4 -> 15         0.00305
       4 -> 18        -0.00187
       4 -> 20        -0.00030
       4 -> 21         0.00136
       4 -> 25         0.00082
       4 -> 26         0.00081
       4 -> 30         0.00180
       4 -> 31        -0.00146
       4 -> 34        -0.00015
       4 -> 38         0.00015
       4 -> 39        -0.00095
       4 -> 41         0.00038
       4 -> 46         0.00059
       4 -> 49        -0.00018
       4 -> 51        -0.00011
       5 -> 28        -0.00098
       5 -> 35        -0.00129
       5 -> 45        -0.00079
       6 -> 11         0.00063
       6 -> 16         0.00475
       6 -> 19        -0.00081
       6 -> 23        -0.00041
       6 -> 24        -0.00315
       6 -> 29        -0.00175
       6 -> 32         0.00049
       6 -> 36         0.00040
       6 -> 40        -0.00038
       6 -> 43         0.00023
       6 -> 47        -0.00012
       6 -> 50        -0.00013
       7 -> 11        -0.00272
       7 -> 16        -0.00268
       7 -> 19        -0.00195
       7 -> 23         0.00105
       7 -> 24         0.00223
       7 -> 29         0.00031
       7 -> 32        -0.00033
       7 -> 36         0.00083
       7 -> 40        -0.00019
       7 -> 43         0.00036
       7 -> 47        -0.00064
       7 -> 50        -0.00042
       7 -> 53         0.00017
       8 ->  9        -0.00038
       8 -> 12         0.70588
       8 -> 14         0.02641
       8 -> 15         0.02664
       8 -> 18         0.01099
       8 -> 20         0.01581
       8 -> 21         0.00483
       8 -> 25        -0.00076
       8 -> 26         0.00144
       8 -> 30         0.00229
       8 -> 31        -0.00022
       8 -> 34        -0.00031
       8 -> 38        -0.00013
       8 -> 39         0.00132
       8 -> 41        -0.00090
       8 -> 46        -0.00058
       8 -> 49         0.00021
       8 -> 54        -0.00015
       3 <- 11         0.00011
       3 <- 16         0.00052
       3 <- 23         0.00010
       3 <- 24        -0.00045
       3 <- 29         0.00036
       3 <- 32         0.00014
       3 <- 36        -0.00025
       3 <- 43        -0.00021
       3 <- 47         0.00013
       3 <- 53        -0.00022
       4 <-  9        -0.00129
       4 <- 14         0.00147
       4 <- 15         0.00070
       4 <- 18         0.00064
       4 <- 20        -0.00043
       4 <- 21         0.00093
       4 <- 25         0.00095
       4 <- 26         0.00079
       4 <- 30         0.00132
       4 <- 31        -0.00053
       4 <- 34        -0.00067
       4 <- 38         0.00010
       4 <- 39        -0.00072
       4 <- 41         0.00038
       4 <- 46         0.00056
       4 <- 51        -0.00010
       5 <- 28        -0.00055
       5 <- 35        -0.00109
       5 <- 45        -0.00069
       6 <- 11        -0.00019
       6 <- 16         0.00109
       6 <- 19         0.00068
       6 <- 23        -0.00087
       6 <- 24        -0.00206
       6 <- 29        -0.00110
       6 <- 32         0.00061
       6 <- 36         0.00051
       6 <- 40        -0.00035
       6 <- 43         0.00014
       6 <- 47        -0.00010
       7 <- 11        -0.00028
       7 <- 16        -0.00100
       7 <- 19        -0.00044
       7 <- 23         0.00044
       7 <- 24         0.00103
       7 <- 29        -0.00026
       7 <- 32        -0.00018
       7 <- 36         0.00046
       7 <- 40        -0.00014
       7 <- 43         0.00025
       7 <- 47        -0.00057
       7 <- 50        -0.00047
       8 <-  9        -0.00398
       8 <- 12         0.00131
       8 <- 14         0.00971
       8 <- 15         0.00342
       8 <- 18        -0.00128
       8 <- 20        -0.00275
       8 <- 21         0.00324
       8 <- 25         0.00064
       8 <- 26        -0.00026
       8 <- 30         0.00203
       8 <- 31        -0.00036
       8 <- 39         0.00109
       8 <- 41        -0.00078
       8 <- 46        -0.00047

 Excited State   4:      Singlet-A1     6.1530 eV  201.50 nm  f=0.0184  <S**2>=0.000
       3 ->  9         0.00121
       3 -> 12        -0.00058
       3 -> 14         0.00014
       3 -> 15        -0.00065
       3 -> 18        -0.00140
       3 -> 21         0.00063
       3 -> 25        -0.00047
       3 -> 26        -0.00022
       3 -> 30        -0.00093
       3 -> 31        -0.00039
       3 -> 34         0.00032
       3 -> 38         0.00031
       3 -> 39         0.00032
       3 -> 46        -0.00011
       3 -> 51         0.00021
       3 -> 54        -0.00016
       4 -> 11        -0.00654
       4 -> 16        -0.00727
       4 -> 19        -0.00473
       4 -> 23        -0.00202
       4 -> 24         0.00341
       4 -> 29        -0.00060
       4 -> 32         0.00011
       4 -> 36        -0.00103
       4 -> 43         0.00028
       4 -> 50         0.00027
       5 -> 10        -0.00453
       5 -> 13         0.00290
       5 -> 17        -0.00401
       5 -> 22        -0.00340
       5 -> 27        -0.00102
       5 -> 33        -0.00093
       5 -> 37        -0.00057
       5 -> 42        -0.00023
       5 -> 48         0.00029
       6 ->  9         0.00918
       6 -> 12         0.00928
       6 -> 14        -0.00536
       6 -> 15        -0.00418
       6 -> 18        -0.00473
       6 -> 20         0.00636
       6 -> 25        -0.00649
       6 -> 26         0.00118
       6 -> 30         0.00058
       6 -> 31         0.00135
       6 -> 34         0.00168
       6 -> 38         0.00095
       6 -> 39        -0.00124
       6 -> 44         0.00050
       6 -> 49         0.00045
       7 ->  9         0.00994
       7 -> 12        -0.00943
       7 -> 14         0.00031
       7 -> 15         0.00271
       7 -> 18        -0.00827
       7 -> 20        -0.00158
       7 -> 21         0.00012
       7 -> 25         0.00036
       7 -> 26        -0.00173
       7 -> 31        -0.00143
       7 -> 34         0.00060
       7 -> 38        -0.00012
       7 -> 39         0.00018
       7 -> 44        -0.00016
       7 -> 49         0.00012
       7 -> 51        -0.00022
       8 -> 11         0.70501
       8 -> 16         0.04895
       8 -> 19        -0.01579
       8 -> 23         0.00042
       8 -> 24        -0.00425
       8 -> 29         0.00415
       8 -> 32         0.00178
       8 -> 36        -0.00301
       8 -> 40         0.00027
       8 -> 43         0.00174
       8 -> 47        -0.00072
       8 -> 50         0.00011
       3 <-  9         0.00061
       3 <- 12        -0.00027
       3 <- 15        -0.00038
       3 <- 18        -0.00087
       3 <- 21         0.00037
       3 <- 25        -0.00040
       3 <- 26        -0.00019
       3 <- 30        -0.00063
       3 <- 31        -0.00021
       3 <- 34         0.00029
       3 <- 38         0.00023
       3 <- 39         0.00027
       3 <- 46        -0.00015
       3 <- 51         0.00018
       3 <- 54        -0.00015
       4 <- 11        -0.00249
       4 <- 16        -0.00278
       4 <- 19        -0.00261
       4 <- 23        -0.00151
       4 <- 24         0.00182
       4 <- 29        -0.00028
       4 <- 32         0.00020
       4 <- 36        -0.00087
       4 <- 43         0.00025
       4 <- 50         0.00023
       5 <- 10        -0.00225
       5 <- 13         0.00150
       5 <- 17        -0.00226
       5 <- 22        -0.00226
       5 <- 27        -0.00072
       5 <- 33        -0.00075
       5 <- 37        -0.00048
       5 <- 42        -0.00020
       5 <- 48         0.00026
       6 <-  9         0.00759
       6 <- 12         0.00416
       6 <- 14        -0.00418
       6 <- 15        -0.00349
       6 <- 18        -0.00267
       6 <- 20         0.00358
       6 <- 21         0.00089
       6 <- 25        -0.00424
       6 <- 26         0.00066
       6 <- 31         0.00115
       6 <- 34         0.00121
       6 <- 38         0.00100
       6 <- 39        -0.00098
       6 <- 44         0.00051
       6 <- 46         0.00011
       6 <- 49         0.00036
       7 <-  9         0.00240
       7 <- 12        -0.00346
       7 <- 14         0.00076
       7 <- 15         0.00181
       7 <- 18        -0.00387
       7 <- 20        -0.00066
       7 <- 25         0.00025
       7 <- 26        -0.00104
       7 <- 31        -0.00112
       7 <- 34         0.00041
       7 <- 44        -0.00018
       7 <- 46         0.00011
       7 <- 51        -0.00021
       8 <- 11        -0.00711
       8 <- 16         0.00481
       8 <- 19        -0.01421
       8 <- 23        -0.00321
       8 <- 24        -0.00058
       8 <- 29         0.00270
       8 <- 32         0.00155
       8 <- 36        -0.00233
       8 <- 43         0.00139
       8 <- 47        -0.00074
       8 <- 50         0.00011

 Excited State   5:      Singlet-A2     7.8771 eV  157.40 nm  f=0.0000  <S**2>=0.000
       3 -> 28        -0.00265
       3 -> 35        -0.00189
       3 -> 45        -0.00073
       4 -> 10        -0.00237
       4 -> 13        -0.00933
       4 -> 17        -0.00093
       4 -> 22         0.00344
       4 -> 27        -0.00077
       4 -> 33        -0.00156
       4 -> 37        -0.00303
       4 -> 42        -0.00017
       4 -> 52        -0.00045
       5 -> 16         0.00105
       5 -> 19         0.00041
       5 -> 23        -0.00167
       5 -> 24        -0.00045
       5 -> 29         0.00021
       5 -> 32        -0.00012
       5 -> 36        -0.00050
       5 -> 43        -0.00062
       5 -> 47        -0.00053
       5 -> 50         0.00011
       5 -> 53        -0.00018
       6 -> 28        -0.00284
       6 -> 35         0.00082
       7 -> 28         0.00024
       7 -> 35        -0.00024
       7 -> 45        -0.00077
       8 -> 10        -0.05095
       8 -> 13         0.70371
       8 -> 17         0.04039
       8 -> 22        -0.02254
       8 -> 27         0.00306
       8 -> 33         0.00264
       8 -> 37        -0.00265
       8 -> 52         0.00050
       3 <- 28        -0.00179
       3 <- 35        -0.00156
       3 <- 45        -0.00080
       4 <- 10        -0.00033
       4 <- 13        -0.00083
       4 <- 17        -0.00017
       4 <- 27        -0.00013
       4 <- 33         0.00064
       4 <- 37        -0.00113
       4 <- 42        -0.00035
       4 <- 52        -0.00015
       5 <- 11        -0.00029
       5 <- 16         0.00033
       5 <- 19         0.00087
       5 <- 23        -0.00247
       5 <- 24        -0.00160
       5 <- 29        -0.00041
       5 <- 32         0.00072
       5 <- 36        -0.00144
       5 <- 43        -0.00083
       5 <- 47        -0.00025
       5 <- 53        -0.00040
       6 <- 28        -0.00321
       6 <- 35         0.00045
       6 <- 45         0.00019
       7 <- 28         0.00028
       7 <- 45        -0.00047
       8 <- 10        -0.00658
       8 <- 13        -0.00422
       8 <- 17        -0.00316
       8 <- 22         0.00074
       8 <- 27        -0.00045
       8 <- 33         0.00278
       8 <- 37        -0.00173
       8 <- 42         0.00016
       8 <- 52         0.00020

 Excited State   6:      Singlet-B2     9.2520 eV  134.01 nm  f=0.0947  <S**2>=0.000
       3 -> 11         0.00037
       3 -> 16        -0.00073
       3 -> 19         0.00078
       3 -> 23        -0.00037

 The electronic state is 1-A1.
 Alpha  occ. eigenvalues --  -19.16332 -10.26945  -1.32878  -0.72548  -0.69052
 Alpha  occ. eigenvalues --   -0.57760  -0.54897  -0.21418
 Alpha virt. eigenvalues --    0.01098   0.02789   0.04437   0.04594   0.13088
 Alpha virt. eigenvalues --    0.14432   0.17668   0.19169   0.21684   0.24313
 Alpha virt. eigenvalues --    0.25880   0.36554   0.50638   0.56118   0.56700

 Mulliken charges:
               1
     1  C    0.337791
     2  H   -0.070440
     3  H   -0.070440
     4  O   -0.196910
 Sum of Mulliken charges =  -0.00000

 Dipole moment (field-independent basis, Debye):
    X=              0.0000    Y=             -0.0000    Z=              0.6817  Tot=              0.6817
 Quadrupole moment (field-independent basis, Debye-Ang):
   XX=            -10.3685   YY=            -13.1981   ZZ=            -13.5397
   XY=             -0.0000   XZ=             -0.0000   YZ=              0.0000

 Normal termination of Gaussian 16 at Fri Sep 17 10:52:23 2021.
