 Gaussian 16, Revision A.03,
 Gaussian 16:  ES64L-G16RevA.03 25-Dec-2016

 --------------------------------------------------------------------
 #p B3LYP/6-311+G** #p TD=(singlets,nstates=30)IOp(6/8=3) IOp(9/40=4)
 --------------------------------------------------------------------

 ------------------------------
 Scan Step 180, Bond Length 1.4
 ------------------------------
 Symbolic Z-matrix:
 Charge =  0 Multiplicity = 1

                         Standard orientation:
 ---------------------------------------------------------------------
 Center     Atomic      Atomic             Coordinates (Angstroms)
 Number     Number       Type             X           Y           Z
 ---------------------------------------------------------------------
      1          6           0        0.000000    0.000000   -0.626081
      2          1           0        0.000000    0.937260   -1.217431
      3          1           0       -0.000000   -0.937260   -1.217431
      4          8           0        0.000000   -0.000000    0.773919
 ---------------------------------------------------------------------

 SCF Done:  E(RB3LYP) =  -114.500872101     A.U. after    9 cycles

 Excitation energies and oscillator strengths:

 Excited State   1:      Singlet-A2     2.8624 eV  433.15 nm  f=0.0000  <S**2>=0.000
       3 -> 27         0.00180
       3 -> 38         0.00146
       3 -> 46         0.00300
       4 -> 27         0.00119
       4 -> 38        -0.00031
       4 -> 46        -0.00142
       5 ->  9         0.01509
       5 -> 13        -0.00020
       5 -> 18         0.00431
       5 -> 23         0.00123
       5 -> 29         0.00382
       5 -> 31        -0.00084
       5 -> 37         0.00233
       5 -> 44         0.00047
       5 -> 48         0.00011
       5 -> 52         0.00055
       6 -> 27        -0.00050
       6 -> 38        -0.00088
       6 -> 46         0.00165
       7 -> 12        -0.00068
       7 -> 15         0.00392
       7 -> 19        -0.00346
       7 -> 22        -0.00015
       7 -> 25         0.00128
       7 -> 30        -0.00120
       7 -> 33         0.00044
       7 -> 42        -0.00011
       7 -> 49         0.00017
       7 -> 50         0.00026
       7 -> 53         0.00048
       8 ->  9         0.70706
       8 -> 13        -0.02366
       8 -> 18         0.02221
       8 -> 23        -0.00677
       8 -> 29         0.01074
       8 -> 31        -0.00043
       8 -> 37         0.00055
       8 -> 48        -0.00029
       8 -> 52         0.00189
       3 <- 27         0.00103
       3 <- 38         0.00114
       3 <- 46         0.00307
       4 <- 27         0.00189
       4 <- 38         0.00019
       4 <- 46        -0.00116
       5 <-  9        -0.00056
       5 <- 13        -0.00069
       5 <- 18        -0.00094
       5 <- 23         0.00041
       5 <- 29        -0.00067
       5 <- 31         0.00056
       5 <- 37         0.00121
       5 <- 44         0.00016
       5 <- 48         0.00010
       5 <- 52         0.00015
       6 <- 27         0.00012
       6 <- 38        -0.00075
       6 <- 46         0.00129
       7 <- 12        -0.00025
       7 <- 15        -0.00890
       7 <- 19         0.00198
       7 <- 22         0.00744
       7 <- 25         0.00030
       7 <- 30         0.00454
       7 <- 33        -0.00095
       7 <- 35         0.00170
       7 <- 40         0.00078
       7 <- 49        -0.00017
       7 <- 50         0.00017
       7 <- 53         0.00141
       8 <-  9        -0.03538
       8 <- 13         0.00155
       8 <- 18        -0.00541
       8 <- 23         0.00060
       8 <- 29        -0.00173
       8 <- 31        -0.00053
       8 <- 37        -0.00087
       8 <- 52         0.00052
 This state for optimization and/or second-order correction.
 Total Energy, E(TD-HF/TD-DFT) =  -114.395682462
 Copying the excited state density for this state as the 1-particle RhoCI density.

 Excited State   2:      Singlet-B2     6.9444 eV  178.54 nm  f=0.0132  <S**2>=0.000
       3 -> 12         0.00182
       3 -> 15         0.00036
       3 -> 19         0.00163
       3 -> 22        -0.00033
       3 -> 25         0.00102
       3 -> 30         0.00028
       3 -> 33         0.00031
       3 -> 35        -0.00075
       3 -> 40        -0.00043
       3 -> 49         0.00042
       3 -> 53        -0.00013
       4 -> 12        -0.00180
       4 -> 15         0.00226
       4 -> 19         0.00154
       4 -> 22        -0.00317
       4 -> 25         0.00287
       4 -> 30         0.00018
       4 -> 35         0.00020
       4 -> 40         0.00042
       4 -> 42        -0.00012
       4 -> 49        -0.00010
       5 -> 10        -0.00849
       5 -> 11        -0.00368
       5 -> 14         0.00828
       5 -> 17         0.00530
       5 -> 20         0.00144
       5 -> 21        -0.00546
       5 -> 24        -0.00119
       5 -> 26         0.00180
       5 -> 28         0.00100
       5 -> 32        -0.00096
       5 -> 34        -0.00099
       5 -> 36        -0.00027
       5 -> 41        -0.00062
       5 -> 43        -0.00035
       5 -> 47         0.00013
       5 -> 54         0.00013
       6 -> 12        -0.00192
       6 -> 15         0.00112
       6 -> 19         0.00018
       6 -> 22        -0.00173
       6 -> 25         0.00075
       6 -> 30        -0.00036
       6 -> 33        -0.00036
       6 -> 35         0.00100
       6 -> 40         0.00032
       6 -> 42        -0.00010
       6 -> 49         0.00019
       6 -> 50        -0.00013
       7 -> 38        -0.00080
       7 -> 46        -0.00036
       8 -> 10         0.70441
       8 -> 11        -0.04623
       8 -> 14         0.02996
       8 -> 16         0.00156
       8 -> 17         0.01725
       8 -> 20         0.01598
       8 -> 21         0.00152
       8 -> 24         0.00045
       8 -> 26         0.00363
       8 -> 28         0.00204
       8 -> 32         0.00086
       8 -> 34         0.00023
       8 -> 39         0.00028
       8 -> 41        -0.00035
       8 -> 43         0.00060
       8 -> 45         0.00027
       8 -> 47         0.00028
       8 -> 51        -0.00041
       8 -> 54         0.00032
       3 <- 12         0.00040
       3 <- 15         0.00041
       3 <- 19         0.00065
       3 <- 22        -0.00060
       3 <- 25         0.00051
       3 <- 33         0.00027
       3 <- 35        -0.00065
       3 <- 40        -0.00042
       3 <- 49         0.00047
       3 <- 53        -0.00017
       4 <- 12         0.00076
       4 <- 15         0.00204
       4 <- 19         0.00147
       4 <- 22        -0.00210
       4 <- 25         0.00189
       4 <- 30         0.00011
       4 <- 42        -0.00021
       4 <- 50        -0.00013
       5 <- 10         0.00211
       5 <- 11        -0.00028
       5 <- 14         0.00437
       5 <- 16        -0.00038
       5 <- 17         0.00016
       5 <- 20         0.00037
       5 <- 21        -0.00135
       5 <- 24        -0.00236
       5 <- 26         0.00124
       5 <- 28         0.00016
       5 <- 32        -0.00084
       5 <- 34        -0.00077
       5 <- 36        -0.00019
       5 <- 41        -0.00046
       5 <- 43        -0.00031
       6 <- 12        -0.00019
       6 <- 15        -0.00082
       6 <- 19         0.00086
       6 <- 22         0.00013
       6 <- 25         0.00025
       6 <- 30         0.00077
       6 <- 33        -0.00042
       6 <- 35         0.00097
       6 <- 40         0.00028
       6 <- 49         0.00012
       6 <- 50        -0.00016
       6 <- 53         0.00024
       7 <- 38        -0.00060
       7 <- 46        -0.00026
       8 <- 10        -0.00148
       8 <- 11        -0.00146
       8 <- 14        -0.00378
       8 <- 16        -0.00088
       8 <- 17        -0.00167
       8 <- 20        -0.00053
       8 <- 21         0.00136
       8 <- 24         0.00106
       8 <- 26        -0.00104
       8 <- 28        -0.00017
       8 <- 32         0.00049
       8 <- 36         0.00035
       8 <- 41        -0.00013
       8 <- 43         0.00029
       8 <- 45         0.00037
       8 <- 51        -0.00014

 Excited State   3:      Singlet-B1     7.0442 eV  176.01 nm  f=0.0015  <S**2>=0.000
       3 ->  9        -0.03298
       3 -> 13         0.00333
       3 -> 18        -0.00612
       3 -> 23         0.00295
       3 -> 29        -0.00180
       3 -> 31        -0.00049
       3 -> 44         0.00046
       3 -> 48         0.00054
       3 -> 52         0.00110
       4 ->  9         0.01591
       4 -> 13        -0.00271
       4 -> 18         0.00069
       4 -> 23        -0.00249
       4 -> 29         0.00017
       4 -> 31        -0.00202
       4 -> 37        -0.00046
       4 -> 48        -0.00146
       4 -> 52        -0.00084
       5 -> 27        -0.00116
       5 -> 38         0.00199
       5 -> 46         0.00192
       6 ->  9         0.70580
       6 -> 13        -0.02675
       6 -> 18         0.02013
       6 -> 23        -0.01195
       6 -> 29         0.00616
       6 -> 31         0.00396
       6 -> 37        -0.00255
       6 -> 44        -0.00342
       6 -> 48         0.00502
       6 -> 52         0.00179
       7 -> 10        -0.00160
       7 -> 11        -0.00198
       7 -> 14        -0.00261
       7 -> 16        -0.01139
       7 -> 17        -0.00023
       7 -> 20         0.00191
       7 -> 21        -0.00185
       7 -> 24         0.00097
       7 -> 28        -0.00461
       7 -> 32        -0.00117
       7 -> 34         0.00025
       7 -> 36        -0.00164
       7 -> 39         0.00014
       7 -> 41        -0.00141
       7 -> 43         0.00083
       7 -> 45         0.00421
       7 -> 47         0.00288
       7 -> 51         0.00113
       7 -> 54         0.00057
       8 -> 27         0.00170
       8 -> 38         0.00056
       8 -> 46         0.00643
       3 <-  9        -0.01059
       3 <- 13         0.00011
       3 <- 18        -0.00328
       3 <- 29        -0.00116
       3 <- 31        -0.00045
       3 <- 44        -0.00021
       3 <- 48         0.00078
       3 <- 52         0.00088
       4 <-  9         0.00614
       4 <- 18         0.00239
       4 <- 23        -0.00031
       4 <- 29         0.00215
       4 <- 31        -0.00167
       4 <- 44         0.00019
       4 <- 48        -0.00126
       4 <- 52        -0.00047
       5 <- 27        -0.00142
       5 <- 38         0.00153
       5 <- 46         0.00171
       6 <-  9        -0.02221
       6 <- 13         0.00224
       6 <- 18        -0.00301
       6 <- 29        -0.00273
       6 <- 31         0.00237
       6 <- 37        -0.00242
       6 <- 44        -0.00208
       6 <- 48         0.00444
       6 <- 52         0.00066
       7 <- 10         0.00302
       7 <- 11         0.00519
       7 <- 14         0.00263
       7 <- 16         0.00277
       7 <- 17         0.01452
       7 <- 20         0.00688
       7 <- 21        -0.00623
       7 <- 24         0.00557
       7 <- 26         0.00284
       7 <- 28         0.00054
       7 <- 32        -0.00099
       7 <- 34         0.00133
       7 <- 36        -0.00262
       7 <- 39         0.00039
       7 <- 41        -0.00093
       7 <- 43         0.00077
       7 <- 45         0.00386
       7 <- 47         0.00244
       7 <- 51         0.00084
       7 <- 54         0.00108
       8 <- 27         0.00183
       8 <- 38         0.00067
       8 <- 46         0.00578

 Excited State   4:      Singlet-A1     7.0819 eV  175.07 nm  f=0.1286  <S**2>=0.000
       3 -> 10         0.00640
       3 -> 11         0.01537
       3 -> 14         0.00855
       3 -> 16         0.00055
       3 -> 17         0.02379
       3 -> 20        -0.00032
       3 -> 21        -0.00510
       3 -> 24         0.00577
       3 -> 26         0.00787
       3 -> 28         0.00060
       3 -> 32         0.00299
       3 -> 34        -0.00387
       3 -> 36        -0.00148
       3 -> 39         0.00134
       3 -> 41         0.00017
       3 -> 43         0.00059
       3 -> 45         0.00174
       3 -> 47         0.00108
       3 -> 51         0.00032
       3 -> 54         0.00030
       4 -> 10         0.02486
       4 -> 11        -0.01078
       4 -> 14         0.01504
       4 -> 16         0.00164
       4 -> 17        -0.00706
       4 -> 20         0.00942
       4 -> 24        -0.00742
       4 -> 26         0.00619
       4 -> 28         0.00102
       4 -> 32        -0.00123
       4 -> 34         0.00298
       4 -> 36         0.00061
       4 -> 39        -0.00021
       4 -> 41         0.00011
       4 -> 43        -0.00014
       4 -> 45        -0.00057
       4 -> 47        -0.00163
       4 -> 51        -0.00013
       5 -> 12         0.02941
       5 -> 15         0.02800
       5 -> 19         0.00217
       5 -> 22         0.00331
       5 -> 25         0.01289
       5 -> 30        -0.00256
       5 -> 33        -0.00332
       5 -> 35         0.00194
       5 -> 40         0.00165
       5 -> 42         0.00070
       5 -> 49         0.00062
       5 -> 50        -0.00048
       5 -> 53        -0.00031
       6 -> 10        -0.04118
       6 -> 11        -0.06830
       6 -> 14        -0.03074
       6 -> 16        -0.04234
       6 -> 17        -0.10631
       6 -> 20        -0.03368
       6 -> 21         0.02766
       6 -> 24        -0.02418
       6 -> 26        -0.01257
       6 -> 28        -0.01086
       6 -> 32        -0.00016
       6 -> 34        -0.00291
       6 -> 36         0.00210
       6 -> 39         0.00021
       6 -> 41        -0.00091
       6 -> 43         0.00047
       6 -> 45         0.00054
       6 -> 47         0.00177
       6 -> 51         0.00077
       6 -> 54        -0.00030
       7 ->  9         0.68452
       7 -> 13         0.02013
       7 -> 18        -0.02684
       7 -> 23         0.00587
       7 -> 29        -0.00478
       7 -> 31        -0.00184
       7 -> 37         0.00018
       7 -> 44        -0.00091
       7 -> 48         0.00060
       7 -> 52         0.00100
       8 -> 12         0.00689
       8 -> 15         0.12644
       8 -> 19        -0.02690
       8 -> 22        -0.04555
       8 -> 25         0.00307
       8 -> 30        -0.01515
       8 -> 33         0.00522
       8 -> 35        -0.00650
       8 -> 40        -0.00264
       8 -> 42        -0.00036
       8 -> 49         0.00067
       8 -> 50         0.00037
       8 -> 53        -0.00099
       3 <- 10         0.00345
       3 <- 11         0.00919
       3 <- 14         0.00590
       3 <- 16         0.00103
       3 <- 17         0.01529
       3 <- 21        -0.00435
       3 <- 24         0.00394
       3 <- 26         0.00506
       3 <- 28         0.00052
       3 <- 32         0.00269
       3 <- 34        -0.00251
       3 <- 36        -0.00099
       3 <- 39         0.00102
       3 <- 41         0.00015
       3 <- 43         0.00059
       3 <- 45         0.00176
       3 <- 47         0.00134
       3 <- 51         0.00030
       3 <- 54         0.00034
       4 <- 10         0.01015
       4 <- 11        -0.00514
       4 <- 14         0.00652
       4 <- 16         0.00038
       4 <- 17        -0.00405
       4 <- 20         0.00583
       4 <- 21         0.00016
       4 <- 24        -0.00442
       4 <- 26         0.00434
       4 <- 28         0.00013
       4 <- 32        -0.00162
       4 <- 34         0.00240
       4 <- 36         0.00033
       4 <- 39        -0.00023
       4 <- 43        -0.00014
       4 <- 47        -0.00146
       5 <- 12         0.00904
       5 <- 15         0.01083
       5 <- 19         0.00127
       5 <- 22         0.00169
       5 <- 25         0.00739
       5 <- 30        -0.00147
       5 <- 33        -0.00237
       5 <- 35         0.00155
       5 <- 40         0.00138
       5 <- 42         0.00054
       5 <- 49         0.00052
       5 <- 50        -0.00043
       5 <- 53        -0.00027
       6 <- 10        -0.00864
       6 <- 11        -0.01541
       6 <- 14        -0.00926
       6 <- 16        -0.01529
       6 <- 17        -0.03892
       6 <- 20        -0.01520
       6 <- 21         0.01349
       6 <- 24        -0.01307
       6 <- 26        -0.00729
       6 <- 28        -0.00677
       6 <- 32         0.00025
       6 <- 34        -0.00266
       6 <- 36         0.00142
       6 <- 39         0.00038
       6 <- 41        -0.00060
       6 <- 43         0.00040
       6 <- 45         0.00012
       6 <- 47         0.00142
       6 <- 51         0.00057
       6 <- 54        -0.00021
       7 <-  9        -0.10325
       7 <- 13         0.01192
       7 <- 18        -0.01480
       7 <- 23         0.00694
       7 <- 29        -0.00582
       7 <- 31        -0.00035
       7 <- 37        -0.00018
       7 <- 44        -0.00038
       7 <- 52         0.00083
       8 <- 12         0.00028
       8 <- 15         0.02704
       8 <- 19        -0.00762
       8 <- 22        -0.01922
       8 <- 25         0.00095
       8 <- 30        -0.00956
       8 <- 33         0.00353
       8 <- 35        -0.00454
       8 <- 40        -0.00204
       8 <- 42        -0.00029
       8 <- 49         0.00046
       8 <- 50         0.00028
       8 <- 53        -0.00087

 Excited State   5:      Singlet-B2     7.5533 eV  164.15 nm  f=0.0273  <S**2>=0.000
       3 -> 12        -0.00039
       3 -> 15        -0.00155
       3 -> 19         0.00183
       3 -> 22         0.00055
       3 -> 25        -0.00029
       3 -> 30         0.00327
       3 -> 33         0.00019
       3 -> 35        -0.00105
       3 -> 40        -0.00084
       3 -> 49         0.00101
       3 -> 50        -0.00016
       4 -> 12         0.00193
       4 -> 15         0.00091
       4 -> 19         0.00078
       4 -> 22        -0.00146
       4 -> 25         0.00220
       4 -> 30        -0.00173
       4 -> 33         0.00048
       4 -> 35        -0.00065
       4 -> 40         0.00011
       4 -> 49         0.00015
       5 -> 10        -0.00069
       5 -> 11         0.00075
       5 -> 14         0.01115
       5 -> 16        -0.00546
       5 -> 17        -0.00080
       5 -> 20        -0.00385
       5 -> 21        -0.00394
       5 -> 24        -0.00061
       5 -> 26         0.00199
       5 -> 28         0.00149
       5 -> 32         0.00054
       5 -> 34        -0.00055
       5 -> 36        -0.00069
       5 -> 39         0.00069
       5 -> 41        -0.00055
       5 -> 43         0.00028
       5 -> 45         0.00093
       5 -> 47         0.00031
       5 -> 51        -0.00049
       6 -> 12        -0.00220
       6 -> 15        -0.00062
       6 -> 19        -0.00088
       6 -> 22         0.00086
       6 -> 25         0.00016
       6 -> 30         0.00132
       6 -> 33        -0.00050
       6 -> 35         0.00151
       6 -> 40         0.00136
       6 -> 42         0.00014
       6 -> 49        -0.00161
       6 -> 50         0.00017
       6 -> 53         0.00016
       7 -> 27         0.00060
       7 -> 38        -0.00066
       7 -> 46        -0.00266
       8 -> 10         0.04438
       8 -> 11         0.70322
       8 -> 14         0.01292
       8 -> 16         0.01493
       8 -> 17         0.05380
       8 -> 20        -0.01025
       8 -> 21         0.00020
       8 -> 24         0.00268
       8 -> 26         0.00061
       8 -> 28         0.00418
       8 -> 32         0.00023
       8 -> 34        -0.00036
       8 -> 36        -0.00069
       8 -> 39        -0.00023
       8 -> 41        -0.00082
       8 -> 43         0.00040
       8 -> 45         0.00329
       8 -> 47         0.00055
       8 -> 51        -0.00151
       8 -> 54         0.00025
       3 <- 12         0.00032
       3 <- 15        -0.00053
       3 <- 19         0.00128
       3 <- 30         0.00163
       3 <- 33         0.00029
       3 <- 35        -0.00095
       3 <- 40        -0.00077
       3 <- 49         0.00097
       3 <- 50        -0.00011
       3 <- 53        -0.00047
       4 <- 12         0.00014

 The electronic state is 1-A1.
 Alpha  occ. eigenvalues --  -19.16314 -10.30703  -0.98700  -0.67377  -0.49020
 Alpha  occ. eigenvalues --   -0.43992  -0.36357  -0.28947
 Alpha virt. eigenvalues --   -0.11072   0.00132   0.03187   0.04157   0.06217
 Alpha virt. eigenvalues --    0.11883   0.15888   0.18876   0.20151   0.21747
 Alpha virt. eigenvalues --    0.23739   0.30148   0.40953   0.43347   0.50962

 Mulliken charges:
               1
     1  C   -0.022416
     2  H    0.153974
     3  H    0.153974
     4  O   -0.285532
 Sum of Mulliken charges =  -0.00000

 Dipole moment (field-independent basis, Debye):
    X=             -0.0000    Y=             -0.0000    Z=             -3.2405  Tot=              3.2405
 Quadrupole moment (field-independent basis, Debye-Ang):
   XX=            -12.3016   YY=            -11.7652   ZZ=            -11.8961
   XY=              0.0000   XZ=              0.0000   YZ=             -0.0000

 Normal termination of Gaussian 16 at Fri Sep 17 10:52:51 2021.
