 Gaussian 16, Revision A.03,
 Gaussian 16:  ES64L-G16RevA.03 25-Dec-2016

 --------------------------------------------------------------------
 #p B3LYP/6-311+G** #p TD=(singlets,nstates=30)IOp(6/8=3) IOp(9/40=4)
 --------------------------------------------------------------------

 ---------------------------------------------
 Scan Step 228, Bond Length 1.6400000000000001
 ---------------------------------------------
 Symbolic Z-matrix:
 Charge =  0 Multiplicity = 1

                         Standard orientation:
 ---------------------------------------------------------------------
 Center     Atomic      Atomic             Coordinates (Angstroms)
 Number     Number       Type             X           Y           Z
 ---------------------------------------------------------------------
      1          6           0        0.000000    0.000000   -0.746081
      2          1           0        0.000000    0.937260   -1.337431
      3          1           0       -0.000000   -0.937260   -1.337431
      4          8           0        0.000000   -0.000000    0.893919
 ---------------------------------------------------------------------

 SCF Done:  E(RB3LYP) =  -114.412955670     A.U. after   10 cycles

 Excitation energies and oscillator strengths:

 Excited State   1:      Singlet-A2     1.8400 eV  673.83 nm  f=0.0000  <S**2>=0.000
       3 -> 27         0.00108
       3 -> 38         0.00078
       3 -> 46         0.00332
       4 -> 27         0.00063
       4 -> 38        -0.00011
       4 -> 46        -0.00125
       5 ->  9         0.00616
       5 -> 13         0.00101
       5 -> 18         0.00264
       5 -> 23         0.00160
       5 -> 28         0.00226
       5 -> 31        -0.00012
       5 -> 37         0.00124
       5 -> 44         0.00031
       5 -> 52         0.00031
       6 -> 27        -0.00063
       6 -> 38        -0.00074
       6 -> 46         0.00127
       7 -> 12        -0.00097
       7 -> 16         0.00487
       7 -> 19        -0.00415
       7 -> 22        -0.00087
       7 -> 25         0.00087
       7 -> 30        -0.00161
       7 -> 33         0.00035
       7 -> 49         0.00012
       7 -> 50         0.00014
       7 -> 53         0.00043
       8 ->  9         0.70887
       8 -> 13        -0.01180
       8 -> 18         0.02151
       8 -> 23        -0.00289
       8 -> 28         0.01096
       8 -> 31         0.00123
       8 -> 37         0.00061
       8 -> 48        -0.00031
       8 -> 52         0.00193
       3 <- 27         0.00047
       3 <- 38         0.00052
       3 <- 46         0.00337
       4 <- 27         0.00112
       4 <- 38         0.00023
       4 <- 46        -0.00100
       5 <-  9        -0.00014
       5 <- 13        -0.00049
       5 <- 18        -0.00062
       5 <- 23         0.00025
       5 <- 28        -0.00043
       5 <- 31         0.00032
       5 <- 37         0.00070
       5 <- 44         0.00010
       6 <- 38        -0.00059
       6 <- 46         0.00097
       7 <- 12         0.00085
       7 <- 16        -0.01020
       7 <- 19         0.00408
       7 <- 22         0.00673
       7 <- 25         0.00056
       7 <- 30         0.00536
       7 <- 33        -0.00047
       7 <- 36         0.00067
       7 <- 40        -0.00042
       7 <- 42         0.00015
       7 <- 49        -0.00042
       7 <- 53         0.00146
       8 <-  9        -0.05555
       8 <- 13         0.00029
       8 <- 18        -0.00682
       8 <- 28        -0.00246
       8 <- 31        -0.00067
       8 <- 37        -0.00040
       8 <- 48         0.00010
       8 <- 52         0.00050
 This state for optimization and/or second-order correction.
 Total Energy, E(TD-HF/TD-DFT) =  -114.345336956
 Copying the excited state density for this state as the 1-particle RhoCI density.

 Excited State   2:      Singlet-A1     4.7575 eV  260.61 nm  f=0.0657  <S**2>=0.000
       3 -> 10        -0.01737
       3 -> 11        -0.01111
       3 -> 14         0.00915
       3 -> 15         0.00427
       3 -> 17        -0.00346
       3 -> 20        -0.00398
       3 -> 21        -0.00076
       3 -> 24         0.00207
       3 -> 26         0.00342
       3 -> 29        -0.00126
       3 -> 32         0.00276
       3 -> 34         0.00210
       3 -> 35        -0.00115
       3 -> 39         0.00075
       3 -> 43         0.00046
       3 -> 45         0.00026
       3 -> 47         0.00228
       3 -> 51         0.00114
       3 -> 54         0.00014
       4 -> 10        -0.00921
       4 -> 11         0.01295
       4 -> 14         0.00472
       4 -> 15        -0.00969
       4 -> 17         0.00300
       4 -> 20         0.00464
       4 -> 21         0.00040
       4 -> 24        -0.00479
       4 -> 26         0.00478
       4 -> 29         0.00103
       4 -> 32        -0.00135
       4 -> 34        -0.00151
       4 -> 35         0.00042
       4 -> 41         0.00012
       4 -> 43        -0.00048
       4 -> 45        -0.00082
       4 -> 47        -0.00114
       4 -> 51        -0.00033
       4 -> 54         0.00012
       5 -> 12         0.01577
       5 -> 16         0.00919
       5 -> 19         0.00145
       5 -> 22         0.00750
       5 -> 25         0.00760
       5 -> 33        -0.00296
       5 -> 36         0.00277
       5 -> 40        -0.00143
       5 -> 42         0.00068
       5 -> 49         0.00041
       5 -> 50        -0.00071
       5 -> 53        -0.00012
       6 -> 10         0.17149
       6 -> 11         0.09449
       6 -> 14        -0.08977
       6 -> 15        -0.05369
       6 -> 17        -0.01949
       6 -> 20        -0.00898
       6 -> 21         0.01204
       6 -> 24        -0.01289
       6 -> 26        -0.00612
       6 -> 29        -0.00753
       6 -> 32         0.00119
       6 -> 34         0.00143
       6 -> 35        -0.00050
       6 -> 39         0.00093
       6 -> 41        -0.00035
       6 -> 43         0.00084
       6 -> 45         0.00082
       6 -> 47         0.00115
       6 -> 51         0.00080
       6 -> 54        -0.00073
       7 ->  9         0.68294
       7 -> 13        -0.00099
       7 -> 18        -0.01696
       7 -> 23        -0.00052
       7 -> 28        -0.00087
       7 -> 31        -0.00309
       7 -> 37         0.00099
       7 -> 44        -0.00104
       7 -> 48         0.00035
       7 -> 52         0.00105
       8 -> 12        -0.00766
       8 -> 16         0.06306
       8 -> 19        -0.02338
       8 -> 22        -0.02386
       8 -> 25         0.00045
       8 -> 30        -0.01136
       8 -> 33         0.00196
       8 -> 36        -0.00227
       8 -> 40         0.00110
       8 -> 42        -0.00036
       8 -> 49         0.00052
       8 -> 50         0.00022
       8 -> 53        -0.00067
       3 <- 10        -0.01201
       3 <- 11        -0.00811
       3 <- 14         0.00692
       3 <- 15         0.00277
       3 <- 17        -0.00181
       3 <- 20        -0.00296
       3 <- 21        -0.00114
       3 <- 24         0.00123
       3 <- 26         0.00197
       3 <- 29        -0.00076
       3 <- 32         0.00252
       3 <- 34         0.00131
       3 <- 35        -0.00100
       3 <- 39         0.00068
       3 <- 43         0.00056
       3 <- 45         0.00045
       3 <- 47         0.00236
       3 <- 51         0.00112
       3 <- 54         0.00025
       4 <- 10        -0.00439
       4 <- 11         0.00832
       4 <- 14         0.00252
       4 <- 15        -0.00589
       4 <- 17         0.00157
       4 <- 20         0.00411
       4 <- 21         0.00028
       4 <- 24        -0.00333
       4 <- 26         0.00385
       4 <- 29         0.00025
       4 <- 32        -0.00164
       4 <- 34        -0.00132
       4 <- 35         0.00067
       4 <- 43        -0.00046
       4 <- 45        -0.00089
       4 <- 47        -0.00075
       4 <- 51        -0.00017
       5 <- 12         0.00746
       5 <- 16         0.00491
       5 <- 19         0.00103
       5 <- 22         0.00477
       5 <- 25         0.00529
       5 <- 33        -0.00232
       5 <- 36         0.00228
       5 <- 40        -0.00125
       5 <- 42         0.00057
       5 <- 49         0.00037
       5 <- 50        -0.00065
       5 <- 53        -0.00011
       6 <- 10         0.05260
       6 <- 11         0.03132
       6 <- 14        -0.03628
       6 <- 15        -0.02373
       6 <- 17        -0.00983
       6 <- 20        -0.00606
       6 <- 21         0.00719
       6 <- 24        -0.00796
       6 <- 26        -0.00355
       6 <- 29        -0.00521
       6 <- 32         0.00161
       6 <- 34         0.00173
       6 <- 35        -0.00077
       6 <- 39         0.00097
       6 <- 41        -0.00025
       6 <- 43         0.00071
       6 <- 45         0.00071
       6 <- 47         0.00071
       6 <- 51         0.00063
       6 <- 54        -0.00063
       7 <-  9        -0.12620
       7 <- 13         0.00674
       7 <- 18        -0.01351
       7 <- 23         0.00301
       7 <- 28        -0.00349
       7 <- 31        -0.00146
       7 <- 37         0.00039
       7 <- 44        -0.00065
       7 <- 48        -0.00022
       7 <- 52         0.00093
       8 <- 12        -0.00199
       8 <- 16         0.02375
       8 <- 19        -0.01060
       8 <- 22        -0.01340
       8 <- 30        -0.00835
       8 <- 33         0.00148
       8 <- 36        -0.00175
       8 <- 40         0.00089
       8 <- 42        -0.00029
       8 <- 49         0.00033
       8 <- 50         0.00018
       8 <- 53        -0.00061

 Excited State   3:      Singlet-B1     5.1227 eV  242.03 nm  f=0.0013  <S**2>=0.000
       3 ->  9        -0.02792
       3 -> 13         0.00155
       3 -> 18        -0.00446
       3 -> 23         0.00166
       3 -> 28        -0.00087
       3 -> 31        -0.00048
       3 -> 44         0.00023
       3 -> 48         0.00098
       3 -> 52         0.00093
       4 ->  9         0.01305
       4 -> 13        -0.00263
       4 -> 18         0.00021
       4 -> 23        -0.00237
       4 -> 28         0.00026
       4 -> 31        -0.00148
       4 -> 37        -0.00039
       4 -> 44         0.00013
       4 -> 48        -0.00102
       4 -> 52        -0.00054
       5 -> 38         0.00201
       5 -> 46         0.00082
       6 ->  9         0.70413
       6 -> 13        -0.01951
       6 -> 18         0.01633
       6 -> 23        -0.01083
       6 -> 28         0.00407
       6 -> 31         0.00313
       6 -> 37        -0.00209
       6 -> 44        -0.00270
       6 -> 48         0.00403
       6 -> 52         0.00139
       7 -> 10         0.05544
       7 -> 11         0.02646
       7 -> 14        -0.01921
       7 -> 15        -0.00645
       7 -> 17        -0.00902
       7 -> 20         0.00309
       7 -> 21         0.00041
       7 -> 24        -0.00081
       7 -> 26        -0.00169
       7 -> 29        -0.00386
       7 -> 32        -0.00049
       7 -> 34         0.00086
       7 -> 35         0.00174
       7 -> 39         0.00015
       7 -> 41        -0.00047
       7 -> 43         0.00053
       7 -> 45        -0.00015
       7 -> 47         0.00413
       7 -> 51         0.00119
       7 -> 54         0.00036
       8 -> 27         0.00040
       8 -> 46         0.00515
       3 <-  9        -0.00940
       3 <- 13        -0.00070
       3 <- 18        -0.00283
       3 <- 23        -0.00059
       3 <- 28        -0.00054
       3 <- 31        -0.00069
       3 <- 44        -0.00023
       3 <- 48         0.00115
       3 <- 52         0.00075
       4 <-  9         0.00673
       4 <- 13        -0.00032
       4 <- 18         0.00185
       4 <- 23        -0.00067
       4 <- 28         0.00157
       4 <- 31        -0.00099
       4 <- 37        -0.00022
       4 <- 48        -0.00088
       4 <- 52        -0.00031
       5 <- 27        -0.00056
       5 <- 38         0.00165
       5 <- 46         0.00072
       6 <-  9        -0.02656
       6 <- 13         0.00172
       6 <- 18        -0.00340
       6 <- 23        -0.00026
       6 <- 28        -0.00346
       6 <- 31         0.00109
       6 <- 37        -0.00180
       6 <- 44        -0.00139
       6 <- 48         0.00360
       6 <- 52         0.00044
       7 <- 10        -0.02084
       7 <- 11        -0.01230
       7 <- 14         0.01515
       7 <- 15         0.01141
       7 <- 17         0.00174
       7 <- 20         0.00474
       7 <- 21        -0.00412
       7 <- 24         0.00442
       7 <- 26         0.00172
       7 <- 29         0.00125
       7 <- 34         0.00090
       7 <- 35         0.00252
       7 <- 39         0.00047
       7 <- 41        -0.00013
       7 <- 43         0.00037
       7 <- 45        -0.00031
       7 <- 47         0.00379
       7 <- 51         0.00110
       7 <- 54         0.00105
       8 <- 27         0.00088
       8 <- 38         0.00024
       8 <- 46         0.00481

 Excited State   4:      Singlet-B2     5.6761 eV  218.43 nm  f=0.0105  <S**2>=0.000
       3 -> 12        -0.00151
       3 -> 16         0.00200
       3 -> 19        -0.00462
       3 -> 22         0.00062
       3 -> 25         0.00055
       3 -> 30        -0.00337
       3 -> 33        -0.00019
       3 -> 36         0.00214
       3 -> 40        -0.00181
       3 -> 42         0.00029
       3 -> 49        -0.00295
       3 -> 50         0.00022
       3 -> 53         0.00031
       4 -> 12         0.00045
       4 -> 16        -0.00254
       4 -> 19         0.00026
       4 -> 22         0.00289
       4 -> 25        -0.00166
       4 -> 30         0.00144
       4 -> 33        -0.00047
       4 -> 36         0.00054
       4 -> 40         0.00049
       4 -> 49         0.00050
       4 -> 50        -0.00012
       5 -> 10         0.00885
       5 -> 11         0.00510
       5 -> 14        -0.01046
       5 -> 15         0.00410
       5 -> 17         0.00029
       5 -> 20         0.00215
       5 -> 21         0.00570
       5 -> 24         0.00185
       5 -> 26        -0.00158
       5 -> 29        -0.00199
       5 -> 32        -0.00182
       5 -> 34        -0.00109
       5 -> 35        -0.00036
       5 -> 39        -0.00102
       5 -> 41         0.00069
       5 -> 45         0.00015
       5 -> 47        -0.00080
       5 -> 51         0.00048
       5 -> 54        -0.00024
       6 -> 12         0.00310
       6 -> 16        -0.00191
       6 -> 19         0.00332
       6 -> 22        -0.00027
       6 -> 25        -0.00088
       6 -> 30        -0.00048
       6 -> 33         0.00025
       6 -> 36        -0.00205
       6 -> 40         0.00168
       6 -> 42        -0.00047
       6 -> 49         0.00164
       6 -> 53        -0.00038
       7 -> 27        -0.00068
       7 -> 38         0.00077
       7 -> 46         0.00375
       8 -> 10         0.65771
       8 -> 11         0.22400
       8 -> 14        -0.11984
       8 -> 15        -0.05325
       8 -> 17        -0.01471
       8 -> 20        -0.00037
       8 -> 21         0.00737
       8 -> 24        -0.00685
       8 -> 26        -0.00560
       8 -> 29        -0.01055
       8 -> 32        -0.00336
       8 -> 34        -0.00196
       8 -> 39        -0.00070
       8 -> 41         0.00015
       8 -> 43        -0.00034
       8 -> 45         0.00158
       8 -> 47        -0.00451
       8 -> 51         0.00220
       8 -> 54        -0.00183
       3 <- 12        -0.00055
       3 <- 16         0.00056
       3 <- 19        -0.00218
       3 <- 22         0.00092
       3 <- 25         0.00051
       3 <- 30        -0.00134
       3 <- 33        -0.00015
       3 <- 36         0.00163
       3 <- 40        -0.00160
       3 <- 42         0.00024
       3 <- 49        -0.00303
       3 <- 50         0.00019
       3 <- 53         0.00086
       4 <- 12        -0.00011
       4 <- 16        -0.00227
       4 <- 22         0.00269
       4 <- 25        -0.00104
       4 <- 30         0.00133
       4 <- 33        -0.00054
       4 <- 36         0.00076
       4 <- 40         0.00017
       4 <- 49         0.00037
       5 <- 10        -0.00011
       5 <- 11        -0.00151
       5 <- 14        -0.00127
       5 <- 15         0.00376
       5 <- 17         0.00021
       5 <- 20         0.00062
       5 <- 21         0.00210
       5 <- 24         0.00243
       5 <- 26        -0.00045
       5 <- 29        -0.00049
       5 <- 34        -0.00025
       5 <- 39        -0.00036
       5 <- 41         0.00071
       5 <- 43         0.00011
       5 <- 45         0.00043
       5 <- 47        -0.00068
       5 <- 51         0.00026
       6 <- 16         0.00591
       6 <- 19        -0.00269
       6 <- 22        -0.00428
       6 <- 25        -0.00062
       6 <- 30        -0.00502
       6 <- 33         0.00055
       6 <- 36        -0.00203
       6 <- 40         0.00169
       6 <- 42        -0.00053
       6 <- 49         0.00184
       6 <- 53        -0.00113
       7 <- 27        -0.00066
       7 <- 38         0.00060
       7 <- 46         0.00312
       8 <- 10        -0.01902
       8 <- 11        -0.01170
       8 <- 14         0.01154
       8 <- 15         0.00395
       8 <- 17         0.00052
       8 <- 20        -0.00259
       8 <- 21        -0.00223
       8 <- 24         0.00147
       8 <- 26         0.00193
       8 <- 29        -0.00069
       8 <- 32         0.00263
       8 <- 34         0.00134
       8 <- 35        -0.00035
       8 <- 39         0.00151
       8 <- 41         0.00051
       8 <- 43         0.00039
       8 <- 45         0.00226
       8 <- 47        -0.00343
       8 <- 51         0.00138
       8 <- 54        -0.00047

 Excited State   5:      Singlet-B1     6.7816 eV  182.82 nm  f=0.0068  <S**2>=0.000
       3 ->  9        -0.01509
       3 -> 13         0.00095
       3 -> 18        -0.00313
       3 -> 23         0.00109
       3 -> 28        -0.00345
       3 -> 31        -0.00153
       3 -> 44         0.00051
       3 -> 48        -0.00207
       4 ->  9        -0.03580
       4 -> 13         0.00640
       4 -> 18         0.00158
       4 -> 23         0.00465
       4 -> 28         0.00212
       4 -> 31        -0.00032
       4 -> 37         0.00038
       4 -> 44        -0.00044
       4 -> 48         0.00049
       4 -> 52         0.00010
       5 -> 27        -0.00743
       5 -> 38        -0.00304
       5 -> 46         0.00060
       6 ->  9        -0.06172
       6 -> 13        -0.00397
       6 -> 18         0.00234
       6 -> 23        -0.00141
       6 -> 28         0.00325
       6 -> 31        -0.00359
       6 -> 37         0.00179
       6 -> 44        -0.00012
       6 -> 48         0.00104
       6 -> 52        -0.00046
       7 -> 10         0.66728
       7 -> 11         0.18931
       7 -> 14        -0.10556
       7 -> 15        -0.05469
       7 -> 17        -0.00907
       7 -> 20        -0.00550
       7 -> 21         0.00320
       7 -> 24        -0.00913
       7 -> 26        -0.00779
       7 -> 29        -0.00634
       7 -> 32        -0.00127
       7 -> 34        -0.00387
       7 -> 35        -0.00213
       7 -> 39        -0.00069
       7 -> 43         0.00054
       7 -> 45         0.00073
       7 -> 47         0.00213
       7 -> 51         0.00109
       7 -> 54        -0.00121
       8 -> 27         0.00130
       8 -> 38         0.00036
       8 -> 46         0.00246
       3 <-  9        -0.00313
       3 <- 13         0.00067
       3 <- 18        -0.00127
       3 <- 23         0.00065
       3 <- 28        -0.00209
       3 <- 31        -0.00029
       3 <- 37        -0.00021
       3 <- 44         0.00022
       3 <- 48        -0.00227
       3 <- 52         0.00043
       4 <-  9        -0.01021
       4 <- 13         0.00224
       4 <- 18         0.00056
       4 <- 23         0.00214
       4 <- 28         0.00185
       4 <- 31        -0.00043
       4 <- 37         0.00045
       4 <- 44        -0.00068
       5 <- 27        -0.00479
       5 <- 38        -0.00227
       5 <- 46         0.00053

 The electronic state is 1-A1.
 Alpha  occ. eigenvalues --  -19.17332 -10.32913  -0.92081  -0.70012  -0.48896
 Alpha  occ. eigenvalues --   -0.41126  -0.32591  -0.28932
 Alpha virt. eigenvalues --   -0.15049  -0.02049   0.00842   0.04081   0.06118
 Alpha virt. eigenvalues --    0.08230   0.12636   0.14236   0.18913   0.21336
 Alpha virt. eigenvalues --    0.23979   0.30213   0.38953   0.40813   0.50906

 Mulliken charges:
               1
     1  C   -0.067990
     2  H    0.182271
     3  H    0.182271
     4  O   -0.296553
 Sum of Mulliken charges =  -0.00000

 Dipole moment (field-independent basis, Debye):
    X=             -0.0000    Y=             -0.0000    Z=             -3.8369  Tot=              3.8369
 Quadrupole moment (field-independent basis, Debye-Ang):
   XX=            -12.7987   YY=            -11.9146   ZZ=            -11.1953
   XY=              0.0000   XZ=              0.0000   YZ=             -0.0000

 Normal termination of Gaussian 16 at Fri Sep 17 10:53:03 2021.
