 Gaussian 16, Revision C.01,
 Gaussian 16:  ES64L-G16RevC.01  3-Jul-2019

 ----------------------------------------
 #P wB97XD/6-311+G* NoSymm #P Field=Z+107
 ----------------------------------------

 -------
 TitleMe
 -------
 Symbolic Z-matrix:
 Charge =  1 Multiplicity = 1

                          Input orientation:
 ---------------------------------------------------------------------
 Center     Atomic      Atomic             Coordinates (Angstroms)
 Number     Number       Type             X           Y           Z
 ---------------------------------------------------------------------
      1          6           0        0.519300    1.233000   -0.031900
      2          6           0        1.944500    1.269200   -0.036700
      3          6           0        2.620400    0.092800   -0.025000
      4          6           0       -0.196000    0.030100    0.001000
      5          1           0       -0.020700    2.174200   -0.043400
      6          1           0        2.482800    2.208900   -0.036100
      7          1           0       -1.277700    0.039900    0.011700
      8          7           0        4.092100    0.095900    0.036600
      9          8           0        4.639300   -1.021700    0.144600
     10          8           0        4.664900    1.198400   -0.023300
     11          6           0        0.494300   -1.167100    0.021000
     12          1           0       -0.032500   -2.114900    0.054500
     13          6           0        1.962900   -1.216500   -0.021100
     14          1           0        2.443600   -1.963100    0.615100
     15         35           0        2.173000   -1.949100   -1.906200
 ---------------------------------------------------------------------

 SCF Done:  E(RwB97XD) =  -3010.53912080     A.U. after   20 cycles

 Alpha  occ. eigenvalues -- -483.29363 -62.84353 -56.64080 -56.63468 -56.63451
 Alpha  occ. eigenvalues --  -19.45929 -19.45926 -14.85326 -10.58519 -10.56960
 Alpha  occ. eigenvalues --  -10.56556 -10.56104 -10.52703 -10.52098  -9.00136
 Alpha  occ. eigenvalues --   -6.82905  -6.80904  -6.80854  -2.92787  -2.92267
 Alpha  occ. eigenvalues --   -2.92227  -2.90627  -2.90626  -1.49608  -1.32577
 Alpha  occ. eigenvalues --   -1.21626  -1.12119  -1.11485  -1.03474  -0.99437
 Alpha  occ. eigenvalues --   -0.94559  -0.89895  -0.84481  -0.80402  -0.79655
 Alpha  occ. eigenvalues --   -0.79518  -0.77280  -0.75787  -0.74889  -0.70979
 Alpha  occ. eigenvalues --   -0.67810  -0.66866  -0.62209  -0.58781  -0.57082
 Alpha  occ. eigenvalues --   -0.56316  -0.55621  -0.54037  -0.52904
 Alpha virt. eigenvalues --   -0.29141  -0.19911  -0.14366  -0.12499  -0.09702
 Alpha virt. eigenvalues --   -0.06926  -0.06629  -0.05300  -0.03384  -0.03058
 Alpha virt. eigenvalues --   -0.01959  -0.01113  -0.00139   0.00572   0.01453

 Mulliken charges:
               1
     1  C   -0.137933
     2  C    0.218964
     3  C   -0.052282
     4  C   -0.332290
     5  H    0.343976
     6  H    0.348927
     7  H    0.328176
     8  N   -0.262960
     9  O    0.088131
    10  O    0.069416
    11  C   -0.229940
    12  H    0.353580
    13  C   -0.400361
    14  H    0.376657
    15  Br   0.287939
 Sum of Mulliken charges =   1.00000

 Dipole moment (field-independent basis, Debye):
    X=              2.9434    Y=             -1.3423    Z=             -2.6815  Tot=              4.2019
 Quadrupole moment (field-independent basis, Debye-Ang):
   XX=            -67.8797   YY=            -50.4636   ZZ=            -59.7966
   XY=             -3.8554   XZ=             -6.5418   YZ=              4.3400

 Normal termination of Gaussian 16 at Thu May  2 14:20:13 2024.
