 Gaussian 16, Revision A.03,
 Gaussian 16:  ES64L-G16RevA.03 25-Dec-2016

 --------------------------------------------------------------------
 #p B3LYP/6-311+G** #p TD=(singlets,nstates=30)IOp(6/8=3) IOp(9/40=4)
 --------------------------------------------------------------------

 --------------------------------
 Scan Step 179, Bond Length 1.395
 --------------------------------
 Symbolic Z-matrix:
 Charge =  0 Multiplicity = 1

                         Standard orientation:
 ---------------------------------------------------------------------
 Center     Atomic      Atomic             Coordinates (Angstroms)
 Number     Number       Type             X           Y           Z
 ---------------------------------------------------------------------
      1          6           0        0.000000    0.000000   -0.623581
      2          1           0        0.000000    0.937260   -1.214931
      3          1           0       -0.000000   -0.937260   -1.214931
      4          8           0        0.000000   -0.000000    0.771419
 ---------------------------------------------------------------------

 SCF Done:  E(RB3LYP) =  -114.502521808     A.U. after    9 cycles

 Excitation energies and oscillator strengths:

 Excited State   1:      Singlet-A2     2.8877 eV  429.35 nm  f=0.0000  <S**2>=0.000
       3 -> 27         0.00181
       3 -> 38         0.00147
       3 -> 46         0.00299
       4 -> 27         0.00120
       4 -> 38        -0.00032
       4 -> 46        -0.00142
       5 ->  9         0.01529
       5 -> 13        -0.00025
       5 -> 18         0.00435
       5 -> 23         0.00121
       5 -> 29         0.00384
       5 -> 31        -0.00087
       5 -> 37         0.00236
       5 -> 44         0.00047
       5 -> 48         0.00011
       5 -> 52         0.00056
       6 -> 27        -0.00049
       6 -> 38        -0.00088
       6 -> 46         0.00166
       7 -> 12        -0.00068
       7 -> 15         0.00389
       7 -> 19        -0.00345
       7 -> 22        -0.00013
       7 -> 25         0.00128
       7 -> 30        -0.00119
       7 -> 33         0.00044
       7 -> 42        -0.00011
       7 -> 49         0.00017
       7 -> 50         0.00027
       7 -> 53         0.00048
       8 ->  9         0.70703
       8 -> 13        -0.02402
       8 -> 18         0.02222
       8 -> 23        -0.00687
       8 -> 29         0.01072
       8 -> 31        -0.00048
       8 -> 37         0.00055
       8 -> 48        -0.00029
       8 -> 52         0.00188
       3 <- 27         0.00105
       3 <- 38         0.00116
       3 <- 46         0.00306
       4 <- 27         0.00191
       4 <- 38         0.00019
       4 <- 46        -0.00116
       5 <-  9        -0.00057
       5 <- 13        -0.00070
       5 <- 18        -0.00095
       5 <- 23         0.00042
       5 <- 29        -0.00067
       5 <- 31         0.00057
       5 <- 37         0.00122
       5 <- 44         0.00017
       5 <- 48         0.00011
       5 <- 52         0.00015
       6 <- 27         0.00013
       6 <- 38        -0.00075
       6 <- 46         0.00130
       7 <- 12        -0.00027
       7 <- 15        -0.00887
       7 <- 19         0.00193
       7 <- 22         0.00744
       7 <- 25         0.00029
       7 <- 30         0.00451
       7 <- 33        -0.00096
       7 <- 35         0.00172
       7 <- 40         0.00079
       7 <- 49        -0.00016
       7 <- 50         0.00018
       7 <- 53         0.00141
       8 <-  9        -0.03503
       8 <- 13         0.00158
       8 <- 18        -0.00538
       8 <- 23         0.00061
       8 <- 29        -0.00171
       8 <- 31        -0.00053
       8 <- 37        -0.00088
       8 <- 52         0.00052
 This state for optimization and/or second-order correction.
 Total Energy, E(TD-HF/TD-DFT) =  -114.396400465
 Copying the excited state density for this state as the 1-particle RhoCI density.

 Excited State   2:      Singlet-B2     6.9464 eV  178.49 nm  f=0.0134  <S**2>=0.000
       3 -> 12         0.00181
       3 -> 15         0.00038
       3 -> 19         0.00160
       3 -> 22        -0.00033
       3 -> 25         0.00103
       3 -> 30         0.00024
       3 -> 33         0.00031
       3 -> 35        -0.00073
       3 -> 40        -0.00042
       3 -> 49         0.00040
       3 -> 53        -0.00012
       4 -> 12        -0.00184
       4 -> 15         0.00225
       4 -> 19         0.00156
       4 -> 22        -0.00317
       4 -> 25         0.00287
       4 -> 30         0.00020
       4 -> 35         0.00021
       4 -> 40         0.00042
       4 -> 42        -0.00012
       5 -> 10        -0.00853
       5 -> 11        -0.00389
       5 -> 14         0.00816
       5 -> 16        -0.00021
       5 -> 17         0.00522
       5 -> 20         0.00152
       5 -> 21        -0.00546
       5 -> 24        -0.00117
       5 -> 26         0.00181
       5 -> 28         0.00099
       5 -> 32        -0.00098
       5 -> 34        -0.00099
       5 -> 36        -0.00026
       5 -> 41        -0.00061
       5 -> 43        -0.00036
       5 -> 47         0.00012
       5 -> 54         0.00013
       6 -> 12        -0.00185
       6 -> 15         0.00113
       6 -> 19         0.00023
       6 -> 22        -0.00176
       6 -> 25         0.00076
       6 -> 30        -0.00038
       6 -> 33        -0.00036
       6 -> 35         0.00097
       6 -> 40         0.00030
       6 -> 42        -0.00011
       6 -> 49         0.00021
       6 -> 50        -0.00014
       7 -> 38        -0.00079
       7 -> 46        -0.00032
       8 -> 10         0.70426
       8 -> 11        -0.04938
       8 -> 14         0.02921
       8 -> 16         0.00082
       8 -> 17         0.01609
       8 -> 20         0.01615
       8 -> 21         0.00158
       8 -> 24         0.00041
       8 -> 26         0.00359
       8 -> 28         0.00196
       8 -> 32         0.00086
       8 -> 34         0.00026
       8 -> 36         0.00011
       8 -> 39         0.00028
       8 -> 41        -0.00034
       8 -> 43         0.00060
       8 -> 45         0.00022
       8 -> 47         0.00027
       8 -> 51        -0.00039
       8 -> 54         0.00031
       3 <- 12         0.00040
       3 <- 15         0.00042
       3 <- 19         0.00063
       3 <- 22        -0.00060
       3 <- 25         0.00052
       3 <- 33         0.00026
       3 <- 35        -0.00063
       3 <- 40        -0.00040
       3 <- 49         0.00045
       3 <- 53        -0.00016
       4 <- 12         0.00076
       4 <- 15         0.00203
       4 <- 19         0.00148
       4 <- 22        -0.00209
       4 <- 25         0.00189
       4 <- 30         0.00012
       4 <- 42        -0.00021
       4 <- 50        -0.00013
       5 <- 10         0.00211
       5 <- 11        -0.00027
       5 <- 14         0.00438
       5 <- 16        -0.00038
       5 <- 17         0.00019
       5 <- 20         0.00039
       5 <- 21        -0.00136
       5 <- 24        -0.00235
       5 <- 26         0.00125
       5 <- 28         0.00015
       5 <- 32        -0.00084
       5 <- 34        -0.00078
       5 <- 36        -0.00019
       5 <- 41        -0.00045
       5 <- 43        -0.00031
       6 <- 12        -0.00019
       6 <- 15        -0.00078
       6 <- 19         0.00085
       6 <- 25         0.00025
       6 <- 30         0.00074
       6 <- 33        -0.00041
       6 <- 35         0.00095
       6 <- 40         0.00026
       6 <- 49         0.00014
       6 <- 50        -0.00016
       6 <- 53         0.00024
       7 <- 38        -0.00059
       7 <- 46        -0.00022
       8 <- 10        -0.00145
       8 <- 11        -0.00138
       8 <- 14        -0.00376
       8 <- 16        -0.00083
       8 <- 17        -0.00159
       8 <- 20        -0.00056
       8 <- 21         0.00135
       8 <- 24         0.00110
       8 <- 26        -0.00103
       8 <- 28        -0.00019
       8 <- 32         0.00052
       8 <- 36         0.00035
       8 <- 41        -0.00012
       8 <- 43         0.00029
       8 <- 45         0.00032
       8 <- 51        -0.00013

 Excited State   3:      Singlet-B1     7.0902 eV  174.87 nm  f=0.0015  <S**2>=0.000
       3 ->  9        -0.03304
       3 -> 13         0.00338
       3 -> 18        -0.00616
       3 -> 23         0.00298
       3 -> 29        -0.00182
       3 -> 31        -0.00048
       3 -> 44         0.00047
       3 -> 48         0.00052
       3 -> 52         0.00110
       4 ->  9         0.01596
       4 -> 13        -0.00271
       4 -> 18         0.00070
       4 -> 23        -0.00249
       4 -> 29         0.00017
       4 -> 31        -0.00203
       4 -> 37        -0.00046
       4 -> 48        -0.00147
       4 -> 52        -0.00085
       5 -> 27        -0.00118
       5 -> 38         0.00199
       5 -> 46         0.00195
       6 ->  9         0.70577
       6 -> 13        -0.02698
       6 -> 18         0.02022
       6 -> 23        -0.01197
       6 -> 29         0.00622
       6 -> 31         0.00396
       6 -> 37        -0.00255
       6 -> 44        -0.00343
       6 -> 48         0.00505
       6 -> 52         0.00180
       7 -> 10        -0.00133
       7 -> 11        -0.00152
       7 -> 14        -0.00244
       7 -> 16        -0.01140
       7 -> 17        -0.00020
       7 -> 20         0.00189
       7 -> 21        -0.00192
       7 -> 24         0.00102
       7 -> 26         0.00015
       7 -> 28        -0.00462
       7 -> 32        -0.00118
       7 -> 34         0.00025
       7 -> 36        -0.00163
       7 -> 39         0.00014
       7 -> 41        -0.00144
       7 -> 43         0.00084
       7 -> 45         0.00426
       7 -> 47         0.00284
       7 -> 51         0.00113
       7 -> 54         0.00057
       8 -> 27         0.00175
       8 -> 38         0.00058
       8 -> 46         0.00645
       3 <-  9        -0.01059
       3 <- 13         0.00013
       3 <- 18        -0.00328
       3 <- 29        -0.00118
       3 <- 31        -0.00044
       3 <- 44        -0.00021
       3 <- 48         0.00077
       3 <- 52         0.00088
       4 <-  9         0.00612
       4 <- 18         0.00240
       4 <- 23        -0.00031
       4 <- 29         0.00216
       4 <- 31        -0.00169
       4 <- 44         0.00019
       4 <- 48        -0.00127
       4 <- 52        -0.00047
       5 <- 27        -0.00143
       5 <- 38         0.00153
       5 <- 46         0.00173
       6 <-  9        -0.02217
       6 <- 13         0.00227
       6 <- 18        -0.00301
       6 <- 29        -0.00270
       6 <- 31         0.00241
       6 <- 37        -0.00243
       6 <- 44        -0.00209
       6 <- 48         0.00446
       6 <- 52         0.00066
       7 <- 10         0.00293
       7 <- 11         0.00504
       7 <- 14         0.00249
       7 <- 16         0.00238
       7 <- 17         0.01437
       7 <- 20         0.00695
       7 <- 21        -0.00628
       7 <- 24         0.00562
       7 <- 26         0.00289
       7 <- 28         0.00054
       7 <- 32        -0.00101
       7 <- 34         0.00136
       7 <- 36        -0.00261
       7 <- 39         0.00039
       7 <- 41        -0.00095
       7 <- 43         0.00078
       7 <- 45         0.00390
       7 <- 47         0.00240
       7 <- 51         0.00083
       7 <- 54         0.00108
       8 <- 27         0.00186
       8 <- 38         0.00068
       8 <- 46         0.00580

 Excited State   4:      Singlet-A1     7.1377 eV  173.70 nm  f=0.1295  <S**2>=0.000
       3 -> 10         0.00629
       3 -> 11         0.01527
       3 -> 14         0.00842
       3 -> 17         0.02393
       3 -> 20        -0.00010
       3 -> 21        -0.00524
       3 -> 24         0.00587
       3 -> 26         0.00798
       3 -> 28         0.00068
       3 -> 32         0.00301
       3 -> 34        -0.00388
       3 -> 36        -0.00154
       3 -> 39         0.00135
       3 -> 41         0.00017
       3 -> 43         0.00060
       3 -> 45         0.00176
       3 -> 47         0.00104
       3 -> 51         0.00030
       3 -> 54         0.00030
       4 -> 10         0.02517
       4 -> 11        -0.01083
       4 -> 14         0.01520
       4 -> 16         0.00176
       4 -> 17        -0.00708
       4 -> 20         0.00950
       4 -> 24        -0.00750
       4 -> 26         0.00621
       4 -> 28         0.00101
       4 -> 32        -0.00124
       4 -> 34         0.00300
       4 -> 36         0.00063
       4 -> 39        -0.00021
       4 -> 41         0.00011
       4 -> 43        -0.00013
       4 -> 45        -0.00059
       4 -> 47        -0.00162
       4 -> 51        -0.00013
       5 -> 12         0.02980
       5 -> 15         0.02856
       5 -> 19         0.00223
       5 -> 22         0.00311
       5 -> 25         0.01302
       5 -> 30        -0.00265
       5 -> 33        -0.00331
       5 -> 35         0.00190
       5 -> 40         0.00165
       5 -> 42         0.00071
       5 -> 49         0.00062
       5 -> 50        -0.00047
       5 -> 53        -0.00032
       6 -> 10        -0.04022
       6 -> 11        -0.06677
       6 -> 14        -0.02947
       6 -> 16        -0.03975
       6 -> 17        -0.10592
       6 -> 20        -0.03453
       6 -> 21         0.02806
       6 -> 24        -0.02450
       6 -> 26        -0.01275
       6 -> 28        -0.01093
       6 -> 32        -0.00016
       6 -> 34        -0.00295
       6 -> 36         0.00214
       6 -> 39         0.00019
       6 -> 41        -0.00093
       6 -> 43         0.00046
       6 -> 45         0.00056
       6 -> 47         0.00177
       6 -> 51         0.00076
       6 -> 54        -0.00029
       7 ->  9         0.68429
       7 -> 13         0.02085
       7 -> 18        -0.02701
       7 -> 23         0.00607
       7 -> 29        -0.00486
       7 -> 31        -0.00180
       7 -> 37         0.00016
       7 -> 44        -0.00090
       7 -> 48         0.00060
       7 -> 52         0.00100
       8 -> 12         0.00824
       8 -> 15         0.12832
       8 -> 19        -0.02685
       8 -> 22        -0.04603
       8 -> 25         0.00317
       8 -> 30        -0.01518
       8 -> 33         0.00531
       8 -> 35        -0.00661
       8 -> 40        -0.00267
       8 -> 42        -0.00036
       8 -> 49         0.00067
       8 -> 50         0.00037
       8 -> 53        -0.00099
       3 <- 10         0.00337
       3 <- 11         0.00910
       3 <- 14         0.00580
       3 <- 16         0.00069
       3 <- 17         0.01536
       3 <- 20         0.00019
       3 <- 21        -0.00445
       3 <- 24         0.00401
       3 <- 26         0.00514
       3 <- 28         0.00057
       3 <- 32         0.00270
       3 <- 34        -0.00251
       3 <- 36        -0.00103
       3 <- 39         0.00103
       3 <- 41         0.00015
       3 <- 43         0.00060
       3 <- 45         0.00178
       3 <- 47         0.00130
       3 <- 51         0.00028
       3 <- 54         0.00034
       4 <- 10         0.01019
       4 <- 11        -0.00511
       4 <- 14         0.00656
       4 <- 16         0.00045
       4 <- 17        -0.00406
       4 <- 20         0.00584
       4 <- 21         0.00014
       4 <- 24        -0.00445
       4 <- 26         0.00434
       4 <- 28         0.00012
       4 <- 32        -0.00163
       4 <- 34         0.00241
       4 <- 36         0.00034
       4 <- 39        -0.00023
       4 <- 43        -0.00013
       4 <- 47        -0.00145
       5 <- 12         0.00906
       5 <- 15         0.01097
       5 <- 19         0.00129
       5 <- 22         0.00158
       5 <- 25         0.00744
       5 <- 30        -0.00152
       5 <- 33        -0.00236
       5 <- 35         0.00152
       5 <- 40         0.00138
       5 <- 42         0.00054
       5 <- 49         0.00052
       5 <- 50        -0.00043
       5 <- 53        -0.00027
       6 <- 10        -0.00835
       6 <- 11        -0.01491
       6 <- 14        -0.00880
       6 <- 16        -0.01425
       6 <- 17        -0.03868
       6 <- 20        -0.01547
       6 <- 21         0.01362
       6 <- 24        -0.01320
       6 <- 26        -0.00739
       6 <- 28        -0.00680
       6 <- 32         0.00024
       6 <- 34        -0.00268
       6 <- 36         0.00145
       6 <- 39         0.00037
       6 <- 41        -0.00061
       6 <- 43         0.00039
       6 <- 45         0.00014
       6 <- 47         0.00142
       6 <- 51         0.00056
       6 <- 54        -0.00021
       7 <-  9        -0.10252
       7 <- 13         0.01203
       7 <- 18        -0.01479
       7 <- 23         0.00703
       7 <- 29        -0.00585
       7 <- 31        -0.00030
       7 <- 37        -0.00019
       7 <- 44        -0.00037
       7 <- 52         0.00082
       8 <- 12         0.00033
       8 <- 15         0.02701
       8 <- 19        -0.00752
       8 <- 22        -0.01929
       8 <- 25         0.00097
       8 <- 30        -0.00954
       8 <- 33         0.00358
       8 <- 35        -0.00461
       8 <- 40        -0.00206
       8 <- 42        -0.00029
       8 <- 49         0.00045
       8 <- 50         0.00029
       8 <- 53        -0.00087

 Excited State   5:      Singlet-B2     7.5642 eV  163.91 nm  f=0.0276  <S**2>=0.000
       3 -> 12        -0.00039
       3 -> 15        -0.00152
       3 -> 19         0.00179
       3 -> 22         0.00055
       3 -> 25        -0.00027
       3 -> 30         0.00324
       3 -> 33         0.00019
       3 -> 35        -0.00103
       3 -> 40        -0.00082
       3 -> 49         0.00099
       3 -> 50        -0.00016
       4 -> 12         0.00195
       4 -> 15         0.00089
       4 -> 19         0.00083
       4 -> 22        -0.00146
       4 -> 25         0.00224
       4 -> 30        -0.00171
       4 -> 33         0.00048
       4 -> 35        -0.00064
       4 -> 40         0.00010
       4 -> 49         0.00015
       5 -> 10        -0.00097
       5 -> 11         0.00068
       5 -> 14         0.01115
       5 -> 16        -0.00553
       5 -> 17        -0.00085
       5 -> 20        -0.00389
       5 -> 21        -0.00391
       5 -> 24        -0.00062
       5 -> 26         0.00199
       5 -> 28         0.00149
       5 -> 32         0.00050
       5 -> 34        -0.00056
       5 -> 36        -0.00068
       5 -> 39         0.00068
       5 -> 41        -0.00056
       5 -> 43         0.00028
       5 -> 45         0.00093
       5 -> 47         0.00029
       5 -> 51        -0.00049
       6 -> 12        -0.00223
       6 -> 15        -0.00066
       6 -> 19        -0.00087
       6 -> 22         0.00087
       6 -> 25         0.00016
       6 -> 30         0.00132
       6 -> 33        -0.00050
       6 -> 35         0.00151
       6 -> 40         0.00135
       6 -> 42         0.00014
       6 -> 49        -0.00159
       6 -> 50         0.00018
       6 -> 53         0.00016
       7 -> 27         0.00059
       7 -> 38        -0.00067
       7 -> 46        -0.00262
       8 -> 10         0.04770
       8 -> 11         0.70312
       8 -> 14         0.01201
       8 -> 16         0.01342
       8 -> 17         0.05284
       8 -> 20        -0.01003
       8 -> 21         0.00039
       8 -> 24         0.00257
       8 -> 26         0.00056
       8 -> 28         0.00409
       8 -> 32         0.00022
       8 -> 34        -0.00034
       8 -> 36        -0.00067
       8 -> 39        -0.00023
       8 -> 41        -0.00083
       8 -> 43         0.00040
       8 -> 45         0.00325
       8 -> 47         0.00050
       8 -> 51        -0.00149
       8 -> 54         0.00023
       3 <- 12         0.00033
       3 <- 15        -0.00052
       3 <- 19         0.00127
       3 <- 30         0.00162
       3 <- 33         0.00029
       3 <- 35        -0.00094
       3 <- 40        -0.00076
       3 <- 49         0.00095
       3 <- 50        -0.00011
       3 <- 53        -0.00046

 The electronic state is 1-A1.
 Alpha  occ. eigenvalues --  -19.16286 -10.30643  -0.98884  -0.67312  -0.49038
 Alpha  occ. eigenvalues --   -0.44052  -0.36459  -0.28940
 Alpha virt. eigenvalues --   -0.10970   0.00150   0.03216   0.04160   0.06220
 Alpha virt. eigenvalues --    0.11917   0.15930   0.18876   0.20411   0.21755
 Alpha virt. eigenvalues --    0.23729   0.30163   0.41030   0.43414   0.50960

 Mulliken charges:
               1
     1  C   -0.021444
     2  H    0.153138
     3  H    0.153138
     4  O   -0.284832
 Sum of Mulliken charges =  -0.00000

 Dipole moment (field-independent basis, Debye):
    X=             -0.0000    Y=              0.0000    Z=             -3.2250  Tot=              3.2250
 Quadrupole moment (field-independent basis, Debye-Ang):
   XX=            -12.2890   YY=            -11.7629   ZZ=            -11.9104
   XY=              0.0000   XZ=              0.0000   YZ=             -0.0000

 Normal termination of Gaussian 16 at Fri Sep 17 10:52:51 2021.
