 Gaussian 16, Revision A.03,
 Gaussian 16:  ES64L-G16RevA.03 25-Dec-2016

 --------------------------------------------------------------------
 #p B3LYP/6-311+G** #p TD=(singlets,nstates=30)IOp(6/8=3) IOp(9/40=4)
 --------------------------------------------------------------------

 -------------------------------
 Scan Step 242, Bond Length 1.71
 -------------------------------
 Symbolic Z-matrix:
 Charge =  0 Multiplicity = 1

                         Standard orientation:
 ---------------------------------------------------------------------
 Center     Atomic      Atomic             Coordinates (Angstroms)
 Number     Number       Type             X           Y           Z
 ---------------------------------------------------------------------
      1          6           0        0.000000    0.000000   -0.781081
      2          1           0        0.000000    0.937260   -1.372431
      3          1           0       -0.000000   -0.937260   -1.372431
      4          8           0        0.000000   -0.000000    0.928919
 ---------------------------------------------------------------------

 SCF Done:  E(RB3LYP) =  -114.387551514     A.U. after   11 cycles

 Excitation energies and oscillator strengths:

 Excited State   1:      Singlet-A2     1.6139 eV  768.21 nm  f=0.0000  <S**2>=0.000
       3 -> 27         0.00093
       3 -> 38         0.00064
       3 -> 46         0.00335
       4 -> 27         0.00053
       4 -> 46        -0.00115
       5 ->  9         0.00427
       5 -> 13         0.00109
       5 -> 18         0.00226
       5 -> 23         0.00154
       5 -> 28         0.00187
       5 -> 37         0.00103
       5 -> 44         0.00027
       5 -> 52         0.00025
       6 -> 27        -0.00062
       6 -> 38        -0.00067
       6 -> 46         0.00114
       7 -> 12        -0.00108
       7 -> 16         0.00506
       7 -> 19        -0.00435
       7 -> 22        -0.00099
       7 -> 25         0.00075
       7 -> 29        -0.00173
       7 -> 33         0.00032
       7 -> 49         0.00012
       7 -> 50         0.00012
       7 -> 53         0.00042
       8 ->  9         0.70952
       8 -> 13        -0.00968
       8 -> 18         0.02128
       8 -> 23        -0.00207
       8 -> 28         0.01077
       8 -> 31         0.00144
       8 -> 37         0.00056
       8 -> 48        -0.00031
       8 -> 52         0.00191
       3 <- 27         0.00035
       3 <- 38         0.00039
       3 <- 46         0.00339
       4 <- 27         0.00095
       4 <- 38         0.00022
       4 <- 46        -0.00092
       5 <- 13        -0.00043
       5 <- 18        -0.00053
       5 <- 23         0.00021
       5 <- 28        -0.00037
       5 <- 31         0.00028
       5 <- 37         0.00059
       6 <- 38        -0.00053
       6 <- 46         0.00086
       7 <- 12         0.00120
       7 <- 16        -0.01040
       7 <- 19         0.00465
       7 <- 22         0.00641
       7 <- 25         0.00060
       7 <- 29         0.00548
       7 <- 33        -0.00040
       7 <- 35         0.00045
       7 <- 40        -0.00029
       7 <- 42         0.00016
       7 <- 49        -0.00046
       7 <- 53         0.00146
       8 <-  9        -0.06252
       8 <- 18        -0.00718
       8 <- 28        -0.00260
       8 <- 31        -0.00072
       8 <- 37        -0.00032
       8 <- 48         0.00012
       8 <- 52         0.00048
 This state for optimization and/or second-order correction.
 Total Energy, E(TD-HF/TD-DFT) =  -114.328240743
 Copying the excited state density for this state as the 1-particle RhoCI density.

 Excited State   2:      Singlet-A1     4.2126 eV  294.32 nm  f=0.0507  <S**2>=0.000
       3 -> 10        -0.01786
       3 -> 11        -0.00676
       3 -> 14         0.00538
       3 -> 15         0.00199
       3 -> 17        -0.00333
       3 -> 20        -0.00393
       3 -> 21        -0.00019
       3 -> 24         0.00141
       3 -> 26         0.00255
       3 -> 30        -0.00126
       3 -> 32         0.00276
       3 -> 34         0.00158
       3 -> 36        -0.00118
       3 -> 39         0.00062
       3 -> 43         0.00051
       3 -> 45         0.00055
       3 -> 47         0.00230
       3 -> 51         0.00132
       4 -> 10        -0.00527
       4 -> 11         0.01261
       4 -> 14         0.00327
       4 -> 15        -0.00908
       4 -> 17         0.00274
       4 -> 20         0.00358
       4 -> 21         0.00037
       4 -> 24        -0.00435
       4 -> 26         0.00425
       4 -> 30         0.00084
       4 -> 32        -0.00136
       4 -> 34        -0.00117
       4 -> 36         0.00036
       4 -> 41         0.00011
       4 -> 43        -0.00051
       4 -> 45        -0.00082
       4 -> 47        -0.00098
       4 -> 51        -0.00032
       4 -> 54         0.00014
       5 -> 12         0.01323
       5 -> 16         0.00626
       5 -> 19         0.00137
       5 -> 22         0.00746
       5 -> 25         0.00642
       5 -> 29         0.00018
       5 -> 33        -0.00275
       5 -> 35         0.00278
       5 -> 40        -0.00129
       5 -> 42         0.00080
       5 -> 49         0.00031
       5 -> 50        -0.00077
       6 -> 10         0.21313
       6 -> 11         0.06616
       6 -> 14        -0.07097
       6 -> 15        -0.03744
       6 -> 17        -0.01818
       6 -> 20        -0.00554
       6 -> 21         0.00923
       6 -> 24        -0.01084
       6 -> 26        -0.00491
       6 -> 30        -0.00654
       6 -> 32         0.00207
       6 -> 34         0.00141
       6 -> 39         0.00108
       6 -> 41        -0.00025
       6 -> 43         0.00086
       6 -> 45         0.00083
       6 -> 47         0.00099
       6 -> 51         0.00073
       6 -> 54        -0.00084
       7 ->  9         0.68050
       7 -> 13        -0.00379
       7 -> 18        -0.01434
       7 -> 23        -0.00149
       7 -> 31        -0.00320
       7 -> 37         0.00115
       7 -> 44        -0.00101
       7 -> 48         0.00024
       7 -> 52         0.00106
       8 -> 12        -0.00791
       8 -> 16         0.05181
       8 -> 19        -0.02163
       8 -> 22        -0.01916
       8 -> 25         0.00018
       8 -> 29        -0.01006
       8 -> 33         0.00149
       8 -> 35        -0.00154
       8 -> 40         0.00073
       8 -> 42        -0.00035
       8 -> 49         0.00038
       8 -> 50         0.00019
       8 -> 53        -0.00060
       3 <- 10        -0.01300
       3 <- 11        -0.00531
       3 <- 14         0.00425
       3 <- 15         0.00112
       3 <- 17        -0.00181
       3 <- 20        -0.00310
       3 <- 21        -0.00063
       3 <- 24         0.00072
       3 <- 26         0.00133
       3 <- 30        -0.00074
       3 <- 32         0.00249
       3 <- 34         0.00092
       3 <- 36        -0.00106
       3 <- 39         0.00058
       3 <- 43         0.00059
       3 <- 45         0.00073
       3 <- 47         0.00234
       3 <- 51         0.00130
       3 <- 54         0.00017
       4 <- 10        -0.00213
       4 <- 11         0.00847
       4 <- 14         0.00198
       4 <- 15        -0.00577
       4 <- 17         0.00152
       4 <- 20         0.00352
       4 <- 21         0.00022
       4 <- 24        -0.00314
       4 <- 26         0.00355
       4 <- 30         0.00014
       4 <- 32        -0.00158
       4 <- 34        -0.00100
       4 <- 36         0.00063
       4 <- 43        -0.00048
       4 <- 45        -0.00083
       4 <- 47        -0.00062
       4 <- 51        -0.00018
       4 <- 54         0.00010
       5 <- 12         0.00689
       5 <- 16         0.00363
       5 <- 19         0.00101
       5 <- 22         0.00498
       5 <- 25         0.00468
       5 <- 29         0.00025
       5 <- 33        -0.00221
       5 <- 35         0.00233
       5 <- 40        -0.00115
       5 <- 42         0.00068
       5 <- 49         0.00029
       5 <- 50        -0.00071
       6 <- 10         0.06884
       6 <- 11         0.02392
       6 <- 14        -0.03068
       6 <- 15        -0.01781
       6 <- 17        -0.00985
       6 <- 20        -0.00443
       6 <- 21         0.00583
       6 <- 24        -0.00689
       6 <- 26        -0.00278
       6 <- 30        -0.00458
       6 <- 32         0.00236
       6 <- 34         0.00164
       6 <- 36        -0.00050
       6 <- 39         0.00106
       6 <- 41        -0.00019
       6 <- 43         0.00072
       6 <- 45         0.00066
       6 <- 47         0.00059
       6 <- 51         0.00058
       6 <- 54        -0.00074
       7 <-  9        -0.12914
       7 <- 13         0.00543
       7 <- 18        -0.01277
       7 <- 23         0.00211
       7 <- 28        -0.00279
       7 <- 31        -0.00155
       7 <- 37         0.00050
       7 <- 44        -0.00070
       7 <- 48        -0.00031
       7 <- 52         0.00095
       8 <- 12        -0.00250
       8 <- 16         0.02192
       8 <- 19        -0.01082
       8 <- 22        -0.01149
       8 <- 29        -0.00766
       8 <- 33         0.00115
       8 <- 35        -0.00120
       8 <- 40         0.00059
       8 <- 42        -0.00028
       8 <- 49         0.00022
       8 <- 50         0.00016
       8 <- 53        -0.00055

 Excited State   3:      Singlet-B1     4.6474 eV  266.78 nm  f=0.0011  <S**2>=0.000
       3 ->  9        -0.02614
       3 -> 13         0.00125
       3 -> 18        -0.00409
       3 -> 23         0.00145
       3 -> 28        -0.00078
       3 -> 31        -0.00052
       3 -> 44         0.00025
       3 -> 48         0.00094
       3 -> 52         0.00086
       4 ->  9         0.01167
       4 -> 13        -0.00247
       4 -> 18         0.00014
       4 -> 23        -0.00221
       4 -> 28         0.00034
       4 -> 31        -0.00138
       4 -> 37        -0.00035
       4 -> 44         0.00011
       4 -> 48        -0.00086
       4 -> 52        -0.00045
       5 -> 27         0.00015
       5 -> 38         0.00195
       5 -> 46         0.00065
       6 ->  9         0.69926
       6 -> 13        -0.01836
       6 -> 18         0.01540
       6 -> 23        -0.01057
       6 -> 28         0.00375
       6 -> 31         0.00283
       6 -> 37        -0.00191
       6 -> 44        -0.00238
       6 -> 48         0.00378
       6 -> 52         0.00125
       7 -> 10         0.10337
       7 -> 11         0.02558
       7 -> 14        -0.02150
       7 -> 15        -0.00620
       7 -> 17        -0.00899
       7 -> 20         0.00337
       7 -> 21         0.00089
       7 -> 24        -0.00138
       7 -> 26        -0.00207
       7 -> 30        -0.00393
       7 -> 32        -0.00028
       7 -> 34         0.00091
       7 -> 36         0.00162
       7 -> 39         0.00017
       7 -> 41        -0.00033
       7 -> 43         0.00049
       7 -> 45         0.00020
       7 -> 47         0.00389
       7 -> 51         0.00121
       7 -> 54         0.00021
       8 -> 27         0.00024
       8 -> 46         0.00482
       3 <-  9        -0.00883
       3 <- 13        -0.00081
       3 <- 18        -0.00269
       3 <- 23        -0.00061
       3 <- 28        -0.00045
       3 <- 31        -0.00073
       3 <- 37         0.00013
       3 <- 44        -0.00016
       3 <- 48         0.00108
       3 <- 52         0.00072
       4 <-  9         0.00649
       4 <- 13        -0.00041
       4 <- 18         0.00168
       4 <- 23        -0.00075
       4 <- 28         0.00146
       4 <- 31        -0.00093
       4 <- 37        -0.00022
       4 <- 48        -0.00075
       4 <- 52        -0.00025
       5 <- 27        -0.00041
       5 <- 38         0.00164
       5 <- 46         0.00057
       6 <-  9        -0.03006
       6 <- 13         0.00182
       6 <- 18        -0.00378
       6 <- 23        -0.00015
       6 <- 28        -0.00365
       6 <- 31         0.00077
       6 <- 37        -0.00161
       6 <- 44        -0.00108
       6 <- 48         0.00338
       6 <- 52         0.00032
       7 <- 10        -0.03069
       7 <- 11        -0.01059
       7 <- 14         0.01462
       7 <- 15         0.00980
       7 <- 17         0.00222
       7 <- 20         0.00414
       7 <- 21        -0.00376
       7 <- 24         0.00432
       7 <- 26         0.00170
       7 <- 30         0.00155
       7 <- 32         0.00028
       7 <- 34         0.00110
       7 <- 36         0.00212
       7 <- 39         0.00053
       7 <- 43         0.00031
       7 <- 47         0.00360
       7 <- 51         0.00120
       7 <- 54         0.00099
       8 <- 27         0.00072
       8 <- 38         0.00017
       8 <- 46         0.00451

 Excited State   4:      Singlet-B2     4.9345 eV  251.26 nm  f=0.0061  <S**2>=0.000
       3 -> 12        -0.00143
       3 -> 16         0.00184
       3 -> 19        -0.00453
       3 -> 22         0.00083
       3 -> 25         0.00074
       3 -> 29        -0.00316
       3 -> 35         0.00195
       3 -> 40        -0.00171
       3 -> 42         0.00043
       3 -> 49        -0.00336
       3 -> 50         0.00021
       3 -> 53         0.00031
       4 -> 12         0.00046
       4 -> 16        -0.00214
       4 -> 19         0.00041
       4 -> 22         0.00245
       4 -> 25        -0.00118
       4 -> 29         0.00129
       4 -> 33        -0.00043
       4 -> 35         0.00050
       4 -> 40         0.00043
       4 -> 49         0.00062
       4 -> 50        -0.00012
       5 -> 10         0.01082
       5 -> 11         0.00316
       5 -> 14        -0.00716
       5 -> 15         0.00420
       5 -> 17        -0.00020
       5 -> 20         0.00215
       5 -> 21         0.00469
       5 -> 24         0.00172
       5 -> 26        -0.00115
       5 -> 30        -0.00197
       5 -> 32        -0.00194
       5 -> 34        -0.00074
       5 -> 36        -0.00017
       5 -> 39        -0.00093
       5 -> 41         0.00058
       5 -> 47        -0.00066
       5 -> 51         0.00040
       5 -> 54        -0.00023
       6 -> 12         0.00281
       6 -> 16        -0.00231
       6 -> 19         0.00372
       6 -> 22        -0.00045
       6 -> 25        -0.00100
       6 -> 29        -0.00028
       6 -> 35        -0.00177
       6 -> 40         0.00141
       6 -> 42        -0.00061
       6 -> 49         0.00156
       6 -> 53        -0.00043
       7 -> 27        -0.00066
       7 -> 38         0.00059
       7 -> 46         0.00363
       8 -> 10         0.68729
       8 -> 11         0.13189
       8 -> 14        -0.09544
       8 -> 15        -0.03763
       8 -> 17        -0.01604
       8 -> 20         0.00158
       8 -> 21         0.00746
       8 -> 24        -0.00681
       8 -> 26        -0.00535
       8 -> 30        -0.01146
       8 -> 32        -0.00372
       8 -> 34        -0.00179
       8 -> 36         0.00052
       8 -> 39        -0.00075
       8 -> 43        -0.00017
       8 -> 45         0.00119
       8 -> 47        -0.00446
       8 -> 51         0.00201
       8 -> 54        -0.00214
       3 <- 12        -0.00051
       3 <- 16         0.00056
       3 <- 19        -0.00216
       3 <- 22         0.00096
       3 <- 25         0.00066
       3 <- 29        -0.00126
       3 <- 35         0.00143
       3 <- 40        -0.00149
       3 <- 42         0.00034
       3 <- 49        -0.00344
       3 <- 50         0.00019
       3 <- 53         0.00085
       4 <- 16        -0.00207
       4 <- 22         0.00250
       4 <- 25        -0.00074
       4 <- 29         0.00131
       4 <- 33        -0.00048
       4 <- 35         0.00073
       4 <- 40         0.00016
       4 <- 49         0.00045
       5 <- 10        -0.00065
       5 <- 11        -0.00118
       5 <- 14        -0.00079
       5 <- 15         0.00332
       5 <- 17         0.00020
       5 <- 20         0.00072
       5 <- 21         0.00198
       5 <- 24         0.00212
       5 <- 26        -0.00031
       5 <- 30        -0.00044
       5 <- 32        -0.00026
       5 <- 34        -0.00013
       5 <- 39        -0.00035
       5 <- 41         0.00061
       5 <- 43         0.00010
       5 <- 45         0.00034
       5 <- 47        -0.00060
       5 <- 51         0.00022
       6 <- 12        -0.00029
       6 <- 16         0.00669
       6 <- 19        -0.00319
       6 <- 22        -0.00477
       6 <- 25        -0.00085
       6 <- 29        -0.00554
       6 <- 33         0.00042
       6 <- 35        -0.00171
       6 <- 40         0.00144
       6 <- 42        -0.00068
       6 <- 49         0.00188
       6 <- 53        -0.00127
       7 <- 27        -0.00064
       7 <- 38         0.00047
       7 <- 46         0.00305
       8 <- 10        -0.02762
       8 <- 11        -0.00976
       8 <- 14         0.01023
       8 <- 15         0.00291
       8 <- 17         0.00096
       8 <- 20        -0.00282
       8 <- 21        -0.00194
       8 <- 24         0.00160
       8 <- 26         0.00170
       8 <- 30        -0.00017
       8 <- 32         0.00297
       8 <- 34         0.00114
       8 <- 36        -0.00053
       8 <- 39         0.00145
       8 <- 41         0.00039
       8 <- 43         0.00048
       8 <- 45         0.00196
       8 <- 47        -0.00352
       8 <- 51         0.00136
       8 <- 54        -0.00057

 Excited State   5:      Singlet-B1     5.8887 eV  210.54 nm  f=0.0079  <S**2>=0.000
       3 ->  9        -0.01223
       3 -> 13         0.00068
       3 -> 18        -0.00297
       3 -> 23         0.00085
       3 -> 28        -0.00321
       3 -> 31        -0.00161
       3 -> 44         0.00044
       3 -> 48        -0.00249
       4 ->  9        -0.03322
       4 -> 13         0.00627
       4 -> 18         0.00131
       4 -> 23         0.00463
       4 -> 28         0.00175
       4 -> 37         0.00034
       4 -> 44        -0.00047
       4 -> 48         0.00064
       4 -> 52         0.00012
       5 -> 27        -0.00711
       5 -> 38        -0.00317
       5 -> 46         0.00044
       6 ->  9        -0.10617
       6 -> 13        -0.00213
       6 -> 18         0.00206
       6 -> 23        -0.00054
       6 -> 28         0.00333
       6 -> 31        -0.00366
       6 -> 37         0.00201
       6 -> 44         0.00021
       6 -> 48         0.00065
       6 -> 52        -0.00058
       7 -> 10         0.68291
       7 -> 11         0.11312
       7 -> 14        -0.08567
       7 -> 15        -0.04296
       7 -> 17        -0.00984
       7 -> 20        -0.00418
       7 -> 21         0.00383
       7 -> 24        -0.00997
       7 -> 26        -0.00719
       7 -> 30        -0.00689
       7 -> 32        -0.00195
       7 -> 34        -0.00398
       7 -> 36        -0.00173
       7 -> 39        -0.00065
       7 -> 43         0.00062
       7 -> 45         0.00093
       7 -> 47         0.00178
       7 -> 51         0.00090
       7 -> 54        -0.00146
       8 -> 27         0.00099
       8 -> 38         0.00028
       8 -> 46         0.00211
       3 <-  9        -0.00263
       3 <- 13         0.00065
       3 <- 18        -0.00120
       3 <- 23         0.00060
       3 <- 28        -0.00204
       3 <- 31        -0.00030
       3 <- 37        -0.00020
       3 <- 44         0.00018
       3 <- 48        -0.00266
       3 <- 52         0.00040
       4 <-  9        -0.01159
       4 <- 13         0.00253
       4 <- 18         0.00049
       4 <- 23         0.00242
       4 <- 28         0.00163
       4 <- 31        -0.00021
       4 <- 37         0.00040
       4 <- 44        -0.00068
       4 <- 48         0.00022
       4 <- 52         0.00011
       5 <- 27        -0.00482
       5 <- 38        -0.00246
       5 <- 46         0.00042
       6 <-  9        -0.02635
       6 <- 18        -0.00373
       6 <- 23         0.00037
       6 <- 28        -0.00061
       6 <- 31        -0.00427
       6 <- 37         0.00176
       6 <- 44         0.00041
       6 <- 48         0.00107

 The electronic state is 1-A1.
 Alpha  occ. eigenvalues --  -19.17521 -10.33354  -0.90838  -0.70599  -0.49005
 Alpha  occ. eigenvalues --   -0.40294  -0.31815  -0.28857
 Alpha virt. eigenvalues --   -0.15921  -0.03825   0.00375   0.04067   0.06106
 Alpha virt. eigenvalues --    0.07271   0.12206   0.13865   0.18858   0.21212
 Alpha virt. eigenvalues --    0.23986   0.30301   0.38727   0.40293   0.50822

 Mulliken charges:
               1
     1  C   -0.079939
     2  H    0.186943
     3  H    0.186943
     4  O   -0.293948
 Sum of Mulliken charges =   0.00000

 Dipole moment (field-independent basis, Debye):
    X=             -0.0000    Y=              0.0000    Z=             -3.9718  Tot=              3.9718
 Quadrupole moment (field-independent basis, Debye-Ang):
   XX=            -12.9029   YY=            -11.9623   ZZ=            -10.9883
   XY=              0.0000   XZ=              0.0000   YZ=              0.0000

 Normal termination of Gaussian 16 at Fri Sep 17 10:53:05 2021.
