 Gaussian 16, Revision A.03,
 Gaussian 16:  ES64L-G16RevA.03 25-Dec-2016

 --------------------------------------------------------------------
 #p B3LYP/6-311+G** #p TD=(singlets,nstates=30)IOp(6/8=3) IOp(9/40=4)
 --------------------------------------------------------------------

 -------------------------------
 Scan Step 116, Bond Length 1.08
 -------------------------------
 Symbolic Z-matrix:
 Charge =  0 Multiplicity = 1

                         Standard orientation:
 ---------------------------------------------------------------------
 Center     Atomic      Atomic             Coordinates (Angstroms)
 Number     Number       Type             X           Y           Z
 ---------------------------------------------------------------------
      1          6           0        0.000000    0.000000   -0.466081
      2          1           0        0.000000    0.937260   -1.057431
      3          1           0       -0.000000   -0.937260   -1.057431
      4          8           0        0.000000    0.000000    0.613919
 ---------------------------------------------------------------------

 SCF Done:  E(RB3LYP) =  -114.511140861     A.U. after    9 cycles

 Excitation energies and oscillator strengths:

 Excited State   1:      Singlet-A2     4.6744 eV  265.24 nm  f=0.0000  <S**2>=0.000
       3 -> 27         0.00286
       3 -> 38         0.00241
       3 -> 45         0.00202
       4 -> 27         0.00258
       4 -> 38        -0.00070
       4 -> 45        -0.00109
       5 ->  9         0.01988
       5 -> 13        -0.00663
       5 -> 17         0.00613
       5 -> 23        -0.00185
       5 -> 28         0.00396
       5 -> 31         0.00291
       5 -> 36         0.00395
       5 -> 44         0.00068
       5 -> 47         0.00013
       5 -> 52         0.00085
       6 -> 27         0.00035
       6 -> 38        -0.00068
       6 -> 45         0.00168
       7 -> 12        -0.00062
       7 -> 16         0.00203
       7 -> 18        -0.00204
       7 -> 22         0.00136
       7 -> 24         0.00127
       7 -> 30        -0.00076
       7 -> 34         0.00038
       7 -> 35         0.00045
       7 -> 40        -0.00039
       7 -> 48         0.00056
       7 -> 51         0.00022
       7 -> 53         0.00042
       8 ->  9         0.70277
       8 -> 13        -0.07232
       8 -> 17         0.02481
       8 -> 23        -0.01180
       8 -> 28         0.00740
       8 -> 31         0.00340
       8 -> 36        -0.00107
       8 -> 44        -0.00022
       8 -> 47        -0.00019
       8 -> 52         0.00142
       3 <- 27         0.00197
       3 <- 38         0.00204
       3 <- 45         0.00210
       4 <- 27         0.00337
       4 <- 38        -0.00015
       4 <- 45        -0.00097
       5 <- 13        -0.00093
       5 <- 17        -0.00074
       5 <- 23         0.00053
       5 <- 28        -0.00048
       5 <- 31        -0.00108
       5 <- 36         0.00179
       5 <- 44         0.00036
       5 <- 47         0.00017
       5 <- 52         0.00022
       6 <- 27         0.00079
       6 <- 38        -0.00064
       6 <- 45         0.00130
       7 <- 12        -0.00095
       7 <- 16        -0.00562
       7 <- 18        -0.00110
       7 <- 22         0.00669
       7 <- 24        -0.00069
       7 <- 30         0.00254
       7 <- 34        -0.00131
       7 <- 35         0.00253
       7 <- 40        -0.00097
       7 <- 42         0.00043
       7 <- 48         0.00039
       7 <- 53         0.00111
       8 <-  9        -0.01815
       8 <- 13         0.00491
       8 <- 17        -0.00388
       8 <- 23         0.00075
       8 <- 28        -0.00058
       8 <- 31         0.00159
       8 <- 36        -0.00194
       8 <- 52         0.00042
 This state for optimization and/or second-order correction.
 Total Energy, E(TD-HF/TD-DFT) =  -114.339358477
 Copying the excited state density for this state as the 1-particle RhoCI density.

 Excited State   2:      Singlet-B2     6.6092 eV  187.59 nm  f=0.0514  <S**2>=0.000
       3 -> 12         0.00123
       3 -> 16         0.00061
       3 -> 18         0.00111
       3 -> 22        -0.00024
       3 -> 24         0.00130
       3 -> 30        -0.00012
       3 -> 35        -0.00026
       4 -> 12        -0.00434
       4 -> 16         0.00111
       4 -> 18         0.00234
       4 -> 22        -0.00331
       4 -> 24         0.00378
       4 -> 34        -0.00077
       4 -> 35         0.00081
       4 -> 40        -0.00050
       5 -> 10        -0.00313
       5 -> 11        -0.00924
       5 -> 14         0.00676
       5 -> 15        -0.00123
       5 -> 19         0.00272
       5 -> 20         0.00030
       5 -> 21         0.00473
       5 -> 25         0.00020
       5 -> 26         0.00242
       5 -> 29         0.00213
       5 -> 32        -0.00015
       5 -> 33        -0.00086
       5 -> 37        -0.00038
       5 -> 39        -0.00030
       5 -> 43        -0.00055
       5 -> 46        -0.00052
       5 -> 49         0.00017
       6 -> 12         0.00115
       6 -> 16         0.00105
       6 -> 18         0.00352
       6 -> 22        -0.00271
       6 -> 24         0.00165
       6 -> 30        -0.00033
       6 -> 34        -0.00014
       6 -> 40         0.00019
       6 -> 42        -0.00029
       6 -> 48         0.00038
       6 -> 51        -0.00049
       7 -> 27         0.00046
       7 -> 38        -0.00030
       7 -> 45         0.00068
       8 -> 10         0.70477
       8 -> 11        -0.05161
       8 -> 14         0.00228
       8 -> 15        -0.00923
       8 -> 19         0.01704
       8 -> 20         0.01083
       8 -> 21        -0.00483
       8 -> 25         0.00073
       8 -> 26         0.00144
       8 -> 29         0.00056
       8 -> 32         0.00069
       8 -> 33         0.00222
       8 -> 37         0.00053
       8 -> 39         0.00051
       8 -> 41        -0.00016
       8 -> 43         0.00069
       8 -> 46        -0.00085
       8 -> 54         0.00017
       3 <- 12         0.00034
       3 <- 16         0.00050
       3 <- 18         0.00047
       3 <- 22        -0.00034
       3 <- 24         0.00084
       3 <- 30        -0.00011
       3 <- 35        -0.00025
       4 <- 12         0.00056
       4 <- 16         0.00152
       4 <- 18         0.00244
       4 <- 22        -0.00202
       4 <- 24         0.00268
       4 <- 34        -0.00052
       4 <- 35         0.00053
       4 <- 40        -0.00024
       4 <- 42        -0.00015
       4 <- 48        -0.00011
       5 <- 10         0.00245
       5 <- 11        -0.00019
       5 <- 14         0.00493
       5 <- 15        -0.00114
       5 <- 19         0.00065
       5 <- 20         0.00037
       5 <- 21         0.00228
       5 <- 25         0.00168
       5 <- 26         0.00153
       5 <- 29         0.00060
       5 <- 32        -0.00036
       5 <- 33        -0.00082
       5 <- 37        -0.00037
       5 <- 39        -0.00017
       5 <- 43        -0.00039
       5 <- 46        -0.00044
       5 <- 49         0.00016
       6 <- 12         0.00034
       6 <- 16        -0.00021
       6 <- 18         0.00165
       6 <- 22        -0.00095
       6 <- 24         0.00063
       6 <- 30         0.00038
       6 <- 34        -0.00021
       6 <- 35         0.00028
       6 <- 40         0.00017
       6 <- 42        -0.00028
       6 <- 48         0.00032
       6 <- 51        -0.00050
       6 <- 53         0.00011
       7 <- 27         0.00035
       7 <- 38        -0.00022
       7 <- 45         0.00058
       8 <- 10        -0.00263
       8 <- 11        -0.00076
       8 <- 14        -0.00809
       8 <- 15         0.00013
       8 <- 19        -0.00047
       8 <- 20        -0.00039
       8 <- 21        -0.00296
       8 <- 25        -0.00279
       8 <- 29        -0.00070
       8 <- 32        -0.00026
       8 <- 33         0.00150
       8 <- 37         0.00052
       8 <- 39         0.00042
       8 <- 43         0.00052
       8 <- 46        -0.00058
       8 <- 50        -0.00014

 Excited State   3:      Singlet-B2     7.4038 eV  167.46 nm  f=0.0215  <S**2>=0.000
       3 -> 12        -0.00022
       3 -> 16        -0.00066
       3 -> 18         0.00057
       3 -> 22         0.00027
       3 -> 24         0.00030
       3 -> 30         0.00157
       3 -> 34         0.00014
       3 -> 35        -0.00035
       3 -> 40         0.00031
       3 -> 42        -0.00019
       3 -> 48         0.00028
       3 -> 51        -0.00027
       4 -> 12         0.00309
       4 -> 16        -0.00089
       4 -> 18         0.00322
       4 -> 22        -0.00155
       4 -> 24         0.00329
       4 -> 30        -0.00108
       4 -> 34         0.00053
       4 -> 35        -0.00042
       4 -> 42        -0.00019
       4 -> 48         0.00019
       4 -> 51        -0.00015
       5 -> 10        -0.00752
       5 -> 11         0.00029
       5 -> 14         0.00603
       5 -> 15        -0.00664
       5 -> 19        -0.00374
       5 -> 20        -0.00300
       5 -> 21         0.00100
       5 -> 25         0.00141
       5 -> 26        -0.00050
       5 -> 29         0.00143
       5 -> 32        -0.00098
       5 -> 33        -0.00136
       5 -> 39         0.00046
       5 -> 41        -0.00085
       5 -> 46         0.00079
       5 -> 49        -0.00024
       5 -> 50         0.00039
       6 -> 12        -0.00324
       6 -> 16        -0.00186
       6 -> 18        -0.00145
       6 -> 22         0.00146
       6 -> 30         0.00058
       6 -> 34        -0.00044
       6 -> 35         0.00145
       6 -> 40        -0.00088
       6 -> 42         0.00028
       6 -> 48        -0.00082
       6 -> 51         0.00067
       6 -> 53         0.00012
       7 -> 27        -0.00042
       7 -> 38        -0.00114
       7 -> 45        -0.00146
       8 -> 10         0.05224
       8 -> 11         0.70424
       8 -> 14        -0.01139
       8 -> 15         0.01626
       8 -> 19        -0.02455
       8 -> 20         0.01182
       8 -> 21        -0.00213
       8 -> 25         0.00052
       8 -> 26        -0.00151
       8 -> 29        -0.00066
       8 -> 32        -0.00034
       8 -> 33         0.00021
       8 -> 41        -0.00139
       8 -> 43         0.00013
       8 -> 46         0.00129
       8 -> 49        -0.00053
       8 -> 50         0.00068
       8 -> 54        -0.00017
       3 <- 12         0.00032
       3 <- 16        -0.00027
       3 <- 18         0.00077
       3 <- 24         0.00040
       3 <- 30         0.00095
       3 <- 34         0.00021
       3 <- 35        -0.00041
       3 <- 40         0.00027
       3 <- 42        -0.00016
       3 <- 48         0.00023
       3 <- 51        -0.00017
       3 <- 53        -0.00023
       4 <- 12         0.00036
       4 <- 16         0.00050
       4 <- 18         0.00092
       4 <- 22        -0.00119
       4 <- 24         0.00136
       4 <- 30        -0.00046
       4 <- 34         0.00049
       4 <- 42        -0.00021
       4 <- 48         0.00013
       4 <- 51        -0.00020
       5 <- 10         0.00131
       5 <- 11        -0.00083
       5 <- 14         0.00225
       5 <- 15        -0.00045
       5 <- 19         0.00078
       5 <- 20        -0.00017
       5 <- 21         0.00088
       5 <- 25         0.00114
       5 <- 26        -0.00054
       5 <- 29         0.00077
       5 <- 32         0.00047
       5 <- 33        -0.00114
       5 <- 37         0.00017
       5 <- 39         0.00021
       5 <- 41        -0.00087
       5 <- 46         0.00073
       5 <- 49        -0.00012
       5 <- 50         0.00035
       6 <- 12        -0.00035
       6 <- 16        -0.00027
       6 <- 18        -0.00019
       6 <- 22         0.00048
       6 <- 30         0.00023
       6 <- 34        -0.00025
       6 <- 35         0.00109
       6 <- 40        -0.00065
       6 <- 42         0.00019
       6 <- 48        -0.00068
       6 <- 51         0.00056
       7 <- 38        -0.00091
       7 <- 45        -0.00124
       8 <- 10        -0.00082
       8 <- 11         0.00024
       8 <- 14        -0.00433
       8 <- 15         0.00062
       8 <- 19         0.00302
       8 <- 20        -0.00139
       8 <- 21        -0.00213
       8 <- 26        -0.00157
       8 <- 29        -0.00040
       8 <- 32         0.00131
       8 <- 33         0.00029
       8 <- 37        -0.00015
       8 <- 39        -0.00027
       8 <- 41        -0.00118
       8 <- 46         0.00104
       8 <- 49        -0.00028
       8 <- 50         0.00053

 Excited State   4:      Singlet-A1     7.5550 eV  164.11 nm  f=0.0540  <S**2>=0.000
       3 -> 10         0.00166
       3 -> 11        -0.00101
       3 -> 14         0.00056
       3 -> 15        -0.00034
       3 -> 19         0.00083
       3 -> 20         0.00115
       3 -> 21         0.00037
       3 -> 25        -0.00027
       3 -> 26         0.00082
       3 -> 29         0.00118
       3 -> 32        -0.00030
       3 -> 33        -0.00036
       3 -> 37        -0.00029
       3 -> 39         0.00012
       3 -> 41        -0.00021
       3 -> 50         0.00038
       3 -> 54        -0.00021
       4 -> 10         0.00530
       4 -> 11         0.00770
       4 -> 14         0.00565
       4 -> 15        -0.00012
       4 -> 19         0.00047
       4 -> 20         0.00532
       4 -> 21         0.00216
       4 -> 25         0.00718
       4 -> 26         0.00103
       4 -> 29        -0.00047
       4 -> 32         0.00026
       4 -> 33        -0.00071
       4 -> 39        -0.00028
       4 -> 41         0.00018
       4 -> 43         0.00015
       4 -> 46        -0.00024
       4 -> 49        -0.00019
       5 -> 12         0.00744
       5 -> 18         0.01156
       5 -> 22        -0.00126
       5 -> 24         0.00512
       5 -> 30         0.00012
       5 -> 34        -0.00015
       5 -> 35         0.00082
       5 -> 51         0.00032
       5 -> 53        -0.00015
       6 -> 10         0.01322
       6 -> 11        -0.00387
       6 -> 14         0.00424
       6 -> 15         0.00149
       6 -> 19         0.00453
       6 -> 20         0.00447
       6 -> 21         0.00173
       6 -> 25         0.00262
       6 -> 26         0.00049
       6 -> 29        -0.00113
       6 -> 32         0.00060
       6 -> 33        -0.00043
       6 -> 43         0.00012
       6 -> 49        -0.00038
       6 -> 50        -0.00050
       7 ->  9         0.01252
       7 -> 13         0.00796
       7 -> 17         0.00425
       7 -> 23         0.00512
       7 -> 31         0.00085
       7 -> 36         0.00056
       7 -> 44         0.00065
       7 -> 47        -0.00036
       7 -> 52        -0.00011
       8 -> 12         0.70572
       8 -> 16        -0.01987
       8 -> 18         0.02829
       8 -> 22         0.00519
       8 -> 24         0.00240
       8 -> 30         0.00136
       8 -> 34         0.00152
       8 -> 35        -0.00213
       8 -> 40        -0.00072
       8 -> 42         0.00057
       8 -> 48        -0.00036
       8 -> 51         0.00030
       8 -> 53        -0.00020
       3 <- 10         0.00059
       3 <- 11        -0.00020
       3 <- 14         0.00033
       3 <- 19         0.00033
       3 <- 20         0.00053
       3 <- 21         0.00033
       3 <- 26         0.00047
       3 <- 29         0.00075
       3 <- 32        -0.00028
       3 <- 33        -0.00019
       3 <- 37        -0.00023
       3 <- 39         0.00011
       3 <- 41        -0.00017
       3 <- 46         0.00018
       3 <- 50         0.00033
       3 <- 54        -0.00019
       4 <- 10         0.00486
       4 <- 11         0.00211
       4 <- 14         0.00414
       4 <- 15        -0.00057
       4 <- 19         0.00033
       4 <- 20         0.00302
       4 <- 21         0.00088
       4 <- 25         0.00403
       4 <- 26         0.00063
       4 <- 33        -0.00101
       4 <- 39        -0.00031
       4 <- 46        -0.00022
       4 <- 49        -0.00015
       5 <- 12         0.00277
       5 <- 16         0.00164
       5 <- 18         0.00421
       5 <- 22        -0.00030
       5 <- 24         0.00277
       5 <- 34        -0.00034
       5 <- 35         0.00076
       5 <- 40         0.00011
       5 <- 51         0.00022
       5 <- 53        -0.00013
       6 <- 10         0.00367
       6 <- 11        -0.00047
       6 <- 14         0.00177
       6 <- 15         0.00048
       6 <- 19         0.00158
       6 <- 20         0.00225
       6 <- 21         0.00066
       6 <- 25         0.00138
       6 <- 26         0.00054
       6 <- 29        -0.00065
       6 <- 32         0.00040
       6 <- 33        -0.00043
       6 <- 39        -0.00012
       6 <- 41         0.00014
       6 <- 49        -0.00026
       6 <- 50        -0.00048
       7 <-  9         0.00183
       7 <- 13         0.00221
       7 <- 17         0.00141
       7 <- 23         0.00270
       7 <- 28        -0.00015
       7 <- 31         0.00060
       7 <- 36         0.00044
       7 <- 44         0.00054
       7 <- 47        -0.00031
       8 <- 12        -0.00170
       8 <- 16        -0.00768
       8 <- 18        -0.00306
       8 <- 22         0.00075
       8 <- 24        -0.00221
       8 <- 30         0.00013
       8 <- 34         0.00082
       8 <- 35        -0.00117
       8 <- 40        -0.00065
       8 <- 42         0.00048
       8 <- 48        -0.00042
       8 <- 51         0.00024
       8 <- 53        -0.00021

 Excited State   5:      Singlet-A2     8.0612 eV  153.80 nm  f=0.0000  <S**2>=0.000
       3 -> 27        -0.00070
       3 -> 38        -0.00062
       3 -> 45        -0.00037
       4 -> 27         0.00013
       4 -> 38         0.00056
       4 -> 45         0.00011
       5 ->  9        -0.00925
       5 -> 13        -0.00101
       5 -> 17         0.00581
       5 -> 23        -0.00128
       5 -> 31        -0.00179
       5 -> 36        -0.00128
       5 -> 44        -0.00024
       5 -> 52        -0.00014
       6 -> 27         0.00020
       6 -> 38         0.00028
       6 -> 45        -0.00038
       7 -> 12        -0.00052
       7 -> 16        -0.00181
       7 -> 18         0.00181
       7 -> 22        -0.00073
       7 -> 24        -0.00018
       7 -> 30         0.00013
       7 -> 35        -0.00018
       7 -> 40         0.00014
       7 -> 48        -0.00013
       8 ->  9         0.07233
       8 -> 13         0.70293
       8 -> 17         0.01352
       8 -> 23         0.01890
       8 -> 31        -0.00131
       8 -> 47         0.00018
       8 -> 52        -0.00020
       3 <- 27        -0.00028
       3 <- 38        -0.00045
       3 <- 45        -0.00045
       4 <- 27        -0.00028
       5 <-  9        -0.00025
       5 <- 13        -0.00027
       5 <- 17         0.00061
       5 <- 36        -0.00030
       6 <- 38         0.00021
       6 <- 45        -0.00011
       7 <- 12        -0.00066
       7 <- 16        -0.00077
       7 <- 18         0.00065
       7 <- 22        -0.00131
       7 <- 24        -0.00033
       7 <- 30         0.00018
       7 <- 34         0.00046
       7 <- 35        -0.00077
       7 <- 40         0.00039
       7 <- 42        -0.00023
       7 <- 53        -0.00015
       8 <-  9         0.00312
       8 <- 13         0.00140
       8 <- 17         0.00024
       8 <- 23        -0.00027
       8 <- 31        -0.00017
       8 <- 36         0.00026

 Excited State   6:      Singlet-B2    10.2847 eV  120.55 nm  f=0.1886  <S**2>=0.000
       3 -> 12        -0.00032
       3 -> 16        -0.00195
       3 -> 18         0.00071
       3 -> 22         0.00143
       3 -> 24         0.00100
       3 -> 30         0.00140
       3 -> 34        -0.00072
       3 -> 40        -0.00024
       3 -> 42         0.00050
       3 -> 48         0.00033
       3 -> 51        -0.00020
       3 -> 53        -0.00011
       4 -> 12        -0.00732
       4 -> 16         0.00121
       4 -> 18         0.00447

 The electronic state is 1-A1.
 Alpha  occ. eigenvalues --  -19.14340 -10.25855  -1.14864  -0.62607  -0.53263
 Alpha  occ. eigenvalues --   -0.48345  -0.45939  -0.27050
 Alpha virt. eigenvalues --   -0.03064   0.01122   0.04157   0.04337   0.06882
 Alpha virt. eigenvalues --    0.13486   0.18249   0.19246   0.22017   0.22741
 Alpha virt. eigenvalues --    0.27155   0.35006   0.48293   0.49066   0.51171

 Mulliken charges:
               1
     1  C    0.063068
     2  H    0.074895
     3  H    0.074895
     4  O   -0.212859
 Sum of Mulliken charges =  -0.00000

 Dipole moment (field-independent basis, Debye):
    X=             -0.0000    Y=              0.0000    Z=             -1.8313  Tot=              1.8313
 Quadrupole moment (field-independent basis, Debye-Ang):
   XX=            -11.3715   YY=            -11.8467   ZZ=            -12.7555
   XY=              0.0000   XZ=              0.0000   YZ=              0.0000

 Normal termination of Gaussian 16 at Fri Sep 17 10:52:37 2021.
