 Gaussian 16, Revision A.03,
 Gaussian 16:  ES64L-G16RevA.03 25-Dec-2016

 --------------------------------------------------------------------
 #p B3LYP/6-311+G** #p TD=(singlets,nstates=30)IOp(6/8=3) IOp(9/40=4)
 --------------------------------------------------------------------

 ------------------------------
 Scan Step 48, Bond Length 0.74
 ------------------------------
 Symbolic Z-matrix:
 Charge =  0 Multiplicity = 1

                         Standard orientation:
 ---------------------------------------------------------------------
 Center     Atomic      Atomic             Coordinates (Angstroms)
 Number     Number       Type             X           Y           Z
 ---------------------------------------------------------------------
      1          6           0        0.000000    0.000000   -0.296081
      2          1           0        0.000000    0.937260   -0.887431
      3          1           0       -0.000000   -0.937260   -0.887431
      4          8           0        0.000000   -0.000000    0.443919
 ---------------------------------------------------------------------

 SCF Done:  E(RB3LYP) =  -113.429783624     A.U. after    9 cycles

 Excitation energies and oscillator strengths:

 Excited State   1:      Singlet-B2     5.1557 eV  240.48 nm  f=0.1119  <S**2>=0.000
       3 -> 11         0.00076
       3 -> 16         0.00048
       3 -> 19         0.00080
       3 -> 23         0.00028
       3 -> 24        -0.00100
       3 -> 29        -0.00022
       3 -> 32        -0.00013
       3 -> 40         0.00015
       3 -> 43         0.00019
       3 -> 50        -0.00013
       3 -> 53         0.00013
       4 ->  9        -0.00286
       4 -> 12         0.00399
       4 -> 14         0.00399
       4 -> 15         0.00160
       4 -> 18         0.00326
       4 -> 20         0.00186
       4 -> 21         0.00194
       4 -> 25         0.00151
       4 -> 26        -0.00080
       4 -> 30        -0.00061
       4 -> 31         0.00161
       4 -> 34         0.00041
       4 -> 38         0.00075
       4 -> 41        -0.00051
       4 -> 44        -0.00035
       4 -> 46        -0.00074
       4 -> 49         0.00026
       5 -> 28         0.00157
       5 -> 35         0.00066
       5 -> 45         0.00084
       6 -> 11        -0.00669
       6 -> 16         0.00244
       6 -> 19         0.00053
       6 -> 23        -0.00150
       6 -> 24        -0.00455
       6 -> 29        -0.00087
       6 -> 32        -0.00099
       6 -> 36         0.00057
       6 -> 43         0.00029
       6 -> 47         0.00018
       7 -> 11         0.00550
       7 -> 16         0.00395
       7 -> 19         0.00285
       7 -> 23        -0.00064
       7 -> 24        -0.00167
       7 -> 29         0.00068
       7 -> 32         0.00049
       7 -> 36        -0.00059
       7 -> 43        -0.00042
       7 -> 47         0.00046
       7 -> 50         0.00046
       7 -> 53        -0.00012
       8 ->  9         0.70574
       8 -> 12        -0.00036
       8 -> 14         0.03928
       8 -> 15        -0.00865
       8 -> 18        -0.02159
       8 -> 20         0.00594
       8 -> 21         0.00958
       8 -> 25        -0.00030
       8 -> 30        -0.00182
       8 -> 31        -0.00297
       8 -> 34        -0.00120
       8 -> 38         0.00110
       8 -> 39         0.00028
       8 -> 41        -0.00070
       8 -> 44         0.00022
       8 -> 46         0.00089
       8 -> 49        -0.00032
       8 -> 51         0.00011
       3 <- 11         0.00029
       3 <- 16         0.00016
       3 <- 19         0.00053
       3 <- 23         0.00020
       3 <- 24        -0.00075
       3 <- 29        -0.00019
       3 <- 32        -0.00014
       3 <- 40         0.00015
       3 <- 43         0.00018
       3 <- 53         0.00014
       4 <-  9        -0.00152
       4 <- 12        -0.00024
       4 <- 14         0.00326
       4 <- 15         0.00188
       4 <- 18         0.00075
       4 <- 20         0.00097
       4 <- 21         0.00141
       4 <- 25         0.00142
       4 <- 26        -0.00128
       4 <- 30        -0.00014
       4 <- 31         0.00063
       4 <- 34         0.00027
       4 <- 38         0.00047
       4 <- 39         0.00016
       4 <- 41        -0.00044
       4 <- 44        -0.00027
       4 <- 46        -0.00067
       4 <- 49         0.00020
       5 <- 28         0.00128
       5 <- 35         0.00052
       5 <- 45         0.00071
       6 <- 11        -0.00078
       6 <- 16         0.00241
       6 <- 19         0.00137
       6 <- 23        -0.00062
       6 <- 24        -0.00345
       6 <- 29        -0.00056
       6 <- 32        -0.00082
       6 <- 36         0.00050
       6 <- 43         0.00017
       6 <- 47         0.00015
       7 <- 11         0.00111
       7 <- 16         0.00210
       7 <- 19         0.00039
       7 <- 23        -0.00023
       7 <- 24        -0.00060
       7 <- 29         0.00126
       7 <- 32         0.00035
       7 <- 36        -0.00029
       7 <- 43        -0.00030
       7 <- 47         0.00047
       7 <- 50         0.00053
       8 <-  9        -0.00676
       8 <- 12        -0.00423
       8 <- 14         0.01761
       8 <- 15         0.00486
       8 <- 18         0.00147
       8 <- 20         0.00018
       8 <- 21         0.00486
       8 <- 25         0.00315
       8 <- 26         0.00038
       8 <- 30        -0.00125
       8 <- 31        -0.00179
       8 <- 34        -0.00146
       8 <- 38         0.00105
       8 <- 39         0.00023
       8 <- 41        -0.00055
       8 <- 46         0.00073
       8 <- 49        -0.00025
 This state for optimization and/or second-order correction.
 Total Energy, E(TD-HF/TD-DFT) =  -113.240315507
 Copying the excited state density for this state as the 1-particle RhoCI density.

 Excited State   2:      Singlet-A2     5.3908 eV  229.99 nm  f=0.0000  <S**2>=0.000
       3 -> 28        -0.00205
       3 -> 35        -0.00139
       3 -> 45        -0.00056
       4 -> 10        -0.00148
       4 -> 13        -0.00288
       4 -> 17        -0.00455
       4 -> 22         0.00237
       4 -> 27        -0.00241
       4 -> 33        -0.00033
       4 -> 37        -0.00197
       4 -> 42        -0.00024
       4 -> 48        -0.00012
       4 -> 52        -0.00037
       5 -> 11         0.00037
       5 -> 19         0.00037
       5 -> 23        -0.00115
       5 -> 24        -0.00014
       5 -> 32        -0.00015
       5 -> 36        -0.00038
       5 -> 43        -0.00042
       5 -> 47        -0.00045
       5 -> 50         0.00019
       5 -> 53        -0.00013
       6 -> 28        -0.00365
       6 -> 35         0.00054
       6 -> 45         0.00020
       7 -> 28         0.00022
       7 -> 35        -0.00013
       7 -> 45        -0.00060
       8 -> 10         0.70463
       8 -> 13         0.05166
       8 -> 17         0.02938
       8 -> 22         0.00118
       8 -> 27         0.00259
       8 -> 33         0.00316
       8 -> 37        -0.00216
       8 -> 48         0.00012
       8 -> 52         0.00048
       3 <- 28        -0.00164
       3 <- 35        -0.00120
       3 <- 45        -0.00056
       4 <- 10        -0.00017
       4 <- 13        -0.00091
       4 <- 17        -0.00063
       4 <- 27        -0.00026
       4 <- 33         0.00085
       4 <- 37        -0.00102
       4 <- 42        -0.00030
       5 <- 11         0.00072
       5 <- 16        -0.00071
       5 <- 19         0.00195
       5 <- 23        -0.00201
       5 <- 24        -0.00147
       5 <- 29        -0.00139
       5 <- 32         0.00036
       5 <- 36        -0.00100
       5 <- 43        -0.00051
       5 <- 47        -0.00041
       5 <- 53        -0.00035
       6 <- 28        -0.00367
       6 <- 35         0.00065
       6 <- 45         0.00021
       7 <- 28         0.00033
       7 <- 35        -0.00013
       7 <- 45        -0.00056
       8 <- 10        -0.00049
       8 <- 13        -0.00684
       8 <- 17        -0.00534
       8 <- 22         0.00022
       8 <- 27        -0.00042
       8 <- 33         0.00302
       8 <- 37        -0.00177
       8 <- 42         0.00013
       8 <- 52         0.00016

 Excited State   3:      Singlet-B2     6.0225 eV  205.87 nm  f=0.0299  <S**2>=0.000
       3 -> 11        -0.00011
       3 -> 16         0.00051
       3 -> 19        -0.00023
       3 -> 23         0.00026
       3 -> 24        -0.00041
       3 -> 29         0.00056
       3 -> 32         0.00013
       3 -> 36        -0.00024
       3 -> 43        -0.00024
       3 -> 47         0.00017
       3 -> 50         0.00014
       3 -> 53        -0.00015
       4 ->  9         0.00266
       4 -> 12         0.00035
       4 -> 14         0.00164
       4 -> 15         0.00310
       4 -> 18        -0.00192
       4 -> 20        -0.00028
       4 -> 21         0.00137
       4 -> 25         0.00082
       4 -> 26         0.00083
       4 -> 30        -0.00173
       4 -> 31        -0.00155
       4 -> 34        -0.00015
       4 -> 38        -0.00014
       4 -> 39        -0.00095
       4 -> 41         0.00038
       4 -> 46         0.00059
       4 -> 49        -0.00019
       4 -> 51        -0.00012
       5 -> 28        -0.00098
       5 -> 35        -0.00129
       5 -> 45        -0.00079
       6 -> 11         0.00075
       6 -> 16         0.00482
       6 -> 19        -0.00072
       6 -> 23        -0.00046
       6 -> 24        -0.00323
       6 -> 29        -0.00174
       6 -> 32         0.00049
       6 -> 36         0.00037
       6 -> 40        -0.00037
       6 -> 43         0.00022
       6 -> 50        -0.00011
       7 -> 11        -0.00273
       7 -> 16        -0.00251
       7 -> 19        -0.00200
       7 -> 23         0.00106
       7 -> 24         0.00212
       7 -> 29         0.00025
       7 -> 32        -0.00032
       7 -> 36         0.00085
       7 -> 40        -0.00020
       7 -> 43         0.00037
       7 -> 47        -0.00065
       7 -> 50        -0.00043
       7 -> 53         0.00017
       8 ->  9        -0.00026
       8 -> 12         0.70589
       8 -> 14         0.02603
       8 -> 15         0.02658
       8 -> 18         0.01121
       8 -> 20         0.01581
       8 -> 21         0.00477
       8 -> 25        -0.00074
       8 -> 26         0.00141
       8 -> 30        -0.00226
       8 -> 31        -0.00030
       8 -> 34        -0.00031
       8 -> 38         0.00011
       8 -> 39         0.00131
       8 -> 41        -0.00091
       8 -> 46        -0.00059
       8 -> 49         0.00022
       8 -> 54        -0.00015
       3 <- 11         0.00012
       3 <- 16         0.00052
       3 <- 24        -0.00046
       3 <- 29         0.00037
       3 <- 32         0.00014
       3 <- 36        -0.00025
       3 <- 43        -0.00022
       3 <- 47         0.00013
       3 <- 53        -0.00022
       4 <-  9        -0.00130
       4 <- 14         0.00148
       4 <- 15         0.00070
       4 <- 18         0.00064
       4 <- 20        -0.00043
       4 <- 21         0.00094
       4 <- 25         0.00095
       4 <- 26         0.00081
       4 <- 30        -0.00129
       4 <- 31        -0.00059
       4 <- 34        -0.00068
       4 <- 39        -0.00072
       4 <- 41         0.00039
       4 <- 46         0.00057
       4 <- 51        -0.00011
       5 <- 28        -0.00055
       5 <- 35        -0.00110
       5 <- 45        -0.00070
       6 <- 11        -0.00016
       6 <- 16         0.00111
       6 <- 19         0.00071
       6 <- 23        -0.00089
       6 <- 24        -0.00208
       6 <- 29        -0.00107
       6 <- 32         0.00062
       6 <- 36         0.00049
       6 <- 40        -0.00035
       6 <- 43         0.00013
       7 <- 11        -0.00029
       7 <- 16        -0.00096
       7 <- 19        -0.00043
       7 <- 23         0.00042
       7 <- 24         0.00095
       7 <- 29        -0.00030
       7 <- 32        -0.00017
       7 <- 36         0.00048
       7 <- 40        -0.00014
       7 <- 43         0.00026
       7 <- 47        -0.00057
       7 <- 50        -0.00047
       8 <-  9        -0.00389
       8 <- 12         0.00132
       8 <- 14         0.00960
       8 <- 15         0.00335
       8 <- 18        -0.00129
       8 <- 20        -0.00272
       8 <- 21         0.00323
       8 <- 25         0.00064
       8 <- 26        -0.00028
       8 <- 30        -0.00199
       8 <- 31        -0.00045
       8 <- 39         0.00108
       8 <- 41        -0.00079
       8 <- 46        -0.00048

 Excited State   4:      Singlet-A1     6.1729 eV  200.85 nm  f=0.0193  <S**2>=0.000
       3 ->  9         0.00121
       3 -> 12        -0.00058
       3 -> 14         0.00014
       3 -> 15        -0.00065
       3 -> 18        -0.00140
       3 -> 21         0.00062
       3 -> 25        -0.00046
       3 -> 26        -0.00022
       3 -> 30         0.00094
       3 -> 31        -0.00034
       3 -> 34         0.00032
       3 -> 38        -0.00031
       3 -> 39         0.00032
       3 -> 46        -0.00011
       3 -> 51         0.00021
       3 -> 54        -0.00016
       4 -> 11        -0.00657
       4 -> 16        -0.00733
       4 -> 19        -0.00475
       4 -> 23        -0.00198
       4 -> 24         0.00343
       4 -> 29        -0.00061
       4 -> 32         0.00011
       4 -> 36        -0.00103
       4 -> 43         0.00028
       4 -> 50         0.00027
       5 -> 10        -0.00462
       5 -> 13         0.00286
       5 -> 17        -0.00408
       5 -> 22        -0.00341
       5 -> 27        -0.00102
       5 -> 33        -0.00093
       5 -> 37        -0.00057
       5 -> 42        -0.00024
       5 -> 48         0.00030
       6 ->  9         0.00891
       6 -> 12         0.00952
       6 -> 14        -0.00544
       6 -> 15        -0.00416
       6 -> 18        -0.00448
       6 -> 20         0.00645
       6 -> 25        -0.00653
       6 -> 26         0.00120
       6 -> 30        -0.00062
       6 -> 31         0.00134
       6 -> 34         0.00164
       6 -> 38        -0.00093
       6 -> 39        -0.00124
       6 -> 44         0.00049
       6 -> 49         0.00044
       7 ->  9         0.01020
       7 -> 12        -0.00913
       7 -> 14         0.00015
       7 -> 15         0.00253
       7 -> 18        -0.00837
       7 -> 20        -0.00134
       7 -> 21         0.00012
       7 -> 25         0.00018
       7 -> 26        -0.00164
       7 -> 31        -0.00138
       7 -> 34         0.00064
       7 -> 39         0.00014
       7 -> 44        -0.00015
       7 -> 49         0.00013
       7 -> 51        -0.00023
       8 -> 11         0.70503
       8 -> 16         0.04867
       8 -> 19        -0.01549
       8 -> 23         0.00052
       8 -> 24        -0.00410
       8 -> 29         0.00415
       8 -> 32         0.00177
       8 -> 36        -0.00299
       8 -> 40         0.00027
       8 -> 43         0.00174
       8 -> 47        -0.00071
       8 -> 50         0.00011
       3 <-  9         0.00060
       3 <- 12        -0.00027
       3 <- 15        -0.00038
       3 <- 18        -0.00086
       3 <- 21         0.00037
       3 <- 25        -0.00039
       3 <- 26        -0.00018
       3 <- 30         0.00064
       3 <- 31        -0.00018
       3 <- 34         0.00029
       3 <- 38        -0.00023
       3 <- 39         0.00027
       3 <- 46        -0.00015
       3 <- 51         0.00018
       3 <- 54        -0.00015
       4 <- 11        -0.00249
       4 <- 16        -0.00279
       4 <- 19        -0.00262
       4 <- 23        -0.00149
       4 <- 24         0.00183
       4 <- 29        -0.00029
       4 <- 32         0.00021
       4 <- 36        -0.00087
       4 <- 43         0.00025
       4 <- 50         0.00023
       5 <- 10        -0.00227
       5 <- 13         0.00147
       5 <- 17        -0.00228
       5 <- 22        -0.00226
       5 <- 27        -0.00072
       5 <- 33        -0.00075
       5 <- 37        -0.00048
       5 <- 42        -0.00020
       5 <- 48         0.00027
       6 <-  9         0.00750
       6 <- 12         0.00423
       6 <- 14        -0.00424
       6 <- 15        -0.00347
       6 <- 18        -0.00255
       6 <- 20         0.00364
       6 <- 21         0.00083
       6 <- 25        -0.00426
       6 <- 26         0.00067
       6 <- 31         0.00117
       6 <- 34         0.00119
       6 <- 38        -0.00098
       6 <- 39        -0.00098
       6 <- 44         0.00051
       6 <- 46         0.00011
       6 <- 49         0.00036
       7 <-  9         0.00261
       7 <- 12        -0.00331
       7 <- 14         0.00063
       7 <- 15         0.00167
       7 <- 18        -0.00392
       7 <- 20        -0.00052
       7 <- 25         0.00014
       7 <- 26        -0.00098
       7 <- 31        -0.00109
       7 <- 34         0.00044
       7 <- 44        -0.00016
       7 <- 46         0.00011
       7 <- 51        -0.00022
       8 <- 11        -0.00697
       8 <- 16         0.00478
       8 <- 19        -0.01411
       8 <- 23        -0.00314
       8 <- 24        -0.00044
       8 <- 29         0.00268
       8 <- 32         0.00154
       8 <- 36        -0.00231
       8 <- 43         0.00139
       8 <- 47        -0.00073
       8 <- 50         0.00011

 Excited State   5:      Singlet-A2     7.8583 eV  157.78 nm  f=0.0000  <S**2>=0.000
       3 -> 28        -0.00264
       3 -> 35        -0.00190
       3 -> 45        -0.00073
       4 -> 10        -0.00254
       4 -> 13        -0.00944
       4 -> 17        -0.00087
       4 -> 22         0.00342
       4 -> 27        -0.00077
       4 -> 33        -0.00160
       4 -> 37        -0.00305
       4 -> 42        -0.00018
       4 -> 52        -0.00046
       5 -> 16         0.00109
       5 -> 19         0.00040
       5 -> 23        -0.00168
       5 -> 24        -0.00042
       5 -> 29         0.00022
       5 -> 32        -0.00012
       5 -> 36        -0.00050
       5 -> 43        -0.00062
       5 -> 47        -0.00054
       5 -> 50         0.00011
       5 -> 53        -0.00018
       6 -> 28        -0.00281
       6 -> 35         0.00083
       7 -> 28         0.00015
       7 -> 35        -0.00021
       7 -> 45        -0.00078
       8 -> 10        -0.05318
       8 -> 13         0.70362
       8 -> 17         0.03902
       8 -> 22        -0.02268
       8 -> 27         0.00306
       8 -> 33         0.00262
       8 -> 37        -0.00262
       8 -> 52         0.00050
       3 <- 28        -0.00178
       3 <- 35        -0.00157
       3 <- 45        -0.00081
       4 <- 10        -0.00034
       4 <- 13        -0.00082
       4 <- 17        -0.00014
       4 <- 27        -0.00012
       4 <- 33         0.00063
       4 <- 37        -0.00113
       4 <- 42        -0.00036
       4 <- 52        -0.00015
       5 <- 11        -0.00029
       5 <- 16         0.00034
       5 <- 19         0.00088
       5 <- 23        -0.00251
       5 <- 24        -0.00159
       5 <- 29        -0.00041
       5 <- 32         0.00073
       5 <- 36        -0.00145
       5 <- 43        -0.00084
       5 <- 47        -0.00025
       5 <- 53        -0.00041
       6 <- 28        -0.00319
       6 <- 35         0.00044
       6 <- 45         0.00021
       7 <- 28         0.00018
       7 <- 35         0.00011
       7 <- 45        -0.00048
       8 <- 10        -0.00665
       8 <- 13        -0.00423
       8 <- 17        -0.00308
       8 <- 22         0.00073
       8 <- 27        -0.00045
       8 <- 33         0.00274
       8 <- 37        -0.00173
       8 <- 42         0.00015
       8 <- 52         0.00020

 Excited State   6:      Singlet-B2     9.2744 eV  133.68 nm  f=0.0962  <S**2>=0.000
       3 -> 11         0.00037
       3 -> 16        -0.00073
       3 -> 19         0.00078
       3 -> 23        -0.00037
       3 -> 24         0.00024
       3 -> 29        -0.00064
       3 -> 32         0.00053
       3 -> 36         0.00011

 The electronic state is 1-A1.
 Alpha  occ. eigenvalues --  -19.16151 -10.26668  -1.32853  -0.72086  -0.68554
 Alpha  occ. eigenvalues --   -0.57770  -0.54868  -0.21500
 Alpha virt. eigenvalues --    0.01117   0.02780   0.04437   0.04588   0.12948
 Alpha virt. eigenvalues --    0.14432   0.17663   0.19219   0.21687   0.24384
 Alpha virt. eigenvalues --    0.25786   0.36552   0.50630   0.55966   0.56629

 Mulliken charges:
               1
     1  C    0.337105
     2  H   -0.068110
     3  H   -0.068110
     4  O   -0.200884
 Sum of Mulliken charges =  -0.00000

 Dipole moment (field-independent basis, Debye):
    X=              0.0000    Y=             -0.0000    Z=              0.6433  Tot=              0.6433
 Quadrupole moment (field-independent basis, Debye-Ang):
   XX=            -10.3808   YY=            -13.1645   ZZ=            -13.5308
   XY=             -0.0000   XZ=             -0.0000   YZ=              0.0000

 Normal termination of Gaussian 16 at Fri Sep 17 10:52:24 2021.
