 Gaussian 16, Revision C.01,
 Gaussian 16:  ES64L-G16RevC.01  3-Jul-2019

 ----------------------------------------
 #P wB97XD/6-311+G* NoSymm #P Field=Y+243
 ----------------------------------------

 -------
 TitleMe
 -------
 Symbolic Z-matrix:
 Charge =  1 Multiplicity = 1

                          Input orientation:
 ---------------------------------------------------------------------
 Center     Atomic      Atomic             Coordinates (Angstroms)
 Number     Number       Type             X           Y           Z
 ---------------------------------------------------------------------
      1          6           0        0.519300    1.233000   -0.031900
      2          6           0        1.944500    1.269200   -0.036700
      3          6           0        2.620400    0.092800   -0.025000
      4          6           0       -0.196000    0.030100    0.001000
      5          1           0       -0.020700    2.174200   -0.043400
      6          1           0        2.482800    2.208900   -0.036100
      7          1           0       -1.277700    0.039900    0.011700
      8          7           0        4.092100    0.095900    0.036600
      9          8           0        4.639300   -1.021700    0.144600
     10          8           0        4.664900    1.198400   -0.023300
     11          6           0        0.494300   -1.167100    0.021000
     12          1           0       -0.032500   -2.114900    0.054500
     13          6           0        1.962900   -1.216500   -0.021100
     14          1           0        2.443600   -1.963100    0.615100
     15         35           0        2.173000   -1.949100   -1.906200
 ---------------------------------------------------------------------

 SCF Done:  E(RwB97XD) =  -3010.57477757     A.U. after   22 cycles

 Alpha  occ. eigenvalues -- -483.27842 -62.82798 -56.62544 -56.61913 -56.61888
 Alpha  occ. eigenvalues --  -19.46464 -19.46011 -14.85432 -10.58571 -10.56675
 Alpha  occ. eigenvalues --  -10.55303 -10.54756 -10.53830 -10.51958  -8.98554
 Alpha  occ. eigenvalues --   -6.81367  -6.79308  -6.79231  -2.91237  -2.90709
 Alpha  occ. eigenvalues --   -2.90648  -2.89002  -2.89001  -1.49813  -1.32794
 Alpha  occ. eigenvalues --   -1.21262  -1.12020  -1.10837  -1.02781  -0.98895
 Alpha  occ. eigenvalues --   -0.94118  -0.89775  -0.84687  -0.80452  -0.79849
 Alpha  occ. eigenvalues --   -0.79257  -0.77142  -0.75836  -0.74317  -0.70592
 Alpha  occ. eigenvalues --   -0.67287  -0.66416  -0.61928  -0.58223  -0.57389
 Alpha  occ. eigenvalues --   -0.56463  -0.55666  -0.51881  -0.51366
 Alpha virt. eigenvalues --   -0.28549  -0.20155  -0.19173  -0.14791  -0.13451
 Alpha virt. eigenvalues --   -0.12005  -0.08907  -0.08642  -0.06800  -0.04393
 Alpha virt. eigenvalues --   -0.04333  -0.02705  -0.01292  -0.00315  -0.00159

 Mulliken charges:
               1
     1  C   -0.102877
     2  C    0.236860
     3  C   -0.145371
     4  C   -0.404562
     5  H    0.235831
     6  H    0.249220
     7  H    0.325932
     8  N   -0.248755
     9  O    0.224971
    10  O   -0.067095
    11  C   -0.159560
    12  H    0.438121
    13  C   -0.423108
    14  H    0.467621
    15  Br   0.372771
 Sum of Mulliken charges =   1.00000

 Dipole moment (field-independent basis, Debye):
    X=              3.1549    Y=             -8.0916    Z=             -1.7719  Tot=              8.8638
 Quadrupole moment (field-independent basis, Debye-Ang):
   XX=            -67.4853   YY=            -48.2998   ZZ=            -59.6542
   XY=            -18.0002   XZ=             -4.7938   YZ=              6.2825

 Normal termination of Gaussian 16 at Thu May  2 14:22:25 2024.
