 Gaussian 16, Revision A.03,
 Gaussian 16:  ES64L-G16RevA.03 25-Dec-2016

 --------------------------------------------------------------------
 #p B3LYP/6-311+G** #p TD=(singlets,nstates=30)IOp(6/8=3) IOp(9/40=4)
 --------------------------------------------------------------------

 --------------------------------
 Scan Step 229, Bond Length 1.645
 --------------------------------
 Symbolic Z-matrix:
 Charge =  0 Multiplicity = 1

                         Standard orientation:
 ---------------------------------------------------------------------
 Center     Atomic      Atomic             Coordinates (Angstroms)
 Number     Number       Type             X           Y           Z
 ---------------------------------------------------------------------
      1          6           0        0.000000    0.000000   -0.748581
      2          1           0        0.000000    0.937260   -1.339931
      3          1           0       -0.000000   -0.937260   -1.339931
      4          8           0        0.000000   -0.000000    0.896419
 ---------------------------------------------------------------------

 SCF Done:  E(RB3LYP) =  -114.411110977     A.U. after   10 cycles

 Excitation energies and oscillator strengths:

 Excited State   1:      Singlet-A2     1.8228 eV  680.18 nm  f=0.0000  <S**2>=0.000
       3 -> 27         0.00107
       3 -> 38         0.00077
       3 -> 46         0.00332
       4 -> 27         0.00063
       4 -> 38        -0.00011
       4 -> 46        -0.00124
       5 ->  9         0.00602
       5 -> 13         0.00102
       5 -> 18         0.00261
       5 -> 23         0.00160
       5 -> 28         0.00223
       5 -> 31        -0.00012
       5 -> 37         0.00122
       5 -> 44         0.00030
       5 -> 52         0.00030
       6 -> 27        -0.00063
       6 -> 38        -0.00073
       6 -> 46         0.00126
       7 -> 12        -0.00098
       7 -> 16         0.00489
       7 -> 19        -0.00417
       7 -> 22        -0.00088
       7 -> 25         0.00086
       7 -> 30        -0.00162
       7 -> 33         0.00034
       7 -> 49         0.00012
       7 -> 50         0.00014
       7 -> 53         0.00043
       8 ->  9         0.70892
       8 -> 13        -0.01163
       8 -> 18         0.02149
       8 -> 23        -0.00282
       8 -> 28         0.01095
       8 -> 31         0.00125
       8 -> 37         0.00061
       8 -> 48        -0.00031
       8 -> 52         0.00193
       3 <- 27         0.00046
       3 <- 38         0.00051
       3 <- 46         0.00337
       4 <- 27         0.00110
       4 <- 38         0.00023
       4 <- 46        -0.00099
       5 <-  9        -0.00013
       5 <- 13        -0.00048
       5 <- 18        -0.00061
       5 <- 23         0.00025
       5 <- 28        -0.00043
       5 <- 31         0.00032
       5 <- 37         0.00069
       5 <- 44         0.00010
       6 <- 38        -0.00059
       6 <- 46         0.00096
       7 <- 12         0.00088
       7 <- 16        -0.01022
       7 <- 19         0.00413
       7 <- 22         0.00671
       7 <- 25         0.00056
       7 <- 30         0.00537
       7 <- 33        -0.00046
       7 <- 36         0.00065
       7 <- 40        -0.00041
       7 <- 42         0.00015
       7 <- 49        -0.00043
       7 <- 53         0.00146
       8 <-  9        -0.05604
       8 <- 13         0.00027
       8 <- 18        -0.00685
       8 <- 28        -0.00247
       8 <- 31        -0.00067
       8 <- 37        -0.00040
       8 <- 48         0.00010
       8 <- 52         0.00050
 This state for optimization and/or second-order correction.
 Total Energy, E(TD-HF/TD-DFT) =  -114.344123880
 Copying the excited state density for this state as the 1-particle RhoCI density.

 Excited State   2:      Singlet-A1     4.7167 eV  262.86 nm  f=0.0645  <S**2>=0.000
       3 -> 10        -0.01752
       3 -> 11        -0.01075
       3 -> 14         0.00886
       3 -> 15         0.00404
       3 -> 17        -0.00345
       3 -> 20        -0.00398
       3 -> 21        -0.00072
       3 -> 24         0.00201
       3 -> 26         0.00335
       3 -> 29        -0.00127
       3 -> 32         0.00276
       3 -> 34         0.00206
       3 -> 35        -0.00116
       3 -> 39         0.00074
       3 -> 43         0.00046
       3 -> 45         0.00028
       3 -> 47         0.00228
       3 -> 51         0.00116
       3 -> 54         0.00014
       4 -> 10        -0.00886
       4 -> 11         0.01299
       4 -> 14         0.00459
       4 -> 15        -0.00966
       4 -> 17         0.00298
       4 -> 20         0.00455
       4 -> 21         0.00040
       4 -> 24        -0.00476
       4 -> 26         0.00474
       4 -> 29         0.00102
       4 -> 32        -0.00136
       4 -> 34        -0.00148
       4 -> 35         0.00042
       4 -> 41         0.00012
       4 -> 43        -0.00049
       4 -> 45        -0.00083
       4 -> 47        -0.00113
       4 -> 51        -0.00033
       4 -> 54         0.00012
       5 -> 12         0.01557
       5 -> 16         0.00895
       5 -> 19         0.00145
       5 -> 22         0.00751
       5 -> 25         0.00751
       5 -> 33        -0.00294
       5 -> 36         0.00278
       5 -> 40        -0.00142
       5 -> 42         0.00069
       5 -> 49         0.00041
       5 -> 50        -0.00071
       5 -> 53        -0.00011
       6 -> 10         0.17522
       6 -> 11         0.09237
       6 -> 14        -0.08860
       6 -> 15        -0.05216
       6 -> 17        -0.01940
       6 -> 20        -0.00869
       6 -> 21         0.01181
       6 -> 24        -0.01273
       6 -> 26        -0.00603
       6 -> 29        -0.00746
       6 -> 32         0.00125
       6 -> 34         0.00143
       6 -> 35        -0.00046
       6 -> 39         0.00094
       6 -> 41        -0.00034
       6 -> 43         0.00084
       6 -> 45         0.00082
       6 -> 47         0.00114
       6 -> 51         0.00079
       6 -> 54        -0.00074
       7 ->  9         0.68277
       7 -> 13        -0.00123
       7 -> 18        -0.01676
       7 -> 23        -0.00060
       7 -> 28        -0.00080
       7 -> 31        -0.00310
       7 -> 37         0.00100
       7 -> 44        -0.00104
       7 -> 48         0.00034
       7 -> 52         0.00105
       8 -> 12        -0.00769
       8 -> 16         0.06217
       8 -> 19        -0.02326
       8 -> 22        -0.02350
       8 -> 25         0.00042
       8 -> 30        -0.01126
       8 -> 33         0.00192
       8 -> 36        -0.00221
       8 -> 40         0.00107
       8 -> 42        -0.00036
       8 -> 49         0.00051
       8 -> 50         0.00022
       8 -> 53        -0.00066
       3 <- 10        -0.01217
       3 <- 11        -0.00788
       3 <- 14         0.00672
       3 <- 15         0.00261
       3 <- 17        -0.00181
       3 <- 20        -0.00298
       3 <- 21        -0.00109
       3 <- 24         0.00119
       3 <- 26         0.00192
       3 <- 29        -0.00077
       3 <- 32         0.00252
       3 <- 34         0.00128
       3 <- 35        -0.00101
       3 <- 39         0.00067
       3 <- 43         0.00056
       3 <- 45         0.00048
       3 <- 47         0.00236
       3 <- 51         0.00113
       3 <- 54         0.00025
       4 <- 10        -0.00420
       4 <- 11         0.00837
       4 <- 14         0.00246
       4 <- 15        -0.00589
       4 <- 17         0.00157
       4 <- 20         0.00406
       4 <- 21         0.00028
       4 <- 24        -0.00332
       4 <- 26         0.00383
       4 <- 29         0.00025
       4 <- 32        -0.00163
       4 <- 34        -0.00129
       4 <- 35         0.00067
       4 <- 43        -0.00047
       4 <- 45        -0.00089
       4 <- 47        -0.00074
       4 <- 51        -0.00017
       5 <- 12         0.00742
       5 <- 16         0.00481
       5 <- 19         0.00103
       5 <- 22         0.00479
       5 <- 25         0.00525
       5 <- 33        -0.00231
       5 <- 36         0.00229
       5 <- 40        -0.00125
       5 <- 42         0.00057
       5 <- 49         0.00036
       5 <- 50        -0.00066
       5 <- 53        -0.00011
       6 <- 10         0.05398
       6 <- 11         0.03081
       6 <- 14        -0.03598
       6 <- 15        -0.02319
       6 <- 17        -0.00984
       6 <- 20        -0.00594
       6 <- 21         0.00708
       6 <- 24        -0.00788
       6 <- 26        -0.00349
       6 <- 29        -0.00517
       6 <- 32         0.00166
       6 <- 34         0.00172
       6 <- 35        -0.00076
       6 <- 39         0.00097
       6 <- 41        -0.00025
       6 <- 43         0.00071
       6 <- 45         0.00071
       6 <- 47         0.00070
       6 <- 51         0.00063
       6 <- 54        -0.00064
       7 <-  9        -0.12646
       7 <- 13         0.00664
       7 <- 18        -0.01346
       7 <- 23         0.00294
       7 <- 28        -0.00344
       7 <- 31        -0.00147
       7 <- 37         0.00040
       7 <- 44        -0.00065
       7 <- 48        -0.00023
       7 <- 52         0.00093
       8 <- 12        -0.00203
       8 <- 16         0.02363
       8 <- 19        -0.01062
       8 <- 22        -0.01326
       8 <- 30        -0.00831
       8 <- 33         0.00145
       8 <- 36        -0.00170
       8 <- 40         0.00086
       8 <- 42        -0.00029
       8 <- 49         0.00033
       8 <- 50         0.00018
       8 <- 53        -0.00061

 Excited State   3:      Singlet-B1     5.0877 eV  243.69 nm  f=0.0013  <S**2>=0.000
       3 ->  9        -0.02780
       3 -> 13         0.00152
       3 -> 18        -0.00443
       3 -> 23         0.00164
       3 -> 28        -0.00086
       3 -> 31        -0.00049
       3 -> 44         0.00023
       3 -> 48         0.00099
       3 -> 52         0.00093
       4 ->  9         0.01297
       4 -> 13        -0.00263
       4 -> 18         0.00021
       4 -> 23        -0.00237
       4 -> 28         0.00027
       4 -> 31        -0.00147
       4 -> 37        -0.00039
       4 -> 44         0.00013
       4 -> 48        -0.00101
       4 -> 52        -0.00053
       5 -> 38         0.00201
       5 -> 46         0.00080
       6 ->  9         0.70394
       6 -> 13        -0.01942
       6 -> 18         0.01626
       6 -> 23        -0.01081
       6 -> 28         0.00405
       6 -> 31         0.00311
       6 -> 37        -0.00208
       6 -> 44        -0.00268
       6 -> 48         0.00401
       6 -> 52         0.00138
       7 -> 10         0.05822
       7 -> 11         0.02647
       7 -> 14        -0.01942
       7 -> 15        -0.00638
       7 -> 17        -0.00901
       7 -> 20         0.00311
       7 -> 21         0.00044
       7 -> 24        -0.00085
       7 -> 26        -0.00171
       7 -> 29        -0.00386
       7 -> 32        -0.00048
       7 -> 34         0.00087
       7 -> 35         0.00173
       7 -> 39         0.00015
       7 -> 41        -0.00046
       7 -> 43         0.00052
       7 -> 45        -0.00012
       7 -> 47         0.00411
       7 -> 51         0.00119
       7 -> 54         0.00035
       8 -> 27         0.00039
       8 -> 46         0.00513
       3 <-  9        -0.00936
       3 <- 13        -0.00071
       3 <- 18        -0.00282
       3 <- 23        -0.00059
       3 <- 28        -0.00053
       3 <- 31        -0.00069
       3 <- 44        -0.00023
       3 <- 48         0.00115
       3 <- 52         0.00075
       4 <-  9         0.00672
       4 <- 13        -0.00033
       4 <- 18         0.00184
       4 <- 23        -0.00067
       4 <- 28         0.00156
       4 <- 31        -0.00098
       4 <- 37        -0.00022
       4 <- 48        -0.00088
       4 <- 52        -0.00030
       5 <- 27        -0.00054
       5 <- 38         0.00165
       5 <- 46         0.00071
       6 <-  9        -0.02676
       6 <- 13         0.00172
       6 <- 18        -0.00342
       6 <- 23        -0.00025
       6 <- 28        -0.00347
       6 <- 31         0.00107
       6 <- 37        -0.00179
       6 <- 44        -0.00137
       6 <- 48         0.00358
       6 <- 52         0.00043
       7 <- 10        -0.02155
       7 <- 11        -0.01219
       7 <- 14         0.01515
       7 <- 15         0.01126
       7 <- 17         0.00177
       7 <- 20         0.00470
       7 <- 21        -0.00409
       7 <- 24         0.00442
       7 <- 26         0.00171
       7 <- 29         0.00127
       7 <- 34         0.00093
       7 <- 35         0.00249
       7 <- 39         0.00047
       7 <- 41        -0.00011
       7 <- 43         0.00037
       7 <- 45        -0.00028
       7 <- 47         0.00378
       7 <- 51         0.00111
       7 <- 54         0.00105
       8 <- 27         0.00086
       8 <- 38         0.00023
       8 <- 46         0.00479

 Excited State   4:      Singlet-B2     5.6236 eV  220.47 nm  f=0.0101  <S**2>=0.000
       3 -> 12        -0.00151
       3 -> 16         0.00199
       3 -> 19        -0.00462
       3 -> 22         0.00063
       3 -> 25         0.00057
       3 -> 30        -0.00337
       3 -> 33        -0.00017
       3 -> 36         0.00213
       3 -> 40        -0.00181
       3 -> 42         0.00030
       3 -> 49        -0.00299
       3 -> 50         0.00022
       3 -> 53         0.00031
       4 -> 12         0.00045
       4 -> 16        -0.00251
       4 -> 19         0.00028
       4 -> 22         0.00286
       4 -> 25        -0.00162
       4 -> 30         0.00144
       4 -> 33        -0.00047
       4 -> 36         0.00053
       4 -> 40         0.00048
       4 -> 49         0.00051
       4 -> 50        -0.00012
       5 -> 10         0.00910
       5 -> 11         0.00496
       5 -> 14        -0.01020
       5 -> 15         0.00415
       5 -> 17         0.00024
       5 -> 20         0.00215
       5 -> 21         0.00563
       5 -> 24         0.00184
       5 -> 26        -0.00155
       5 -> 29        -0.00199
       5 -> 32        -0.00184
       5 -> 34        -0.00106
       5 -> 35        -0.00034
       5 -> 39        -0.00102
       5 -> 41         0.00068
       5 -> 45         0.00014
       5 -> 47        -0.00079
       5 -> 51         0.00048
       5 -> 54        -0.00024
       6 -> 12         0.00307
       6 -> 16        -0.00195
       6 -> 19         0.00335
       6 -> 22        -0.00029
       6 -> 25        -0.00089
       6 -> 30        -0.00046
       6 -> 33         0.00024
       6 -> 36        -0.00203
       6 -> 40         0.00166
       6 -> 42        -0.00048
       6 -> 49         0.00164
       6 -> 53        -0.00039
       7 -> 27        -0.00068
       7 -> 38         0.00075
       7 -> 46         0.00375
       8 -> 10         0.66067
       8 -> 11         0.21622
       8 -> 14        -0.11850
       8 -> 15        -0.05189
       8 -> 17        -0.01486
       8 -> 20        -0.00022
       8 -> 21         0.00742
       8 -> 24        -0.00687
       8 -> 26        -0.00559
       8 -> 29        -0.01063
       8 -> 32        -0.00341
       8 -> 34        -0.00196
       8 -> 39        -0.00071
       8 -> 41         0.00013
       8 -> 43        -0.00033
       8 -> 45         0.00154
       8 -> 47        -0.00452
       8 -> 51         0.00219
       8 -> 54        -0.00186
       3 <- 12        -0.00055
       3 <- 16         0.00056
       3 <- 19        -0.00218
       3 <- 22         0.00093
       3 <- 25         0.00052
       3 <- 30        -0.00134
       3 <- 33        -0.00014
       3 <- 36         0.00162
       3 <- 40        -0.00160
       3 <- 42         0.00025
       3 <- 49        -0.00307
       3 <- 50         0.00020
       3 <- 53         0.00086
       4 <- 12        -0.00010
       4 <- 16        -0.00225
       4 <- 22         0.00268
       4 <- 25        -0.00101
       4 <- 30         0.00133
       4 <- 33        -0.00054
       4 <- 36         0.00076
       4 <- 40         0.00017
       4 <- 49         0.00038
       5 <- 10        -0.00016
       5 <- 11        -0.00149
       5 <- 14        -0.00122
       5 <- 15         0.00373
       5 <- 17         0.00021
       5 <- 20         0.00063
       5 <- 21         0.00210
       5 <- 24         0.00240
       5 <- 26        -0.00044
       5 <- 29        -0.00048
       5 <- 32        -0.00011
       5 <- 34        -0.00024
       5 <- 39        -0.00036
       5 <- 41         0.00070
       5 <- 43         0.00011
       5 <- 45         0.00042
       5 <- 47        -0.00068
       5 <- 51         0.00026
       6 <- 16         0.00597
       6 <- 19        -0.00272
       6 <- 22        -0.00433
       6 <- 25        -0.00064
       6 <- 30        -0.00506
       6 <- 33         0.00054
       6 <- 36        -0.00201
       6 <- 40         0.00168
       6 <- 42        -0.00055
       6 <- 49         0.00184
       6 <- 53        -0.00114
       7 <- 27        -0.00066
       7 <- 38         0.00059
       7 <- 46         0.00312
       8 <- 10        -0.01968
       8 <- 11        -0.01159
       8 <- 14         0.01148
       8 <- 15         0.00385
       8 <- 17         0.00055
       8 <- 20        -0.00261
       8 <- 21        -0.00221
       8 <- 24         0.00148
       8 <- 26         0.00191
       8 <- 29        -0.00066
       8 <- 32         0.00266
       8 <- 34         0.00132
       8 <- 35        -0.00037
       8 <- 39         0.00151
       8 <- 41         0.00050
       8 <- 43         0.00040
       8 <- 45         0.00224
       8 <- 47        -0.00345
       8 <- 51         0.00138
       8 <- 54        -0.00048

 Excited State   5:      Singlet-B1     6.7176 eV  184.57 nm  f=0.0070  <S**2>=0.000
       3 ->  9        -0.01495
       3 -> 13         0.00094
       3 -> 18        -0.00313
       3 -> 23         0.00108
       3 -> 28        -0.00345
       3 -> 31        -0.00155
       3 -> 44         0.00051
       3 -> 48        -0.00210
       4 ->  9        -0.03564
       4 -> 13         0.00640
       4 -> 18         0.00156
       4 -> 23         0.00465
       4 -> 28         0.00210
       4 -> 31        -0.00030
       4 -> 37         0.00037
       4 -> 44        -0.00045
       4 -> 48         0.00050
       4 -> 52         0.00010
       5 -> 27        -0.00742
       5 -> 38        -0.00305
       5 -> 46         0.00059
       6 ->  9        -0.06423
       6 -> 13        -0.00386
       6 -> 18         0.00233
       6 -> 23        -0.00137
       6 -> 28         0.00327
       6 -> 31        -0.00360
       6 -> 37         0.00180
       6 -> 48         0.00102
       6 -> 52        -0.00046
       7 -> 10         0.66898
       7 -> 11         0.18324
       7 -> 14        -0.10464
       7 -> 15        -0.05380
       7 -> 17        -0.00918
       7 -> 20        -0.00541
       7 -> 21         0.00329
       7 -> 24        -0.00925
       7 -> 26        -0.00776
       7 -> 29        -0.00639
       7 -> 32        -0.00134
       7 -> 34        -0.00390
       7 -> 35        -0.00210
       7 -> 39        -0.00069
       7 -> 43         0.00055
       7 -> 45         0.00075
       7 -> 47         0.00212
       7 -> 51         0.00108
       7 -> 54        -0.00123
       8 -> 27         0.00128
       8 -> 38         0.00035
       8 -> 46         0.00245
       3 <-  9        -0.00311
       3 <- 13         0.00067
       3 <- 18        -0.00127
       3 <- 23         0.00064
       3 <- 28        -0.00209
       3 <- 31        -0.00030
       3 <- 37        -0.00021
       3 <- 44         0.00022
       3 <- 48        -0.00230
       3 <- 52         0.00043
       4 <-  9        -0.01033
       4 <- 13         0.00227
       4 <- 18         0.00056
       4 <- 23         0.00216
       4 <- 28         0.00184
       4 <- 31        -0.00042
       4 <- 37         0.00045
       4 <- 44        -0.00068
       5 <- 27        -0.00480
       5 <- 38        -0.00228
       5 <- 46         0.00053

 The electronic state is 1-A1.
 Alpha  occ. eigenvalues --  -19.17348 -10.32947  -0.91983  -0.70057  -0.48902
 Alpha  occ. eigenvalues --   -0.41066  -0.32531  -0.28927
 Alpha virt. eigenvalues --   -0.15115  -0.02159   0.00800   0.04080   0.06117
 Alpha virt. eigenvalues --    0.08146   0.12597   0.14208   0.18910   0.21327
 Alpha virt. eigenvalues --    0.23981   0.30219   0.38934   0.40773   0.50901

 Mulliken charges:
               1
     1  C   -0.068874
     2  H    0.182649
     3  H    0.182649
     4  O   -0.296425
 Sum of Mulliken charges =   0.00000

 Dipole moment (field-independent basis, Debye):
    X=             -0.0000    Y=              0.0000    Z=             -3.8469  Tot=              3.8469
 Quadrupole moment (field-independent basis, Debye-Ang):
   XX=            -12.8067   YY=            -11.9180   ZZ=            -11.1805
   XY=              0.0000   XZ=              0.0000   YZ=             -0.0000

 Normal termination of Gaussian 16 at Fri Sep 17 10:53:03 2021.
