 Gaussian 16, Revision C.01,
 Gaussian 16:  ES64L-G16RevC.01  3-Jul-2019

 ----------------------------------------
 #P wB97XD/6-311+G* NoSymm #P Field=Y+262
 ----------------------------------------

 -------
 TitleMe
 -------
 Symbolic Z-matrix:
 Charge =  1 Multiplicity = 1

                          Input orientation:
 ---------------------------------------------------------------------
 Center     Atomic      Atomic             Coordinates (Angstroms)
 Number     Number       Type             X           Y           Z
 ---------------------------------------------------------------------
      1          6           0        0.029500    1.339700    0.068200
      2          6           0        1.434800    1.286700    0.006400
      3          6           0        2.111800    0.051100   -0.005400
      4          6           0        1.445100   -1.137200    0.031200
      5          6           0       -0.687900    0.168200    0.110000
      6          1           0       -0.471300    2.298400    0.078100
      7          1           0        2.027300    2.196500   -0.032200
      8          1           0        1.989700   -2.076400    0.023200
      9          1           0       -1.771600    0.180400    0.158200
     10          7           0        3.586400    0.051000   -0.067500
     11          8           0        4.147100   -1.059700   -0.088100
     12          8           0        4.145000    1.163900   -0.090100
     13          6           0       -0.023600   -1.145800    0.083500
     14          1           0       -0.436700   -1.872500    0.788900
     15         35           0       -0.535900   -1.869700   -1.740800
 ---------------------------------------------------------------------

 SCF Done:  E(RwB97XD) =  -3010.58052386     A.U. after   23 cycles

 Alpha  occ. eigenvalues -- -483.27599 -62.82558 -56.62302 -56.61666 -56.61655
 Alpha  occ. eigenvalues --  -19.45546 -19.45232 -14.84699 -10.57666 -10.56275
 Alpha  occ. eigenvalues --  -10.56087 -10.55096 -10.54823 -10.53977  -8.98314
 Alpha  occ. eigenvalues --   -6.81122  -6.79050  -6.79015  -2.90994  -2.90451
 Alpha  occ. eigenvalues --   -2.90422  -2.88766  -2.88766  -1.49077  -1.32077
 Alpha  occ. eigenvalues --   -1.21566  -1.12459  -1.11014  -1.01490  -1.00279
 Alpha  occ. eigenvalues --   -0.94254  -0.90072  -0.85072  -0.80389  -0.79680
 Alpha  occ. eigenvalues --   -0.79317  -0.77701  -0.75327  -0.74588  -0.71062
 Alpha  occ. eigenvalues --   -0.68150  -0.66545  -0.62211  -0.58628  -0.56818
 Alpha  occ. eigenvalues --   -0.55668  -0.54807  -0.51676  -0.51434
 Alpha virt. eigenvalues --   -0.28194  -0.20531  -0.20250  -0.16220  -0.15001
 Alpha virt. eigenvalues --   -0.11127  -0.09922  -0.09611  -0.07428  -0.05367
 Alpha virt. eigenvalues --   -0.04926  -0.03133  -0.01533  -0.01097  -0.00619

 Mulliken charges:
               1
     1  C   -0.618881
     2  C    0.690919
     3  C   -0.878978
     4  C    0.425119
     5  C   -0.121078
     6  H    0.214526
     7  H    0.261728
     8  H    0.453576
     9  H    0.344648
    10  N   -0.099215
    11  O    0.165785
    12  O   -0.116219
    13  C   -0.553442
    14  H    0.468625
    15  Br   0.362887
 Sum of Mulliken charges =   1.00000

 Dipole moment (field-independent basis, Debye):
    X=             -1.6465    Y=             -8.2305    Z=             -1.0767  Tot=              8.4623
 Quadrupole moment (field-independent basis, Debye-Ang):
   XX=            -72.5352   YY=            -49.4867   ZZ=            -60.5585
   XY=             -7.0901   XZ=              1.9798   YZ=              5.1995

 Normal termination of Gaussian 16 at Wed May  1 15:14:29 2024.
