 Gaussian 16, Revision A.03,
 Gaussian 16:  ES64L-G16RevA.03 25-Dec-2016

 --------------------------------------------------------------------
 #p B3LYP/6-311+G** #p TD=(singlets,nstates=30)IOp(6/8=3) IOp(9/40=4)
 --------------------------------------------------------------------

 ---------------------------------------------
 Scan Step 190, Bond Length 1.4500000000000002
 ---------------------------------------------
 Symbolic Z-matrix:
 Charge =  0 Multiplicity = 1

                         Standard orientation:
 ---------------------------------------------------------------------
 Center     Atomic      Atomic             Coordinates (Angstroms)
 Number     Number       Type             X           Y           Z
 ---------------------------------------------------------------------
      1          6           0        0.000000    0.000000   -0.651081
      2          1           0        0.000000    0.937260   -1.242431
      3          1           0       -0.000000   -0.937260   -1.242431
      4          8           0        0.000000   -0.000000    0.798919
 ---------------------------------------------------------------------

 SCF Done:  E(RB3LYP) =  -114.483584277     A.U. after    9 cycles

 Excitation energies and oscillator strengths:

 Excited State   1:      Singlet-A2     2.6175 eV  473.67 nm  f=0.0000  <S**2>=0.000
       3 -> 27         0.00163
       3 -> 38         0.00130
       3 -> 46         0.00309
       4 -> 27         0.00104
       4 -> 38        -0.00026
       4 -> 46        -0.00141
       5 ->  9         0.01302
       5 -> 13         0.00023
       5 -> 18         0.00393
       5 -> 23         0.00142
       5 -> 28         0.00350
       5 -> 31        -0.00059
       5 -> 37         0.00206
       5 -> 44         0.00043
       5 -> 52         0.00050
       6 -> 27        -0.00056
       6 -> 38        -0.00086
       6 -> 46         0.00158
       7 -> 12        -0.00073
       7 -> 15         0.00416
       7 -> 19        -0.00361
       7 -> 22        -0.00034
       7 -> 25         0.00120
       7 -> 30        -0.00128
       7 -> 33         0.00043
       7 -> 42        -0.00011
       7 -> 49         0.00015
       7 -> 50         0.00023
       7 -> 53         0.00047
       8 ->  9         0.70742
       8 -> 13        -0.02037
       8 -> 18         0.02206
       8 -> 23        -0.00584
       8 -> 28         0.01094
       8 -> 37         0.00062
       8 -> 48        -0.00030
       8 -> 52         0.00191
       3 <- 27         0.00090
       3 <- 38         0.00099
       3 <- 46         0.00316
       4 <- 27         0.00170
       4 <- 38         0.00021
       4 <- 46        -0.00115
       5 <-  9        -0.00052
       5 <- 13        -0.00065
       5 <- 18        -0.00088
       5 <- 23         0.00037
       5 <- 28        -0.00062
       5 <- 31         0.00049
       5 <- 37         0.00109
       5 <- 44         0.00015
       5 <- 52         0.00013
       6 <- 38        -0.00073
       6 <- 46         0.00123
       7 <- 15        -0.00926
       7 <- 19         0.00243
       7 <- 22         0.00736
       7 <- 25         0.00037
       7 <- 30         0.00477
       7 <- 33        -0.00082
       7 <- 35         0.00147
       7 <- 40         0.00072
       7 <- 49        -0.00024
       7 <- 50         0.00015
       7 <- 53         0.00143
       8 <-  9        -0.03904
       8 <- 13         0.00124
       8 <- 18        -0.00572
       8 <- 23         0.00050
       8 <- 28        -0.00192
       8 <- 31        -0.00053
       8 <- 37        -0.00074
       8 <- 52         0.00053
 This state for optimization and/or second-order correction.
 Total Energy, E(TD-HF/TD-DFT) =  -114.387392478
 Copying the excited state density for this state as the 1-particle RhoCI density.

 Excited State   2:      Singlet-A1     6.5396 eV  189.59 nm  f=0.1172  <S**2>=0.000
       3 -> 10         0.00770
       3 -> 11        -0.01624
       3 -> 14         0.01018
       3 -> 16         0.02080
       3 -> 17        -0.00550
       3 -> 20        -0.00202
       3 -> 21        -0.00381
       3 -> 24         0.00477
       3 -> 26         0.00674
       3 -> 32         0.00288
       3 -> 34         0.00373
       3 -> 36         0.00085
       3 -> 39         0.00119
       3 -> 41         0.00012
       3 -> 43         0.00050
       3 -> 45         0.00150
       3 -> 47         0.00149
       3 -> 51         0.00051
       3 -> 54         0.00030
       4 -> 10         0.02192
       4 -> 11         0.01038
       4 -> 14         0.01336
       4 -> 16        -0.00640
       4 -> 17         0.00367
       4 -> 20         0.00844
       4 -> 21         0.00021
       4 -> 24        -0.00668
       4 -> 26         0.00600
       4 -> 29         0.00111
       4 -> 32        -0.00121
       4 -> 34        -0.00271
       4 -> 36        -0.00039
       4 -> 39        -0.00020
       4 -> 41         0.00013
       4 -> 43        -0.00021
       4 -> 45        -0.00023
       4 -> 47        -0.00168
       4 -> 51        -0.00020
       5 -> 12         0.02577
       5 -> 15         0.02277
       5 -> 19         0.00182
       5 -> 22         0.00497
       5 -> 25         0.01162
       5 -> 30        -0.00181
       5 -> 33        -0.00336
       5 -> 35         0.00228
       5 -> 40         0.00163
       5 -> 42         0.00066
       5 -> 49         0.00061
       5 -> 50        -0.00053
       5 -> 53        -0.00026
       6 -> 10        -0.05296
       6 -> 11         0.08413
       6 -> 14        -0.04662
       6 -> 16        -0.12142
       6 -> 17        -0.01179
       6 -> 20        -0.02612
       6 -> 21         0.02369
       6 -> 24        -0.02116
       6 -> 26        -0.01088
       6 -> 29        -0.01011
       6 -> 34         0.00243
       6 -> 36        -0.00173
       6 -> 39         0.00038
       6 -> 41        -0.00077
       6 -> 43         0.00057
       6 -> 45         0.00020
       6 -> 47         0.00178
       6 -> 51         0.00081
       6 -> 54        -0.00038
       7 ->  9         0.68593
       7 -> 13         0.01370
       7 -> 18        -0.02496
       7 -> 23         0.00409
       7 -> 28        -0.00396
       7 -> 31        -0.00227
       7 -> 37         0.00035
       7 -> 44        -0.00099
       7 -> 48         0.00059
       7 -> 52         0.00102
       8 -> 12        -0.00094
       8 -> 15         0.10915
       8 -> 19        -0.02691
       8 -> 22        -0.04062
       8 -> 25         0.00221
       8 -> 30        -0.01464
       8 -> 33         0.00432
       8 -> 35        -0.00545
       8 -> 40        -0.00232
       8 -> 42        -0.00035
       8 -> 49         0.00070
       8 -> 50         0.00033
       8 -> 53        -0.00092
       3 <- 10         0.00441
       3 <- 11        -0.01009
       3 <- 14         0.00712
       3 <- 16         0.01380
       3 <- 17        -0.00296
       3 <- 20        -0.00116
       3 <- 21        -0.00346
       3 <- 24         0.00323
       3 <- 26         0.00430
       3 <- 32         0.00262
       3 <- 34         0.00246
       3 <- 36         0.00053
       3 <- 39         0.00094
       3 <- 41         0.00013
       3 <- 43         0.00053
       3 <- 45         0.00145
       3 <- 47         0.00174
       3 <- 51         0.00049
       3 <- 54         0.00035
       4 <- 10         0.00966
       4 <- 11         0.00545
       4 <- 14         0.00609
       4 <- 16        -0.00387
       4 <- 17         0.00164
       4 <- 20         0.00564
       4 <- 21         0.00025
       4 <- 24        -0.00412
       4 <- 26         0.00433
       4 <- 29         0.00021
       4 <- 32        -0.00159
       4 <- 34        -0.00228
       4 <- 36        -0.00015
       4 <- 39        -0.00024
       4 <- 43        -0.00021
       4 <- 45         0.00020
       4 <- 47        -0.00143
       5 <- 12         0.00878
       5 <- 15         0.00947
       5 <- 19         0.00113
       5 <- 22         0.00269
       5 <- 25         0.00697
       5 <- 30        -0.00103
       5 <- 33        -0.00245
       5 <- 35         0.00180
       5 <- 40         0.00138
       5 <- 42         0.00051
       5 <- 49         0.00052
       5 <- 50        -0.00048
       5 <- 53        -0.00023
       6 <- 10        -0.01230
       6 <- 11         0.02101
       6 <- 14        -0.01523
       6 <- 16        -0.04558
       6 <- 17        -0.00476
       6 <- 20        -0.01273
       6 <- 21         0.01206
       6 <- 24        -0.01181
       6 <- 26        -0.00637
       6 <- 29        -0.00646
       6 <- 32         0.00039
       6 <- 34         0.00244
       6 <- 36        -0.00121
       6 <- 39         0.00054
       6 <- 41        -0.00051
       6 <- 43         0.00050
       6 <- 45        -0.00013
       6 <- 47         0.00136
       6 <- 51         0.00061
       6 <- 54        -0.00029
       7 <-  9        -0.10993
       7 <- 13         0.01079
       7 <- 18        -0.01479
       7 <- 23         0.00605
       7 <- 28        -0.00543
       7 <- 31        -0.00071
       7 <- 44        -0.00046
       7 <- 52         0.00085
       8 <- 12        -0.00019
       8 <- 15         0.02705
       8 <- 19        -0.00855
       8 <- 22        -0.01835
       8 <- 25         0.00071
       8 <- 30        -0.00959
       8 <- 33         0.00300
       8 <- 35        -0.00391
       8 <- 40        -0.00182
       8 <- 42        -0.00028
       8 <- 49         0.00048
       8 <- 50         0.00026
       8 <- 53        -0.00081

 Excited State   3:      Singlet-B1     6.5993 eV  187.87 nm  f=0.0015  <S**2>=0.000
       3 ->  9        -0.03226
       3 -> 13         0.00284
       3 -> 18        -0.00576
       3 -> 23         0.00261
       3 -> 28        -0.00154
       3 -> 31        -0.00050
       3 -> 44         0.00039
       3 -> 48         0.00067
       3 -> 52         0.00107
       4 ->  9         0.01540
       4 -> 13        -0.00271
       4 -> 18         0.00057
       4 -> 23        -0.00248
       4 -> 28         0.00019
       4 -> 31        -0.00187
       4 -> 37        -0.00046
       4 -> 48        -0.00138
       4 -> 52        -0.00078
       5 -> 27        -0.00089
       5 -> 38         0.00198
       5 -> 46         0.00161
       6 ->  9         0.70596
       6 -> 13        -0.02464
       6 -> 18         0.01925
       6 -> 23        -0.01171
       6 -> 28         0.00559
       6 -> 31         0.00386
       6 -> 37        -0.00248
       6 -> 44        -0.00332
       6 -> 48         0.00480
       6 -> 52         0.00171
       7 -> 10        -0.00494
       7 -> 11         0.00711
       7 -> 14        -0.00483
       7 -> 16        -0.00608
       7 -> 17        -0.01006
       7 -> 20         0.00210
       7 -> 21        -0.00121
       7 -> 24         0.00047
       7 -> 26        -0.00047
       7 -> 29        -0.00444
       7 -> 32        -0.00107
       7 -> 34        -0.00015
       7 -> 36         0.00173
       7 -> 39         0.00012
       7 -> 41        -0.00115
       7 -> 43         0.00074
       7 -> 45         0.00350
       7 -> 47         0.00343
       7 -> 51         0.00114
       7 -> 54         0.00055
       8 -> 27         0.00132
       8 -> 38         0.00042
       8 -> 46         0.00618
       3 <-  9        -0.01049
       3 <- 13        -0.00012
       3 <- 18        -0.00321
       3 <- 23        -0.00020
       3 <- 28        -0.00102
       3 <- 31        -0.00052
       3 <- 44        -0.00024
       3 <- 48         0.00090
       3 <- 52         0.00085
       4 <-  9         0.00637
       4 <- 18         0.00230
       4 <- 23        -0.00036
       4 <- 28         0.00204
       4 <- 31        -0.00144
       4 <- 44         0.00018
       4 <- 48        -0.00120
       4 <- 52        -0.00044
       5 <- 27        -0.00125
       5 <- 38         0.00154
       5 <- 46         0.00144
       6 <-  9        -0.02265
       6 <- 13         0.00200
       6 <- 18        -0.00302
       6 <- 23        -0.00011
       6 <- 28        -0.00293
       6 <- 31         0.00205
       6 <- 37        -0.00229
       6 <- 44        -0.00199
       6 <- 48         0.00426
       6 <- 52         0.00063
       7 <- 10         0.00421
       7 <- 11        -0.00695
       7 <- 14         0.00464
       7 <- 16         0.01648
       7 <- 17        -0.00098
       7 <- 20         0.00628
       7 <- 21        -0.00568
       7 <- 24         0.00517
       7 <- 26         0.00242
       7 <- 29         0.00062
       7 <- 32        -0.00084
       7 <- 34        -0.00102
       7 <- 36         0.00276
       7 <- 39         0.00038
       7 <- 41        -0.00072
       7 <- 43         0.00066
       7 <- 45         0.00327
       7 <- 47         0.00298
       7 <- 51         0.00088
       7 <- 54         0.00109
       8 <- 27         0.00158
       8 <- 38         0.00055
       8 <- 46         0.00562

 Excited State   4:      Singlet-B2     6.9032 eV  179.60 nm  f=0.0134  <S**2>=0.000
       3 -> 12         0.00187
       3 -> 19         0.00209
       3 -> 22        -0.00031
       3 -> 25         0.00084
       3 -> 30         0.00078
       3 -> 33         0.00035
       3 -> 35        -0.00101
       3 -> 40        -0.00067
       3 -> 42        -0.00011
       3 -> 49         0.00073
       3 -> 50        -0.00012
       3 -> 53        -0.00016
       4 -> 12        -0.00142
       4 -> 15         0.00247
       4 -> 19         0.00134
       4 -> 22        -0.00328
       4 -> 25         0.00286
       4 -> 40         0.00043
       4 -> 42        -0.00012
       4 -> 49        -0.00013
       5 -> 10        -0.00746
       5 -> 11         0.00123
       5 -> 14         0.01020
       5 -> 16         0.00530
       5 -> 17        -0.00173
       5 -> 20         0.00054
       5 -> 21        -0.00569
       5 -> 24        -0.00144
       5 -> 26         0.00184
       5 -> 29         0.00118
       5 -> 32        -0.00070
       5 -> 34         0.00107
       5 -> 36         0.00039
       5 -> 39         0.00013
       5 -> 41        -0.00070
       5 -> 43        -0.00026
       5 -> 45         0.00013
       5 -> 47         0.00025
       5 -> 51        -0.00017
       5 -> 54         0.00015
       6 -> 12        -0.00259
       6 -> 15         0.00099
       6 -> 19        -0.00045
       6 -> 22        -0.00138
       6 -> 25         0.00071
       6 -> 30        -0.00016
       6 -> 33        -0.00042
       6 -> 35         0.00133
       6 -> 40         0.00063
       6 -> 49        -0.00011
       7 -> 38        -0.00089
       7 -> 46        -0.00094
       8 -> 10         0.70470
       8 -> 11        -0.01046
       8 -> 14         0.04171
       8 -> 16         0.03389
       8 -> 17        -0.00230
       8 -> 20         0.01375
       8 -> 21         0.00055
       8 -> 24         0.00121
       8 -> 26         0.00415
       8 -> 29         0.00321
       8 -> 32         0.00095
       8 -> 36         0.00012
       8 -> 39         0.00029
       8 -> 41        -0.00042
       8 -> 43         0.00064
       8 -> 45         0.00090
       8 -> 47         0.00063
       8 -> 51        -0.00072
       8 -> 54         0.00046
       3 <- 12         0.00044
       3 <- 15         0.00028
       3 <- 19         0.00089
       3 <- 22        -0.00067
       3 <- 25         0.00039
       3 <- 30         0.00022
       3 <- 33         0.00030
       3 <- 35        -0.00085
       3 <- 40        -0.00062
       3 <- 49         0.00078
       3 <- 53        -0.00028
       4 <- 12         0.00073
       4 <- 15         0.00217
       4 <- 19         0.00129
       4 <- 22        -0.00227
       4 <- 25         0.00184
       4 <- 30        -0.00010
       4 <- 33         0.00020
       4 <- 35        -0.00017
       4 <- 42        -0.00021
       4 <- 49        -0.00010
       4 <- 50        -0.00012
       5 <- 10         0.00204
       5 <- 11         0.00045
       5 <- 14         0.00434
       5 <- 16        -0.00068
       5 <- 17        -0.00029
       5 <- 20         0.00019
       5 <- 21        -0.00140
       5 <- 24        -0.00253
       5 <- 26         0.00114
       5 <- 29         0.00023
       5 <- 32        -0.00080
       5 <- 34         0.00071
       5 <- 36         0.00015
       5 <- 41        -0.00056
       5 <- 43        -0.00026
       5 <- 45         0.00019
       6 <- 12        -0.00026
       6 <- 15        -0.00147
       6 <- 19         0.00098
       6 <- 22         0.00070
       6 <- 25         0.00024
       6 <- 30         0.00131
       6 <- 33        -0.00050
       6 <- 35         0.00128
       6 <- 40         0.00058
       6 <- 49        -0.00017
       6 <- 50        -0.00013
       6 <- 53         0.00034
       7 <- 27         0.00015
       7 <- 38        -0.00067
       7 <- 46        -0.00073
       8 <- 10        -0.00207
       8 <- 11         0.00282
       8 <- 14        -0.00444
       8 <- 16        -0.00320
       8 <- 17        -0.00025
       8 <- 20        -0.00014
       8 <- 21         0.00156
       8 <- 24         0.00061
       8 <- 26        -0.00125
       8 <- 34        -0.00016
       8 <- 36        -0.00040
       8 <- 39        -0.00027
       8 <- 41        -0.00025
       8 <- 43         0.00024
       8 <- 45         0.00097
       8 <- 47         0.00016
       8 <- 51        -0.00033
       8 <- 54         0.00012

 Excited State   5:      Singlet-B2     7.4149 eV  167.21 nm  f=0.0227  <S**2>=0.000
       3 -> 12         0.00049
       3 -> 15         0.00185
       3 -> 19        -0.00215
       3 -> 22        -0.00051
       3 -> 25         0.00053
       3 -> 30        -0.00355
       3 -> 33        -0.00018
       3 -> 35         0.00122
       3 -> 40         0.00098
       3 -> 49        -0.00122
       3 -> 50         0.00016
       4 -> 12        -0.00174
       4 -> 15        -0.00094
       4 -> 19        -0.00021
       4 -> 22         0.00125
       4 -> 25        -0.00168
       4 -> 30         0.00185
       4 -> 33        -0.00048
       4 -> 35         0.00066
       4 -> 40        -0.00013
       4 -> 50        -0.00011
       5 -> 10        -0.00262
       5 -> 11         0.00161
       5 -> 14        -0.01044
       5 -> 16         0.00313
       5 -> 17         0.00391
       5 -> 20         0.00350
       5 -> 21         0.00396
       5 -> 24         0.00057
       5 -> 26        -0.00187
       5 -> 29        -0.00144
       5 -> 32        -0.00100
       5 -> 34        -0.00046
       5 -> 36        -0.00078
       5 -> 39        -0.00083
       5 -> 41         0.00046
       5 -> 43        -0.00033
       5 -> 45        -0.00086
       5 -> 47        -0.00048
       5 -> 51         0.00052
       6 -> 12         0.00170
       6 -> 15         0.00024
       6 -> 19         0.00110
       6 -> 22        -0.00090
       6 -> 25        -0.00013
       6 -> 30        -0.00132
       6 -> 33         0.00042
       6 -> 35        -0.00146
       6 -> 40        -0.00144
       6 -> 42        -0.00020
       6 -> 49         0.00175
       6 -> 50        -0.00015
       6 -> 53        -0.00018
       7 -> 27        -0.00072
       7 -> 38         0.00055
       7 -> 46         0.00294
       8 -> 10         0.01499
       8 -> 11         0.70298
       8 -> 14        -0.02375
       8 -> 16        -0.06921
       8 -> 17        -0.00040
       8 -> 20         0.01216
       8 -> 21         0.00188
       8 -> 24        -0.00385
       8 -> 26        -0.00090
       8 -> 29        -0.00509
       8 -> 32        -0.00044
       8 -> 34        -0.00059
       8 -> 36        -0.00095
       8 -> 39         0.00017
       8 -> 41         0.00064
       8 -> 43        -0.00032
       8 -> 45        -0.00350
       8 -> 47        -0.00133
       8 -> 51         0.00170
       8 -> 54        -0.00042
       3 <- 12        -0.00029
       3 <- 15         0.00067
       3 <- 19        -0.00139
       3 <- 25         0.00018
       3 <- 30        -0.00172

 The electronic state is 1-A1.
 Alpha  occ. eigenvalues --  -19.16573 -10.31265  -0.96970  -0.68006  -0.48889
 Alpha  occ. eigenvalues --   -0.43393  -0.35400  -0.28995
 Alpha virt. eigenvalues --   -0.12041  -0.00072   0.02846   0.04137   0.06185
 Alpha virt. eigenvalues --    0.11485   0.15488   0.17543   0.18954   0.21668
 Alpha virt. eigenvalues --    0.23822   0.30067   0.40291   0.42711   0.50976

 Mulliken charges:
               1
     1  C   -0.032144
     2  H    0.161719
     3  H    0.161719
     4  O   -0.291294
 Sum of Mulliken charges =  -0.00000

 Dipole moment (field-independent basis, Debye):
    X=             -0.0000    Y=             -0.0000    Z=             -3.3877  Tot=              3.3877
 Quadrupole moment (field-independent basis, Debye-Ang):
   XX=            -12.4226   YY=            -11.7911   ZZ=            -11.7526
   XY=              0.0000   XZ=              0.0000   YZ=             -0.0000

 Normal termination of Gaussian 16 at Fri Sep 17 10:52:51 2021.
