 Gaussian 16, Revision C.01,
 Gaussian 16:  ES64L-G16RevC.01  3-Jul-2019

 ----------------------------------------
 #P wB97XD/6-311+G* NoSymm #P Field=Z-243
 ----------------------------------------

 -------
 TitleMe
 -------
 Symbolic Z-matrix:
 Charge =  1 Multiplicity = 1

                          Input orientation:
 ---------------------------------------------------------------------
 Center     Atomic      Atomic             Coordinates (Angstroms)
 Number     Number       Type             X           Y           Z
 ---------------------------------------------------------------------
      1          6           0        0.029500    1.339700    0.068200
      2          6           0        1.434800    1.286700    0.006400
      3          6           0        2.111800    0.051100   -0.005400
      4          6           0        1.445100   -1.137200    0.031200
      5          6           0       -0.687900    0.168200    0.110000
      6          1           0       -0.471300    2.298400    0.078100
      7          1           0        2.027300    2.196500   -0.032200
      8          1           0        1.989700   -2.076400    0.023200
      9          1           0       -1.771600    0.180400    0.158200
     10          7           0        3.586400    0.051000   -0.067500
     11          8           0        4.147100   -1.059700   -0.088100
     12          8           0        4.145000    1.163900   -0.090100
     13          6           0       -0.023600   -1.145800    0.083500
     14          1           0       -0.436700   -1.872500    0.788900
     15         35           0       -0.535900   -1.869700   -1.740800
 ---------------------------------------------------------------------

 SCF Done:  E(RwB97XD) =  -3010.55528054     A.U. after   20 cycles

 Alpha  occ. eigenvalues -- -483.35239 -62.90314 -56.69933 -56.69464 -56.69463
 Alpha  occ. eigenvalues --  -19.46802 -19.46705 -14.86284 -10.60271 -10.58808
 Alpha  occ. eigenvalues --  -10.58305 -10.58125 -10.57800 -10.53920  -9.06154
 Alpha  occ. eigenvalues --   -6.88630  -6.87070  -6.87063  -2.98582  -2.98162
 Alpha  occ. eigenvalues --   -2.98155  -2.96905  -2.96905  -1.50525  -1.33495
 Alpha  occ. eigenvalues --   -1.23976  -1.16027  -1.12946  -1.07403  -1.02037
 Alpha  occ. eigenvalues --   -0.96747  -0.92032  -0.86177  -0.81813  -0.81570
 Alpha  occ. eigenvalues --   -0.80912  -0.79238  -0.77054  -0.76952  -0.74365
 Alpha  occ. eigenvalues --   -0.70457  -0.68672  -0.65524  -0.63021  -0.61026
 Alpha  occ. eigenvalues --   -0.58135  -0.57837  -0.56946  -0.56467
 Alpha virt. eigenvalues --   -0.31396  -0.22338  -0.20491  -0.17795  -0.15178
 Alpha virt. eigenvalues --   -0.14015  -0.12730  -0.09862  -0.08486  -0.08270
 Alpha virt. eigenvalues --   -0.05737  -0.04826  -0.03746  -0.02728  -0.02478

 Mulliken charges:
               1
     1  C   -0.628399
     2  C    0.588768
     3  C   -0.734122
     4  C    0.308911
     5  C    0.074179
     6  H    0.346052
     7  H    0.371716
     8  H    0.383601
     9  H    0.363421
    10  N   -0.109498
    11  O    0.036532
    12  O    0.031859
    13  C   -0.466950
    14  H    0.487111
    15  Br  -0.053183
 Sum of Mulliken charges =   1.00000

 Dipole moment (field-independent basis, Debye):
    X=             -0.2374    Y=              0.3043    Z=              4.2044  Tot=              4.2221
 Quadrupole moment (field-independent basis, Debye-Ang):
   XX=            -70.4619   YY=            -53.2950   ZZ=            -67.7136
   XY=              0.6612   XZ=              3.0414   YZ=             -1.9541

 Normal termination of Gaussian 16 at Wed May  1 15:16:29 2024.
