 Gaussian 16, Revision A.03,
 Gaussian 16:  ES64L-G16RevA.03 25-Dec-2016

 --------------------------------------------------------------------
 #p B3LYP/6-311+G** #p TD=(singlets,nstates=30)IOp(6/8=3) IOp(9/40=4)
 --------------------------------------------------------------------

 --------------------------------
 Scan Step 129, Bond Length 1.145
 --------------------------------
 Symbolic Z-matrix:
 Charge =  0 Multiplicity = 1

                         Standard orientation:
 ---------------------------------------------------------------------
 Center     Atomic      Atomic             Coordinates (Angstroms)
 Number     Number       Type             X           Y           Z
 ---------------------------------------------------------------------
      1          6           0        0.000000    0.000000   -0.498581
      2          1           0        0.000000    0.937260   -1.089931
      3          1           0       -0.000000   -0.937260   -1.089931
      4          8           0        0.000000   -0.000000    0.646419
 ---------------------------------------------------------------------

 SCF Done:  E(RB3LYP) =  -114.536073837     A.U. after    9 cycles

 Excitation energies and oscillator strengths:

 Excited State   1:      Singlet-A2     4.2969 eV  288.54 nm  f=0.0000  <S**2>=0.000
       3 -> 27         0.00269
       3 -> 38         0.00228
       3 -> 45         0.00226
       4 -> 27         0.00224
       4 -> 38        -0.00064
       4 -> 45        -0.00120
       5 ->  9         0.02118
       5 -> 13        -0.00483
       5 -> 17         0.00595
       5 -> 23        -0.00101
       5 -> 29         0.00422
       5 -> 31         0.00271
       5 -> 37         0.00374
       5 -> 44         0.00066
       5 -> 47         0.00014
       5 -> 52         0.00083
       6 -> 27         0.00011
       6 -> 38        -0.00077
       6 -> 45         0.00175
       7 -> 12        -0.00062
       7 -> 16         0.00240
       7 -> 18        -0.00244
       7 -> 22         0.00105
       7 -> 24         0.00138
       7 -> 30        -0.00084
       7 -> 33         0.00041
       7 -> 35        -0.00037
       7 -> 40        -0.00033
       7 -> 48         0.00047
       7 -> 50         0.00028
       7 -> 53         0.00044
       8 ->  9         0.70437
       8 -> 13        -0.05585
       8 -> 17         0.02377
       8 -> 23        -0.01128
       8 -> 29         0.00821
       8 -> 31         0.00312
       8 -> 37        -0.00058
       8 -> 44        -0.00018
       8 -> 47        -0.00023
       8 -> 52         0.00156
       3 <- 27         0.00180
       3 <- 38         0.00191
       3 <- 45         0.00235
       4 <- 27         0.00306
       4 <- 45        -0.00105
       5 <-  9        -0.00023
       5 <- 13        -0.00087
       5 <- 17        -0.00089
       5 <- 23         0.00055
       5 <- 29        -0.00058
       5 <- 31        -0.00101
       5 <- 37         0.00173
       5 <- 44         0.00031
       5 <- 47         0.00017
       5 <- 52         0.00022
       6 <- 27         0.00062
       6 <- 38        -0.00070
       6 <- 45         0.00136
       7 <- 12        -0.00089
       7 <- 16        -0.00644
       7 <- 18        -0.00040
       7 <- 22         0.00706
       7 <- 24        -0.00040
       7 <- 30         0.00295
       7 <- 33        -0.00134
       7 <- 35        -0.00251
       7 <- 40        -0.00102
       7 <- 42         0.00018
       7 <- 48         0.00029
       7 <- 50         0.00016
       7 <- 53         0.00120
       8 <-  9        -0.02100
       8 <- 13         0.00389
       8 <- 17        -0.00405
       8 <- 23         0.00079
       8 <- 29        -0.00074
       8 <- 31         0.00118
       8 <- 37        -0.00170
       8 <- 52         0.00045
 This state for optimization and/or second-order correction.
 Total Energy, E(TD-HF/TD-DFT) =  -114.378165850
 Copying the excited state density for this state as the 1-particle RhoCI density.

 Excited State   2:      Singlet-B2     6.7593 eV  183.43 nm  f=0.0401  <S**2>=0.000
       3 -> 12         0.00136
       3 -> 16         0.00070
       3 -> 18         0.00113
       3 -> 22        -0.00028
       3 -> 24         0.00131
       3 -> 30        -0.00011
       3 -> 33         0.00014
       3 -> 35         0.00033
       4 -> 12        -0.00375
       4 -> 16         0.00154
       4 -> 18         0.00224
       4 -> 22        -0.00336
       4 -> 24         0.00359
       4 -> 30         0.00018
       4 -> 33        -0.00065
       4 -> 35        -0.00072
       4 -> 40        -0.00049
       5 -> 10        -0.00496
       5 -> 11        -0.00925
       5 -> 14         0.00695
       5 -> 15        -0.00105
       5 -> 19         0.00181
       5 -> 20         0.00117
       5 -> 21         0.00535
       5 -> 26         0.00264
       5 -> 28         0.00161
       5 -> 32         0.00052
       5 -> 34        -0.00103
       5 -> 36        -0.00027
       5 -> 39        -0.00031
       5 -> 41        -0.00022
       5 -> 43        -0.00056
       5 -> 46        -0.00044
       5 -> 54         0.00010
       6 -> 12         0.00065
       6 -> 16         0.00141
       6 -> 18         0.00283
       6 -> 22        -0.00267
       6 -> 24         0.00141
       6 -> 30        -0.00044
       6 -> 33        -0.00018
       6 -> 35        -0.00021
       6 -> 40         0.00020
       6 -> 42        -0.00023
       6 -> 48         0.00043
       6 -> 50        -0.00042
       7 -> 27         0.00031
       7 -> 38        -0.00044
       7 -> 45         0.00057
       8 -> 10         0.70388
       8 -> 11        -0.06234
       8 -> 14         0.00815
       8 -> 15        -0.00783
       8 -> 19         0.01496
       8 -> 20         0.01227
       8 -> 21        -0.00387
       8 -> 25         0.00049
       8 -> 26         0.00193
       8 -> 28         0.00063
       8 -> 32        -0.00069
       8 -> 34         0.00185
       8 -> 36         0.00046
       8 -> 39         0.00045
       8 -> 41        -0.00016
       8 -> 43         0.00066
       8 -> 46        -0.00075
       8 -> 49        -0.00011
       8 -> 54         0.00018
       3 <- 12         0.00035
       3 <- 16         0.00054
       3 <- 18         0.00045
       3 <- 22        -0.00040
       3 <- 24         0.00081
       3 <- 30        -0.00011
       3 <- 33         0.00012
       3 <- 35         0.00030
       4 <- 12         0.00067
       4 <- 16         0.00179
       4 <- 18         0.00222
       4 <- 22        -0.00205
       4 <- 24         0.00250
       4 <- 30         0.00014
       4 <- 33        -0.00042
       4 <- 35        -0.00045
       4 <- 40        -0.00017
       4 <- 42        -0.00021
       4 <- 48        -0.00011
       5 <- 10         0.00245
       5 <- 11        -0.00024
       5 <- 14         0.00495
       5 <- 15        -0.00094
       5 <- 19         0.00041
       5 <- 20         0.00061
       5 <- 21         0.00229
       5 <- 25         0.00174
       5 <- 26         0.00158
       5 <- 28         0.00034
       5 <- 32         0.00028
       5 <- 34        -0.00101
       5 <- 36        -0.00032
       5 <- 39        -0.00017
       5 <- 43        -0.00041
       5 <- 46        -0.00038
       5 <- 51        -0.00010
       6 <- 12         0.00023
       6 <- 18         0.00142
       6 <- 22        -0.00086
       6 <- 24         0.00051
       6 <- 30         0.00032
       6 <- 33        -0.00024
       6 <- 35        -0.00036
       6 <- 40         0.00019
       6 <- 42        -0.00022
       6 <- 48         0.00036
       6 <- 50        -0.00043
       6 <- 53         0.00012
       7 <- 27         0.00025
       7 <- 38        -0.00033
       7 <- 45         0.00050
       8 <- 10        -0.00218
       8 <- 11        -0.00059
       8 <- 14        -0.00672
       8 <- 15        -0.00018
       8 <- 19        -0.00033
       8 <- 20        -0.00045
       8 <- 21        -0.00243
       8 <- 25        -0.00259
       8 <- 26        -0.00039
       8 <- 28        -0.00067
       8 <- 32        -0.00104
       8 <- 34         0.00082
       8 <- 36         0.00043
       8 <- 39         0.00036
       8 <- 43         0.00048
       8 <- 46        -0.00050
       8 <- 51        -0.00010

 Excited State   3:      Singlet-B2     7.5536 eV  164.14 nm  f=0.0233  <S**2>=0.000
       3 -> 12        -0.00026
       3 -> 16        -0.00070
       3 -> 18         0.00071
       3 -> 22         0.00034
       3 -> 24         0.00023
       3 -> 30         0.00183
       3 -> 33         0.00013
       3 -> 35         0.00040
       3 -> 40         0.00038
       3 -> 48         0.00036
       3 -> 50        -0.00026
       4 -> 12         0.00295
       4 -> 16        -0.00034
       4 -> 18         0.00285
       4 -> 22        -0.00152
       4 -> 24         0.00315
       4 -> 30        -0.00114
       4 -> 33         0.00052
       4 -> 35         0.00048
       4 -> 42        -0.00016
       4 -> 48         0.00022
       4 -> 50        -0.00011
       5 -> 10        -0.00762
       5 -> 11         0.00012
       5 -> 14         0.00732
       5 -> 15        -0.00702
       5 -> 19        -0.00323
       5 -> 20        -0.00384
       5 -> 21         0.00111
       5 -> 25         0.00134
       5 -> 26         0.00028
       5 -> 28         0.00162
       5 -> 34        -0.00141
       5 -> 36        -0.00017
       5 -> 39         0.00041
       5 -> 41        -0.00080
       5 -> 46         0.00085
       5 -> 51         0.00043
       6 -> 12        -0.00320
       6 -> 16        -0.00189
       6 -> 18        -0.00113
       6 -> 22         0.00140
       6 -> 24         0.00012
       6 -> 30         0.00080
       6 -> 33        -0.00050
       6 -> 35        -0.00148
       6 -> 40        -0.00098
       6 -> 48        -0.00096
       6 -> 50         0.00059
       6 -> 53         0.00011
       7 -> 27        -0.00022
       7 -> 38        -0.00103
       7 -> 45        -0.00160
       8 -> 10         0.06290
       8 -> 11         0.70339
       8 -> 14        -0.00898
       8 -> 15         0.01335
       8 -> 19        -0.02704
       8 -> 20         0.00979
       8 -> 21        -0.00246
       8 -> 25         0.00060
       8 -> 26        -0.00162
       8 -> 28         0.00025
       8 -> 32        -0.00034
       8 -> 34        -0.00010
       8 -> 39        -0.00014
       8 -> 41        -0.00132
       8 -> 43         0.00023
       8 -> 46         0.00161
       8 -> 51         0.00090
       8 -> 54        -0.00015
       3 <- 12         0.00034
       3 <- 16        -0.00024
       3 <- 18         0.00084
       3 <- 24         0.00036
       3 <- 30         0.00107
       3 <- 33         0.00023
       3 <- 35         0.00045
       3 <- 40         0.00034
       3 <- 48         0.00030
       3 <- 50        -0.00017
       3 <- 53        -0.00025
       4 <- 12         0.00035
       4 <- 16         0.00065
       4 <- 18         0.00074
       4 <- 22        -0.00116
       4 <- 24         0.00130
       4 <- 30        -0.00052
       4 <- 33         0.00047
       4 <- 35         0.00013
       4 <- 42        -0.00017
       4 <- 48         0.00016
       4 <- 50        -0.00016
       5 <- 10         0.00129
       5 <- 11        -0.00102
       5 <- 14         0.00243
       5 <- 15        -0.00044
       5 <- 19         0.00091
       5 <- 20        -0.00034
       5 <- 21         0.00080
       5 <- 25         0.00126
       5 <- 26        -0.00028
       5 <- 28         0.00076
       5 <- 32         0.00103
       5 <- 34        -0.00051
       5 <- 36         0.00017
       5 <- 39         0.00014
       5 <- 41        -0.00083
       5 <- 46         0.00078
       5 <- 51         0.00034
       6 <- 12        -0.00033
       6 <- 16        -0.00049
       6 <- 22         0.00059
       6 <- 30         0.00048
       6 <- 33        -0.00033
       6 <- 35        -0.00116
       6 <- 40        -0.00072
       6 <- 48        -0.00079
       6 <- 50         0.00048
       7 <- 38        -0.00082
       7 <- 45        -0.00135
       8 <- 10        -0.00071
       8 <- 11        -0.00029
       8 <- 14        -0.00394
       8 <- 15         0.00051
       8 <- 19         0.00356
       8 <- 20        -0.00123
       8 <- 21        -0.00206
       8 <- 25         0.00025
       8 <- 26        -0.00167
       8 <- 32         0.00116
       8 <- 34         0.00102
       8 <- 39        -0.00042
       8 <- 41        -0.00114
       8 <- 43         0.00011
       8 <- 46         0.00128
       8 <- 49         0.00011
       8 <- 51         0.00063

 Excited State   4:      Singlet-A1     7.7236 eV  160.53 nm  f=0.0524  <S**2>=0.000
       3 -> 10         0.00181
       3 -> 11        -0.00095
       3 -> 14         0.00075
       3 -> 15        -0.00023
       3 -> 19         0.00035
       3 -> 20         0.00156
       3 -> 21         0.00064
       3 -> 25        -0.00052
       3 -> 26         0.00110
       3 -> 28         0.00105
       3 -> 32        -0.00013
       3 -> 34        -0.00055
       3 -> 36        -0.00024
       3 -> 41        -0.00021
       3 -> 46         0.00012
       3 -> 49         0.00027
       3 -> 51         0.00027
       3 -> 54        -0.00020
       4 -> 10         0.00503
       4 -> 11         0.00657
       4 -> 14         0.00521
       4 -> 15         0.00022
       4 -> 19         0.00034
       4 -> 20         0.00458
       4 -> 21         0.00140
       4 -> 25         0.00720
       4 -> 26         0.00139
       4 -> 28        -0.00042
       4 -> 32         0.00062
       4 -> 34        -0.00028
       4 -> 39        -0.00015
       4 -> 41         0.00013
       4 -> 43         0.00016
       4 -> 46        -0.00022
       4 -> 51         0.00015
       5 -> 12         0.00684
       5 -> 16         0.00154
       5 -> 18         0.01106
       5 -> 22        -0.00187
       5 -> 24         0.00529
       5 -> 33        -0.00016
       5 -> 35        -0.00079
       5 -> 50         0.00028
       5 -> 53        -0.00014
       6 -> 10         0.01275
       6 -> 11        -0.00313
       6 -> 14         0.00440
       6 -> 15         0.00124
       6 -> 19         0.00318
       6 -> 20         0.00436
       6 -> 21         0.00126
       6 -> 25         0.00314
       6 -> 26         0.00019
       6 -> 28        -0.00159
       6 -> 32         0.00055
       6 -> 43         0.00013
       6 -> 49        -0.00061
       6 -> 51        -0.00026
       7 ->  9         0.01565
       7 -> 13         0.00952
       7 -> 17         0.00333
       7 -> 23         0.00523
       7 -> 29        -0.00037
       7 -> 31         0.00087
       7 -> 37         0.00057
       7 -> 44         0.00066
       7 -> 47        -0.00035
       7 -> 52        -0.00011
       8 -> 12         0.70576
       8 -> 16        -0.01260
       8 -> 18         0.02994
       8 -> 22         0.00482
       8 -> 24         0.00316
       8 -> 30         0.00065
       8 -> 33         0.00155
       8 -> 35         0.00203
       8 -> 40        -0.00068
       8 -> 42         0.00029
       8 -> 48        -0.00040
       8 -> 50         0.00030
       8 -> 53        -0.00022
       3 <- 10         0.00060
       3 <- 14         0.00042
       3 <- 20         0.00072
       3 <- 21         0.00048
       3 <- 26         0.00068
       3 <- 28         0.00069
       3 <- 32        -0.00021
       3 <- 34        -0.00035
       3 <- 36        -0.00019
       3 <- 41        -0.00016
       3 <- 46         0.00021
       3 <- 49         0.00021
       3 <- 51         0.00024
       3 <- 54        -0.00018
       4 <- 10         0.00450
       4 <- 11         0.00164
       4 <- 14         0.00383
       4 <- 15        -0.00031
       4 <- 19         0.00021
       4 <- 20         0.00262
       4 <- 21         0.00052
       4 <- 25         0.00396
       4 <- 26         0.00088
       4 <- 32         0.00066
       4 <- 34        -0.00067
       4 <- 39        -0.00021
       4 <- 43         0.00010
       4 <- 46        -0.00019
       4 <- 51         0.00014
       5 <- 12         0.00275
       5 <- 16         0.00228
       5 <- 18         0.00390
       5 <- 22        -0.00061
       5 <- 24         0.00287
       5 <- 30        -0.00012
       5 <- 33        -0.00034
       5 <- 35        -0.00073
       5 <- 50         0.00017
       5 <- 53        -0.00013
       6 <- 10         0.00329
       6 <- 11        -0.00023
       6 <- 14         0.00175
       6 <- 15         0.00038
       6 <- 19         0.00099
       6 <- 20         0.00210
       6 <- 21         0.00041
       6 <- 25         0.00158
       6 <- 26         0.00035
       6 <- 28        -0.00100
       6 <- 32         0.00047
       6 <- 34        -0.00018
       6 <- 41         0.00014
       6 <- 46        -0.00011
       6 <- 49        -0.00050
       6 <- 51        -0.00030
       7 <-  9         0.00110
       7 <- 13         0.00231
       7 <- 17         0.00092
       7 <- 23         0.00268
       7 <- 29        -0.00033
       7 <- 31         0.00061
       7 <- 37         0.00045
       7 <- 44         0.00054
       7 <- 47        -0.00030
       7 <- 52        -0.00010
       8 <- 12        -0.00120
       8 <- 16        -0.00654
       8 <- 18        -0.00219
       8 <- 22         0.00080
       8 <- 24        -0.00194
       8 <- 30        -0.00033
       8 <- 33         0.00073
       8 <- 35         0.00097
       8 <- 40        -0.00064
       8 <- 42         0.00026
       8 <- 48        -0.00043
       8 <- 50         0.00023
       8 <- 53        -0.00023

 Excited State   5:      Singlet-A2     8.2253 eV  150.74 nm  f=0.0000  <S**2>=0.000
       3 -> 27        -0.00054
       3 -> 38        -0.00049
       3 -> 45        -0.00028
       4 -> 27         0.00019
       4 -> 38         0.00051
       5 ->  9        -0.00784
       5 -> 13        -0.00318
       5 -> 17         0.00637
       5 -> 23        -0.00174
       5 -> 31        -0.00160
       5 -> 37        -0.00107
       5 -> 44        -0.00021
       6 -> 27         0.00023
       6 -> 38         0.00029
       6 -> 45        -0.00029
       7 -> 12        -0.00044
       7 -> 16        -0.00183
       7 -> 18         0.00196
       7 -> 22        -0.00069
       7 -> 35         0.00015
       7 -> 40         0.00012
       7 -> 48        -0.00011
       8 ->  9         0.05568
       8 -> 13         0.70439
       8 -> 17         0.01727
       8 -> 23         0.01768
       8 -> 29         0.00013
       8 -> 31        -0.00145
       8 -> 37        -0.00025
       8 -> 47         0.00018
       8 -> 52        -0.00014
       3 <- 27        -0.00018
       3 <- 38        -0.00033
       3 <- 45        -0.00036
       4 <- 27        -0.00016
       5 <-  9        -0.00028
       5 <- 13        -0.00032
       5 <- 17         0.00057
       5 <- 37        -0.00023
       6 <- 38         0.00020
       7 <- 12        -0.00064
       7 <- 16        -0.00091
       7 <- 18         0.00071
       7 <- 22        -0.00108
       7 <- 24        -0.00040
       7 <- 30         0.00021
       7 <- 33         0.00041
       7 <- 35         0.00066
       7 <- 40         0.00038
       7 <- 42        -0.00012
       7 <- 53        -0.00010
       8 <-  9         0.00227
       8 <- 13         0.00139
       8 <- 17         0.00023
       8 <- 23        -0.00020
       8 <- 37         0.00017

 Excited State   6:      Singlet-B1     9.7914 eV  126.63 nm  f=0.0006  <S**2>=0.000
       3 ->  9        -0.03134
       3 -> 13         0.00740
       3 -> 17        -0.00767
       3 -> 23         0.00514
       3 -> 29        -0.00329
       3 -> 31        -0.00031
       3 -> 37        -0.00012
       3 -> 44         0.00078
       3 -> 47        -0.00018
       3 -> 52         0.00110
       4 ->  9         0.01676
       4 -> 13        -0.00287
       4 -> 17         0.00109
       4 -> 23        -0.00243
       4 -> 29        -0.00027

 The electronic state is 1-A1.
 Alpha  occ. eigenvalues --  -19.14736 -10.26947  -1.10894  -0.63648  -0.51707
 Alpha  occ. eigenvalues --   -0.47320  -0.43372  -0.27731
 Alpha virt. eigenvalues --   -0.04889   0.00947   0.04046   0.04298   0.06624
 Alpha virt. eigenvalues --    0.13193   0.18429   0.18471   0.22009   0.22989
 Alpha virt. eigenvalues --    0.27181   0.34025   0.47041   0.47664   0.51004

 Mulliken charges:
               1
     1  C    0.035892
     2  H    0.095451
     3  H    0.095451
     4  O   -0.226794
 Sum of Mulliken charges =   0.00000

 Dipole moment (field-independent basis, Debye):
    X=             -0.0000    Y=              0.0000    Z=             -2.1949  Tot=              2.1949
 Quadrupole moment (field-independent basis, Debye-Ang):
   XX=            -11.5745   YY=            -11.7751   ZZ=            -12.5901
   XY=              0.0000   XZ=              0.0000   YZ=             -0.0000

 Normal termination of Gaussian 16 at Fri Sep 17 10:52:41 2021.
