 Gaussian 16, Revision C.01,
 Gaussian 16:  ES64L-G16RevC.01  3-Jul-2019

 ----------------------------------------
 #P wB97XD/6-311+G* NoSymm #P Field=Z+175
 ----------------------------------------

 -------
 TitleMe
 -------
 Symbolic Z-matrix:
 Charge =  1 Multiplicity = 1

                          Input orientation:
 ---------------------------------------------------------------------
 Center     Atomic      Atomic             Coordinates (Angstroms)
 Number     Number       Type             X           Y           Z
 ---------------------------------------------------------------------
      1          6           0        0.519300    1.233000   -0.031900
      2          6           0        1.944500    1.269200   -0.036700
      3          6           0        2.620400    0.092800   -0.025000
      4          6           0       -0.196000    0.030100    0.001000
      5          1           0       -0.020700    2.174200   -0.043400
      6          1           0        2.482800    2.208900   -0.036100
      7          1           0       -1.277700    0.039900    0.011700
      8          7           0        4.092100    0.095900    0.036600
      9          8           0        4.639300   -1.021700    0.144600
     10          8           0        4.664900    1.198400   -0.023300
     11          6           0        0.494300   -1.167100    0.021000
     12          1           0       -0.032500   -2.114900    0.054500
     13          6           0        1.962900   -1.216500   -0.021100
     14          1           0        2.443600   -1.963100    0.615100
     15         35           0        2.173000   -1.949100   -1.906200
 ---------------------------------------------------------------------

 SCF Done:  E(RwB97XD) =  -3010.54795612     A.U. after   20 cycles

 Alpha  occ. eigenvalues -- -483.28408 -62.83377 -56.63124 -56.62487 -56.62466
 Alpha  occ. eigenvalues --  -19.45809 -19.45803 -14.85182 -10.58162 -10.56417
 Alpha  occ. eigenvalues --  -10.56174 -10.55646 -10.52369 -10.51785  -8.99144
 Alpha  occ. eigenvalues --   -6.81963  -6.79889  -6.79825  -2.91833  -2.91298
 Alpha  occ. eigenvalues --   -2.91247  -2.89589  -2.89587  -1.49475  -1.32450
 Alpha  occ. eigenvalues --   -1.21221  -1.11790  -1.10961  -1.02813  -0.98937
 Alpha  occ. eigenvalues --   -0.94147  -0.89554  -0.84266  -0.80172  -0.79454
 Alpha  occ. eigenvalues --   -0.79224  -0.76967  -0.75588  -0.74536  -0.70471
 Alpha  occ. eigenvalues --   -0.67449  -0.66514  -0.61585  -0.58310  -0.56943
 Alpha  occ. eigenvalues --   -0.56175  -0.55485  -0.52798  -0.51857
 Alpha virt. eigenvalues --   -0.28659  -0.19715  -0.13953  -0.12490  -0.11041
 Alpha virt. eigenvalues --   -0.08306  -0.08023  -0.05904  -0.04393  -0.03830
 Alpha virt. eigenvalues --   -0.02215  -0.01004   0.00396   0.00922   0.01358

 Mulliken charges:
               1
     1  C   -0.156365
     2  C    0.237449
     3  C   -0.034392
     4  C   -0.336678
     5  H    0.343887
     6  H    0.348971
     7  H    0.327603
     8  N   -0.278242
     9  O    0.088536
    10  O    0.070113
    11  C   -0.245084
    12  H    0.352297
    13  C   -0.427265
    14  H    0.354692
    15  Br   0.354478
 Sum of Mulliken charges =   1.00000

 Dipole moment (field-independent basis, Debye):
    X=              3.0554    Y=             -1.6310    Z=             -3.9267  Tot=              5.2360
 Quadrupole moment (field-independent basis, Debye-Ang):
   XX=            -67.8901   YY=            -50.0330   ZZ=            -58.3840
   XY=             -4.4483   XZ=             -9.1046   YZ=              5.5468

 Normal termination of Gaussian 16 at Thu May  2 14:20:15 2024.
