 Gaussian 16, Revision A.03,
 Gaussian 16:  ES64L-G16RevA.03 25-Dec-2016

 --------------------------------------------------------------------
 #p B3LYP/6-311+G** #p TD=(singlets,nstates=30)IOp(6/8=3) IOp(9/40=4)
 --------------------------------------------------------------------

 --------------------------------
 Scan Step 175, Bond Length 1.375
 --------------------------------
 Symbolic Z-matrix:
 Charge =  0 Multiplicity = 1

                         Standard orientation:
 ---------------------------------------------------------------------
 Center     Atomic      Atomic             Coordinates (Angstroms)
 Number     Number       Type             X           Y           Z
 ---------------------------------------------------------------------
      1          6           0        0.000000    0.000000   -0.613581
      2          1           0        0.000000    0.937260   -1.204931
      3          1           0       -0.000000   -0.937260   -1.204931
      4          8           0        0.000000   -0.000000    0.761419
 ---------------------------------------------------------------------

 SCF Done:  E(RB3LYP) =  -114.508936899     A.U. after    9 cycles

 Excitation energies and oscillator strengths:

 Excited State   1:      Singlet-A2     2.9906 eV  414.58 nm  f=0.0000  <S**2>=0.000
       3 -> 27         0.00188
       3 -> 38         0.00154
       3 -> 46         0.00294
       4 -> 27         0.00127
       4 -> 38        -0.00034
       4 -> 46        -0.00141
       5 ->  9         0.01611
       5 -> 13        -0.00046
       5 -> 18         0.00450
       5 -> 23         0.00111
       5 -> 29         0.00396
       5 -> 31        -0.00100
       5 -> 37         0.00247
       5 -> 44         0.00049
       5 -> 48         0.00012
       5 -> 52         0.00058
       6 -> 27        -0.00047
       6 -> 38        -0.00088
       6 -> 46         0.00168
       7 -> 12        -0.00067
       7 -> 15         0.00379
       7 -> 19        -0.00338
       7 -> 25         0.00131
       7 -> 30        -0.00116
       7 -> 33         0.00044
       7 -> 42        -0.00011
       7 -> 49         0.00018
       7 -> 50         0.00028
       7 -> 53         0.00048
       8 ->  9         0.70688
       8 -> 13        -0.02554
       8 -> 18         0.02229
       8 -> 23        -0.00725
       8 -> 29         0.01061
       8 -> 31        -0.00071
       8 -> 37         0.00051
       8 -> 48        -0.00028
       8 -> 52         0.00187
       3 <- 27         0.00111
       3 <- 38         0.00122
       3 <- 46         0.00302
       4 <- 27         0.00199
       4 <- 38         0.00017
       4 <- 46        -0.00116
       5 <-  9        -0.00057
       5 <- 13        -0.00071
       5 <- 18        -0.00096
       5 <- 23         0.00043
       5 <- 29        -0.00068
       5 <- 31         0.00060
       5 <- 37         0.00127
       5 <- 44         0.00017
       5 <- 48         0.00011
       5 <- 52         0.00016
       6 <- 27         0.00015
       6 <- 38        -0.00076
       6 <- 46         0.00131
       7 <- 12        -0.00034
       7 <- 15        -0.00871
       7 <- 19         0.00175
       7 <- 22         0.00746
       7 <- 25         0.00025
       7 <- 30         0.00441
       7 <- 33        -0.00101
       7 <- 35         0.00181
       7 <- 40         0.00081
       7 <- 49        -0.00013
       7 <- 50         0.00018
       7 <- 53         0.00140
       8 <-  9        -0.03366
       8 <- 13         0.00171
       8 <- 18        -0.00526
       8 <- 23         0.00064
       8 <- 29        -0.00163
       8 <- 31        -0.00053
       8 <- 37        -0.00093
       8 <- 52         0.00052
 This state for optimization and/or second-order correction.
 Total Energy, E(TD-HF/TD-DFT) =  -114.399033269
 Copying the excited state density for this state as the 1-particle RhoCI density.

 Excited State   2:      Singlet-B2     6.9520 eV  178.34 nm  f=0.0141  <S**2>=0.000
       3 -> 12         0.00178
       3 -> 15         0.00047
       3 -> 19         0.00150
       3 -> 22        -0.00034
       3 -> 25         0.00108
       3 -> 30         0.00014
       3 -> 33         0.00030
       3 -> 35        -0.00067
       3 -> 40        -0.00036
       3 -> 49         0.00032
       3 -> 53        -0.00012
       4 -> 12        -0.00198
       4 -> 15         0.00220
       4 -> 19         0.00162
       4 -> 22        -0.00316
       4 -> 25         0.00290
       4 -> 30         0.00026
       4 -> 33        -0.00013
       4 -> 35         0.00027
       4 -> 40         0.00042
       4 -> 42        -0.00013
       5 -> 10        -0.00862
       5 -> 11        -0.00466
       5 -> 14         0.00776
       5 -> 16        -0.00043
       5 -> 17         0.00483
       5 -> 20         0.00183
       5 -> 21        -0.00549
       5 -> 24        -0.00106
       5 -> 26         0.00184
       5 -> 28         0.00097
       5 -> 32        -0.00102
       5 -> 34        -0.00098
       5 -> 36        -0.00023
       5 -> 39        -0.00012
       5 -> 41        -0.00058
       5 -> 43        -0.00039
       5 -> 54         0.00013
       6 -> 12        -0.00162
       6 -> 15         0.00120
       6 -> 19         0.00045
       6 -> 22        -0.00187
       6 -> 25         0.00079
       6 -> 30        -0.00042
       6 -> 33        -0.00034
       6 -> 35         0.00088
       6 -> 40         0.00022
       6 -> 42        -0.00012
       6 -> 49         0.00028
       6 -> 50        -0.00015
       7 -> 38        -0.00077
       7 -> 46        -0.00018
       8 -> 10         0.70367
       8 -> 11        -0.05923
       8 -> 14         0.02661
       8 -> 16        -0.00095
       8 -> 17         0.01178
       8 -> 20         0.01674
       8 -> 21         0.00179
       8 -> 24         0.00027
       8 -> 26         0.00343
       8 -> 28         0.00169
       8 -> 32         0.00086
       8 -> 34         0.00035
       8 -> 36         0.00016
       8 -> 39         0.00028
       8 -> 41        -0.00032
       8 -> 43         0.00059
       8 -> 47         0.00022
       8 -> 51        -0.00032
       8 -> 54         0.00028
       3 <- 12         0.00039
       3 <- 15         0.00044
       3 <- 19         0.00058
       3 <- 22        -0.00058
       3 <- 25         0.00055
       3 <- 33         0.00025
       3 <- 35        -0.00058
       3 <- 40        -0.00035
       3 <- 49         0.00037
       3 <- 53        -0.00013
       4 <- 12         0.00077
       4 <- 15         0.00201
       4 <- 19         0.00154
       4 <- 22        -0.00206
       4 <- 25         0.00192
       4 <- 30         0.00017
       4 <- 42        -0.00022
       4 <- 50        -0.00014
       5 <- 10         0.00214
       5 <- 11        -0.00025
       5 <- 14         0.00441
       5 <- 16        -0.00040
       5 <- 17         0.00032
       5 <- 20         0.00047
       5 <- 21        -0.00140
       5 <- 24        -0.00230
       5 <- 26         0.00128
       5 <- 28         0.00013
       5 <- 32        -0.00084
       5 <- 34        -0.00080
       5 <- 36        -0.00020
       5 <- 41        -0.00041
       5 <- 43        -0.00033
       6 <- 12        -0.00016
       6 <- 15        -0.00062
       6 <- 19         0.00085
       6 <- 25         0.00026
       6 <- 30         0.00062
       6 <- 33        -0.00039
       6 <- 35         0.00086
       6 <- 40         0.00019
       6 <- 42        -0.00010
       6 <- 49         0.00020
       6 <- 50        -0.00018
       6 <- 53         0.00022
       7 <- 38        -0.00057
       7 <- 46        -0.00011
       8 <- 10        -0.00138
       8 <- 11        -0.00111
       8 <- 14        -0.00376
       8 <- 16        -0.00072
       8 <- 17        -0.00127
       8 <- 20        -0.00063
       8 <- 21         0.00133
       8 <- 24         0.00126
       8 <- 26        -0.00098
       8 <- 28        -0.00025
       8 <- 32         0.00062
       8 <- 34        -0.00011
       8 <- 36         0.00033
       8 <- 43         0.00031
       8 <- 45         0.00017

 Excited State   3:      Singlet-B1     7.2770 eV  170.38 nm  f=0.0014  <S**2>=0.000
       3 ->  9        -0.03323
       3 -> 13         0.00360
       3 -> 18        -0.00630
       3 -> 23         0.00313
       3 -> 29        -0.00193
       3 -> 31        -0.00047
       3 -> 44         0.00050
       3 -> 48         0.00047
       3 -> 52         0.00111
       4 ->  9         0.01614
       4 -> 13        -0.00272
       4 -> 18         0.00075
       4 -> 23        -0.00249
       4 -> 29         0.00016
       4 -> 31        -0.00210
       4 -> 37        -0.00045
       4 -> 48        -0.00149
       4 -> 52        -0.00087
       5 -> 27        -0.00129
       5 -> 38         0.00200
       5 -> 46         0.00208
       6 ->  9         0.70568
       6 -> 13        -0.02798
       6 -> 18         0.02059
       6 -> 23        -0.01206
       6 -> 29         0.00647
       6 -> 31         0.00397
       6 -> 37        -0.00257
       6 -> 44        -0.00346
       6 -> 48         0.00513
       6 -> 52         0.00183
       7 -> 10        -0.00037
       7 -> 11         0.00030
       7 -> 14        -0.00181
       7 -> 16        -0.01152
       7 -> 17         0.00040
       7 -> 20         0.00187
       7 -> 21        -0.00221
       7 -> 24         0.00127
       7 -> 26         0.00043
       7 -> 28        -0.00467
       7 -> 32        -0.00121
       7 -> 34         0.00025
       7 -> 36        -0.00161
       7 -> 39         0.00016
       7 -> 41        -0.00155
       7 -> 43         0.00088
       7 -> 45         0.00444
       7 -> 47         0.00269
       7 -> 51         0.00113
       7 -> 54         0.00057
       8 -> 27         0.00192
       8 -> 38         0.00064
       8 -> 46         0.00653
       3 <-  9        -0.01060
       3 <- 13         0.00023
       3 <- 18        -0.00331
       3 <- 29        -0.00124
       3 <- 31        -0.00040
       3 <- 44        -0.00019
       3 <- 48         0.00072
       3 <- 52         0.00089
       4 <-  9         0.00601
       4 <- 18         0.00243
       4 <- 23        -0.00030
       4 <- 29         0.00220
       4 <- 31        -0.00180
       4 <- 44         0.00020
       4 <- 48        -0.00130
       4 <- 52        -0.00048
       5 <- 27        -0.00149
       5 <- 38         0.00153
       5 <- 46         0.00185
       6 <-  9        -0.02202
       6 <- 13         0.00239
       6 <- 18        -0.00301
       6 <- 23         0.00016
       6 <- 29        -0.00260
       6 <- 31         0.00254
       6 <- 37        -0.00248
       6 <- 44        -0.00212
       6 <- 48         0.00452
       6 <- 52         0.00067
       7 <- 10         0.00261
       7 <- 11         0.00449
       7 <- 14         0.00199
       7 <- 16         0.00154
       7 <- 17         0.01350
       7 <- 20         0.00725
       7 <- 21        -0.00650
       7 <- 24         0.00582
       7 <- 26         0.00310
       7 <- 28         0.00053
       7 <- 32        -0.00106
       7 <- 34         0.00143
       7 <- 36        -0.00257
       7 <- 39         0.00040
       7 <- 41        -0.00104
       7 <- 43         0.00082
       7 <- 45         0.00404
       7 <- 47         0.00226
       7 <- 51         0.00082
       7 <- 54         0.00107
       8 <- 27         0.00197
       8 <- 38         0.00073
       8 <- 46         0.00585

 Excited State   4:      Singlet-A1     7.3638 eV  168.37 nm  f=0.1320  <S**2>=0.000
       3 -> 10         0.00590
       3 -> 11         0.01486
       3 -> 14         0.00791
       3 -> 16        -0.00095
       3 -> 17         0.02425
       3 -> 20         0.00090
       3 -> 21        -0.00580
       3 -> 24         0.00630
       3 -> 26         0.00846
       3 -> 28         0.00099
       3 -> 32         0.00307
       3 -> 34        -0.00391
       3 -> 36        -0.00176
       3 -> 39         0.00141
       3 -> 41         0.00019
       3 -> 43         0.00064
       3 -> 45         0.00180
       3 -> 47         0.00091
       3 -> 51         0.00022
       3 -> 54         0.00030
       4 -> 10         0.02641
       4 -> 11        -0.01105
       4 -> 14         0.01584
       4 -> 16         0.00189
       4 -> 17        -0.00731
       4 -> 20         0.00980
       4 -> 21        -0.00013
       4 -> 24        -0.00787
       4 -> 26         0.00626
       4 -> 28         0.00095
       4 -> 32        -0.00126
       4 -> 34         0.00310
       4 -> 36         0.00069
       4 -> 39        -0.00021
       4 -> 43        -0.00011
       4 -> 45        -0.00068
       4 -> 47        -0.00159
       5 -> 12         0.03141
       5 -> 15         0.03085
       5 -> 19         0.00249
       5 -> 22         0.00227
       5 -> 25         0.01358
       5 -> 30        -0.00298
       5 -> 33        -0.00325
       5 -> 35         0.00174
       5 -> 40         0.00165
       5 -> 42         0.00073
       5 -> 49         0.00061
       5 -> 50        -0.00045
       5 -> 53        -0.00034
       6 -> 10        -0.03666
       6 -> 11        -0.06078
       6 -> 14        -0.02479
       6 -> 16        -0.03464
       6 -> 17        -0.10132
       6 -> 20        -0.03807
       6 -> 21         0.02959
       6 -> 24        -0.02580
       6 -> 26        -0.01347
       6 -> 28        -0.01125
       6 -> 32        -0.00018
       6 -> 34        -0.00313
       6 -> 36         0.00230
       6 -> 39         0.00013
       6 -> 41        -0.00099
       6 -> 43         0.00041
       6 -> 45         0.00065
       6 -> 47         0.00177
       6 -> 51         0.00074
       6 -> 54        -0.00026
       7 ->  9         0.68310
       7 -> 13         0.02390
       7 -> 18        -0.02762
       7 -> 23         0.00687
       7 -> 29        -0.00516
       7 -> 31        -0.00160
       7 -> 44        -0.00085
       7 -> 48         0.00060
       7 -> 52         0.00099
       8 -> 12         0.01607
       8 -> 15         0.13615
       8 -> 19        -0.02647
       8 -> 22        -0.04793
       8 -> 25         0.00361
       8 -> 30        -0.01530
       8 -> 33         0.00568
       8 -> 35        -0.00703
       8 -> 40        -0.00278
       8 -> 42        -0.00037
       8 -> 49         0.00065
       8 -> 50         0.00039
       8 -> 53        -0.00102
       3 <- 10         0.00308
       3 <- 11         0.00873
       3 <- 14         0.00542
       3 <- 17         0.01546
       3 <- 20         0.00085
       3 <- 21        -0.00483
       3 <- 24         0.00431
       3 <- 26         0.00546
       3 <- 28         0.00078
       3 <- 32         0.00274
       3 <- 34        -0.00251
       3 <- 36        -0.00120
       3 <- 39         0.00107
       3 <- 41         0.00015
       3 <- 43         0.00063
       3 <- 45         0.00185
       3 <- 47         0.00117
       3 <- 51         0.00021
       3 <- 54         0.00032
       4 <- 10         0.01035
       4 <- 11        -0.00500
       4 <- 14         0.00668
       4 <- 16         0.00051
       4 <- 17        -0.00416
       4 <- 20         0.00584
       4 <- 24        -0.00459
       4 <- 26         0.00432
       4 <- 32        -0.00166
       4 <- 34         0.00244
       4 <- 36         0.00039
       4 <- 39        -0.00022
       4 <- 41        -0.00011
       4 <- 43        -0.00010
       4 <- 45        -0.00017
       4 <- 47        -0.00144
       5 <- 12         0.00915
       5 <- 15         0.01151
       5 <- 19         0.00139
       5 <- 22         0.00113
       5 <- 25         0.00761
       5 <- 30        -0.00170
       5 <- 33        -0.00231
       5 <- 35         0.00140
       5 <- 40         0.00138
       5 <- 42         0.00056
       5 <- 49         0.00052
       5 <- 50        -0.00041
       5 <- 53        -0.00029
       6 <- 10        -0.00728
       6 <- 11        -0.01298
       6 <- 14        -0.00714
       6 <- 16        -0.01203
       6 <- 17        -0.03663
       6 <- 20        -0.01655
       6 <- 21         0.01412
       6 <- 24        -0.01371
       6 <- 26        -0.00777
       6 <- 28        -0.00693
       6 <- 32         0.00020
       6 <- 34        -0.00275
       6 <- 36         0.00155
       6 <- 39         0.00031
       6 <- 41        -0.00065
       6 <- 43         0.00035
       6 <- 45         0.00021
       6 <- 47         0.00143
       6 <- 51         0.00054
       6 <- 54        -0.00018
       7 <-  9        -0.09946
       7 <- 13         0.01247
       7 <- 18        -0.01473
       7 <- 23         0.00739
       7 <- 29        -0.00598
       7 <- 31        -0.00014
       7 <- 37        -0.00023
       7 <- 44        -0.00032
       7 <- 52         0.00081
       8 <- 12         0.00049
       8 <- 15         0.02681
       8 <- 19        -0.00710
       8 <- 22        -0.01951
       8 <- 25         0.00107
       8 <- 30        -0.00947
       8 <- 33         0.00378
       8 <- 35        -0.00485
       8 <- 40        -0.00213
       8 <- 42        -0.00029
       8 <- 49         0.00043
       8 <- 50         0.00030
       8 <- 53        -0.00089

 Excited State   5:      Singlet-B2     7.6023 eV  163.09 nm  f=0.0283  <S**2>=0.000
       3 -> 12        -0.00038
       3 -> 15        -0.00140
       3 -> 19         0.00165
       3 -> 22         0.00056
       3 -> 25        -0.00020
       3 -> 30         0.00310
       3 -> 33         0.00019
       3 -> 35        -0.00095
       3 -> 40        -0.00076
       3 -> 49         0.00090
       3 -> 50        -0.00016
       4 -> 12         0.00203
       4 -> 15         0.00083
       4 -> 19         0.00103
       4 -> 22        -0.00148
       4 -> 25         0.00237
       4 -> 30        -0.00165
       4 -> 33         0.00048
       4 -> 35        -0.00063
       4 -> 49         0.00017
       5 -> 10        -0.00203
       5 -> 11         0.00040
       5 -> 14         0.01107
       5 -> 16        -0.00580
       5 -> 17        -0.00083
       5 -> 20        -0.00406
       5 -> 21        -0.00373
       5 -> 24        -0.00062
       5 -> 26         0.00197
       5 -> 28         0.00149
       5 -> 32         0.00036
       5 -> 34        -0.00059
       5 -> 36        -0.00062
       5 -> 39         0.00063
       5 -> 41        -0.00058
       5 -> 43         0.00026
       5 -> 45         0.00093
       5 -> 47         0.00024
       5 -> 51        -0.00048
       6 -> 12        -0.00236
       6 -> 15        -0.00081
       6 -> 19        -0.00080
       6 -> 22         0.00089
       6 -> 25         0.00016
       6 -> 30         0.00130
       6 -> 33        -0.00052
       6 -> 35         0.00151
       6 -> 40         0.00131
       6 -> 42         0.00012
       6 -> 49        -0.00153
       6 -> 50         0.00019
       6 -> 53         0.00015
       7 -> 27         0.00053
       7 -> 38        -0.00070
       7 -> 46        -0.00250
       8 -> 10         0.05811
       8 -> 11         0.70275
       8 -> 14         0.00875
       8 -> 16         0.01035
       8 -> 17         0.04857
       8 -> 20        -0.00905
       8 -> 21         0.00106
       8 -> 24         0.00212
       8 -> 26         0.00036
       8 -> 28         0.00370
       8 -> 32         0.00017
       8 -> 34        -0.00029
       8 -> 36        -0.00057
       8 -> 39        -0.00025
       8 -> 41        -0.00089
       8 -> 43         0.00041
       8 -> 45         0.00309
       8 -> 47         0.00031
       8 -> 51        -0.00141
       8 -> 54         0.00017
       3 <- 12         0.00033
       3 <- 15        -0.00047
       3 <- 19         0.00122
       3 <- 30         0.00157
       3 <- 33         0.00029
       3 <- 35        -0.00088
       3 <- 40        -0.00070
       3 <- 49         0.00086
       3 <- 50        -0.00011
       3 <- 53        -0.00044
       4 <- 12         0.00019
       4 <- 15         0.00097
       4 <- 19         0.00011

 The electronic state is 1-A1.
 Alpha  occ. eigenvalues --  -19.16175 -10.30399  -0.99643  -0.67048  -0.49119
 Alpha  occ. eigenvalues --   -0.44293  -0.36877  -0.28906
 Alpha virt. eigenvalues --   -0.10557   0.00223   0.03325   0.04169   0.06236
 Alpha virt. eigenvalues --    0.12044   0.16101   0.18864   0.21450   0.21785
 Alpha virt. eigenvalues --    0.23690   0.30239   0.41361   0.43689   0.50952

 Mulliken charges:
               1
     1  C   -0.017561
     2  H    0.149682
     3  H    0.149682
     4  O   -0.281802
 Sum of Mulliken charges =  -0.00000

 Dipole moment (field-independent basis, Debye):
    X=             -0.0000    Y=             -0.0000    Z=             -3.1611  Tot=              3.1611
 Quadrupole moment (field-independent basis, Debye-Ang):
   XX=            -12.2380   YY=            -11.7542   ZZ=            -11.9672
   XY=              0.0000   XZ=              0.0000   YZ=             -0.0000

 Normal termination of Gaussian 16 at Fri Sep 17 10:52:50 2021.
