 Gaussian 16, Revision C.01,
 Gaussian 16:  ES64L-G16RevC.01  3-Jul-2019

 ---------------------------------------
 #P wB97XD/6-311+G* NoSymm #P Field=Y+19
 ---------------------------------------

 -------
 TitleMe
 -------
 Symbolic Z-matrix:
 Charge =  1 Multiplicity = 1

                          Input orientation:
 ---------------------------------------------------------------------
 Center     Atomic      Atomic             Coordinates (Angstroms)
 Number     Number       Type             X           Y           Z
 ---------------------------------------------------------------------
      1          6           0        0.029500    1.339700    0.068200
      2          6           0        1.434800    1.286700    0.006400
      3          6           0        2.111800    0.051100   -0.005400
      4          6           0        1.445100   -1.137200    0.031200
      5          6           0       -0.687900    0.168200    0.110000
      6          1           0       -0.471300    2.298400    0.078100
      7          1           0        2.027300    2.196500   -0.032200
      8          1           0        1.989700   -2.076400    0.023200
      9          1           0       -1.771600    0.180400    0.158200
     10          7           0        3.586400    0.051000   -0.067500
     11          8           0        4.147100   -1.059700   -0.088100
     12          8           0        4.145000    1.163900   -0.090100
     13          6           0       -0.023600   -1.145800    0.083500
     14          1           0       -0.436700   -1.872500    0.788900
     15         35           0       -0.535900   -1.869700   -1.740800
 ---------------------------------------------------------------------

 SCF Done:  E(RwB97XD) =  -3010.53598574     A.U. after   19 cycles

 Alpha  occ. eigenvalues -- -483.30783 -62.85806 -56.65500 -56.64926 -56.64923
 Alpha  occ. eigenvalues --  -19.45598 -19.45559 -14.85118 -10.57836 -10.57309
 Alpha  occ. eigenvalues --  -10.56875 -10.56647 -10.56501 -10.52803  -9.01610
 Alpha  occ. eigenvalues --   -6.84291  -6.82413  -6.82398  -2.94195  -2.93697
 Alpha  occ. eigenvalues --   -2.93683  -2.92181  -2.92181  -1.49380  -1.32357
 Alpha  occ. eigenvalues --   -1.22326  -1.13705  -1.11490  -1.03977  -1.00766
 Alpha  occ. eigenvalues --   -0.95139  -0.90660  -0.85017  -0.80485  -0.80357
 Alpha  occ. eigenvalues --   -0.79713  -0.77970  -0.75826  -0.75639  -0.71956
 Alpha  occ. eigenvalues --   -0.69060  -0.67288  -0.63374  -0.59774  -0.56872
 Alpha  occ. eigenvalues --   -0.55969  -0.55815  -0.55344  -0.54794
 Alpha virt. eigenvalues --   -0.29291  -0.21019  -0.15287  -0.13037  -0.08548
 Alpha virt. eigenvalues --   -0.06107  -0.05558  -0.04556  -0.04367  -0.02749
 Alpha virt. eigenvalues --   -0.02274  -0.02068  -0.00945  -0.00600   0.00828

 Mulliken charges:
               1
     1  C   -0.580856
     2  C    0.527006
     3  C   -0.727028
     4  C    0.293458
     5  C   -0.002256
     6  H    0.325925
     7  H    0.359282
     8  H    0.379995
     9  H    0.350260
    10  N   -0.106603
    11  O    0.040743
    12  O    0.017040
    13  C   -0.473722
    14  H    0.408808
    15  Br   0.187947
 Sum of Mulliken charges =   1.00000

 Dipole moment (field-independent basis, Debye):
    X=             -0.8924    Y=             -1.1329    Z=             -0.0919  Tot=              1.4451
 Quadrupole moment (field-independent basis, Debye-Ang):
   XX=            -71.3516   YY=            -51.7520   ZZ=            -62.4618
   XY=              0.6900   XZ=              1.1725   YZ=              1.9116

 Normal termination of Gaussian 16 at Wed May  1 15:07:34 2024.
