 Gaussian 16, Revision A.03,
 Gaussian 16:  ES64L-G16RevA.03 25-Dec-2016

 --------------------------------------------------------------------
 #p B3LYP/6-311+G** #p TD=(singlets,nstates=30)IOp(6/8=3) IOp(9/40=4)
 --------------------------------------------------------------------

 --------------------------------
 Scan Step 295, Bond Length 1.975
 --------------------------------
 Symbolic Z-matrix:
 Charge =  0 Multiplicity = 1

                         Standard orientation:
 ---------------------------------------------------------------------
 Center     Atomic      Atomic             Coordinates (Angstroms)
 Number     Number       Type             X           Y           Z
 ---------------------------------------------------------------------
      1          6           0        0.000000   -0.000000   -0.913581
      2          1           0        0.000000    0.937260   -1.504931
      3          1           0       -0.000000   -0.937260   -1.504931
      4          8           0        0.000000    0.000000    1.061419
 ---------------------------------------------------------------------

 SCF Done:  E(RB3LYP) =  -114.303255924     A.U. after   13 cycles

 Excitation energies and oscillator strengths:

 Excited State   1:      Singlet-A2     1.0150 eV 1221.51 nm  f=0.0000  <S**2>=0.000
       3 -> 27         0.00054
       3 -> 38         0.00031
       3 -> 47         0.00325
       4 -> 27         0.00026
       4 -> 47        -0.00075
       5 ->  9        -0.00025
       5 -> 14         0.00102
       5 -> 18         0.00122
       5 -> 23         0.00113
       5 -> 28         0.00086
       5 -> 37         0.00053
       5 -> 44         0.00015
       5 -> 52         0.00012
       6 -> 27        -0.00050
       6 -> 38        -0.00045
       6 -> 47         0.00074
       7 -> 12        -0.00148
       7 -> 16         0.00540
       7 -> 19        -0.00502
       7 -> 22        -0.00113
       7 -> 25        -0.00040
       7 -> 30        -0.00208
       7 -> 33         0.00024
       7 -> 49         0.00012
       7 -> 53         0.00034
       8 ->  9         0.71237
       8 -> 14        -0.00457
       8 -> 18         0.02007
       8 -> 23        -0.00019
       8 -> 28         0.00958
       8 -> 31         0.00154
       8 -> 37         0.00045
       8 -> 46        -0.00026
       8 -> 52         0.00177
       3 <- 38         0.00011
       3 <- 47         0.00327
       4 <- 27         0.00052
       4 <- 38         0.00015
       4 <- 47        -0.00056
       5 <-  9         0.00068
       5 <- 14        -0.00025
       5 <- 18        -0.00025
       5 <- 23         0.00012
       5 <- 28        -0.00021
       5 <- 31         0.00017
       5 <- 37         0.00030
       6 <- 38        -0.00032
       6 <- 47         0.00052
       7 <- 12         0.00238
       7 <- 16        -0.01038
       7 <- 19         0.00643
       7 <- 22         0.00485
       7 <- 25        -0.00062
       7 <- 30         0.00566
       7 <- 33        -0.00033
       7 <- 49        -0.00045
       7 <- 53         0.00142
       8 <-  9        -0.08816
       8 <- 14        -0.00083
       8 <- 18        -0.00809
       8 <- 23        -0.00050
       8 <- 28        -0.00281
       8 <- 31        -0.00086
       8 <- 37        -0.00013
       8 <- 46         0.00013
       8 <- 52         0.00039
 This state for optimization and/or second-order correction.
 Total Energy, E(TD-HF/TD-DFT) =  -114.265954963
 Copying the excited state density for this state as the 1-particle RhoCI density.

 Excited State   2:      Singlet-B2     2.5715 eV  482.15 nm  f=0.0011  <S**2>=0.000
       3 -> 12        -0.00096
       3 -> 16         0.00074
       3 -> 19        -0.00319
       3 -> 22         0.00113
       3 -> 25        -0.00086
       3 -> 30        -0.00206
       3 -> 33         0.00037
       3 -> 35         0.00092
       3 -> 40        -0.00099
       3 -> 42        -0.00022
       3 -> 49        -0.00410
       3 -> 51         0.00013
       3 -> 53         0.00021
       4 -> 12         0.00028
       4 -> 16        -0.00104
       4 -> 19         0.00023
       4 -> 22         0.00132
       4 -> 25         0.00035
       4 -> 30         0.00058
       4 -> 33        -0.00025
       4 -> 35         0.00037
       4 -> 40         0.00017
       4 -> 49         0.00071
       5 -> 10         0.00830
       5 -> 11         0.00074
       5 -> 13        -0.00179
       5 -> 15         0.00221
       5 -> 17        -0.00052
       5 -> 20         0.00172
       5 -> 21         0.00204
       5 -> 24         0.00117
       5 -> 26        -0.00012
       5 -> 29        -0.00194
       5 -> 32        -0.00047
       5 -> 39         0.00046
       5 -> 41         0.00030
       5 -> 48        -0.00023
       5 -> 50         0.00016
       5 -> 54        -0.00015
       6 -> 12         0.00232
       6 -> 16        -0.00294
       6 -> 19         0.00442
       6 -> 22        -0.00072
       6 -> 25         0.00115
       6 -> 30         0.00058
       6 -> 33        -0.00025
       6 -> 35        -0.00090
       6 -> 40         0.00053
       6 -> 42         0.00048
       6 -> 49         0.00085
       6 -> 53        -0.00043
       7 -> 27        -0.00040
       7 -> 38         0.00021
       7 -> 47         0.00247
       8 -> 10         0.70767
       8 -> 11         0.03799
       8 -> 13        -0.03575
       8 -> 15        -0.01598
       8 -> 17        -0.01645
       8 -> 20         0.00769
       8 -> 21         0.00413
       8 -> 24        -0.00455
       8 -> 26        -0.00323
       8 -> 29        -0.01377
       8 -> 32         0.00235
       8 -> 34        -0.00082
       8 -> 36         0.00195
       8 -> 39         0.00015
       8 -> 41        -0.00016
       8 -> 45        -0.00072
       8 -> 48        -0.00301
       8 -> 50         0.00095
       8 -> 54        -0.00252
       3 <- 12        -0.00033
       3 <- 16         0.00029
       3 <- 19        -0.00162
       3 <- 22         0.00084
       3 <- 25        -0.00078
       3 <- 30        -0.00085
       3 <- 33         0.00034
       3 <- 35         0.00053
       3 <- 40        -0.00086
       3 <- 49        -0.00414
       3 <- 51         0.00013
       3 <- 53         0.00060
       4 <- 12         0.00012
       4 <- 16        -0.00141
       4 <- 19         0.00019
       4 <- 22         0.00174
       4 <- 25         0.00014
       4 <- 30         0.00090
       4 <- 33        -0.00024
       4 <- 35         0.00051
       4 <- 49         0.00049
       5 <- 10        -0.00098
       5 <- 11        -0.00036
       5 <- 13        -0.00030
       5 <- 15         0.00186
       5 <- 17         0.00018
       5 <- 20         0.00073
       5 <- 21         0.00129
       5 <- 24         0.00125
       5 <- 29        -0.00044
       5 <- 32        -0.00018
       5 <- 39         0.00025
       5 <- 41         0.00032
       5 <- 45        -0.00015
       5 <- 48        -0.00026
       6 <- 12        -0.00128
       6 <- 16         0.00856
       6 <- 19        -0.00515
       6 <- 22        -0.00519
       6 <- 25         0.00143
       6 <- 30        -0.00635
       6 <- 33         0.00012
       6 <- 35        -0.00066
       6 <- 40         0.00050
       6 <- 42         0.00042
       6 <- 49         0.00140
       6 <- 53        -0.00146
       7 <- 27        -0.00042
       7 <- 38         0.00017
       7 <- 47         0.00217
       8 <- 10        -0.06462
       8 <- 11        -0.00687
       8 <- 13         0.00640
       8 <- 15         0.00227
       8 <- 17         0.00315
       8 <- 20        -0.00386
       8 <- 21        -0.00080
       8 <- 24         0.00127
       8 <- 26         0.00072
       8 <- 29         0.00331
       8 <- 32         0.00165
       8 <- 34         0.00071
       8 <- 36        -0.00098
       8 <- 39        -0.00066
       8 <- 41         0.00012
       8 <- 43         0.00023
       8 <- 45        -0.00132
       8 <- 48        -0.00256
       8 <- 50         0.00100
       8 <- 54        -0.00064

 Excited State   3:      Singlet-A1     2.6325 eV  470.97 nm  f=0.0177  <S**2>=0.000
       3 -> 10        -0.01063
       3 -> 11        -0.00169
       3 -> 13        -0.00028
       3 -> 17        -0.00275
       3 -> 20        -0.00296
       3 -> 21         0.00076
       3 -> 26         0.00044
       3 -> 29         0.00028
       3 -> 32         0.00243
       3 -> 34         0.00087
       3 -> 36        -0.00084
       3 -> 39        -0.00022
       3 -> 43         0.00038
       3 -> 45        -0.00139
       3 -> 48         0.00231
       3 -> 50         0.00170
       3 -> 54        -0.00015
       4 -> 10         0.00062
       4 -> 11         0.00829
       4 -> 13         0.00102
       4 -> 15        -0.00649
       4 -> 17         0.00175
       4 -> 20         0.00114
       4 -> 21         0.00014
       4 -> 24        -0.00342
       4 -> 26         0.00232
       4 -> 32        -0.00089
       4 -> 34        -0.00056
       4 -> 39        -0.00031
       4 -> 43        -0.00037
       4 -> 45         0.00071
       4 -> 48        -0.00059
       4 -> 50        -0.00019
       4 -> 54         0.00012
       5 -> 12         0.00683
       5 -> 16         0.00050
       5 -> 19         0.00084
       5 -> 22         0.00579
       5 -> 25        -0.00307
       5 -> 30         0.00029
       5 -> 33        -0.00212
       5 -> 35         0.00266
       5 -> 40        -0.00082
       5 -> 42        -0.00096
       5 -> 51        -0.00093
       6 -> 10         0.26954
       6 -> 11         0.02440
       6 -> 13        -0.02510
       6 -> 15        -0.01600
       6 -> 17        -0.01353
       6 -> 20         0.00046
       6 -> 21         0.00288
       6 -> 24        -0.00569
       6 -> 26        -0.00185
       6 -> 29        -0.00120
       6 -> 32         0.00484
       6 -> 34         0.00134
       6 -> 36         0.00088
       6 -> 39        -0.00163
       6 -> 43         0.00073
       6 -> 45        -0.00102
       6 -> 48         0.00062
       6 -> 50         0.00038
       6 -> 54        -0.00099
       7 ->  9         0.67159
       7 -> 14        -0.00856
       7 -> 18        -0.00731
       7 -> 23        -0.00326
       7 -> 28         0.00192
       7 -> 31        -0.00330
       7 -> 37         0.00136
       7 -> 44        -0.00094
       7 -> 52         0.00104
       8 -> 12        -0.00659
       8 -> 16         0.02582
       8 -> 19        -0.01553
       8 -> 22        -0.00796
       8 -> 30        -0.00632
       8 -> 33         0.00067
       8 -> 35        -0.00030
       8 -> 42         0.00012
       8 -> 49        -0.00014
       8 -> 51         0.00011
       8 -> 53        -0.00045
       3 <- 10        -0.00907
       3 <- 11        -0.00176
       3 <- 13        -0.00031
       3 <- 15        -0.00045
       3 <- 17        -0.00167
       3 <- 20        -0.00278
       3 <- 21         0.00037
       3 <- 24        -0.00047
       3 <- 26        -0.00029
       3 <- 29         0.00051
       3 <- 32         0.00203
       3 <- 34         0.00044
       3 <- 36        -0.00093
       3 <- 39        -0.00014
       3 <- 43         0.00039
       3 <- 45        -0.00147
       3 <- 48         0.00230
       3 <- 50         0.00171
       4 <- 10         0.00158
       4 <- 11         0.00659
       4 <- 13         0.00105
       4 <- 15        -0.00479
       4 <- 17         0.00114
       4 <- 20         0.00181
       4 <- 24        -0.00276
       4 <- 26         0.00218
       4 <- 29        -0.00041
       4 <- 32        -0.00083
       4 <- 34        -0.00048
       4 <- 36         0.00016
       4 <- 39        -0.00036
       4 <- 41         0.00010
       4 <- 43        -0.00033
       4 <- 45         0.00061
       4 <- 48        -0.00035
       5 <- 12         0.00466
       5 <- 16         0.00043
       5 <- 19         0.00075
       5 <- 22         0.00447
       5 <- 25        -0.00255
       5 <- 30         0.00030
       5 <- 33        -0.00184
       5 <- 35         0.00237
       5 <- 40        -0.00077
       5 <- 42        -0.00087
       5 <- 51        -0.00088
       6 <- 10         0.09688
       6 <- 11         0.01163
       6 <- 13        -0.01364
       6 <- 15        -0.00956
       6 <- 17        -0.00901
       6 <- 20        -0.00102
       6 <- 21         0.00230
       6 <- 24        -0.00392
       6 <- 26        -0.00068
       6 <- 29        -0.00024
       6 <- 32         0.00447
       6 <- 34         0.00149
       6 <- 36         0.00043
       6 <- 39        -0.00146
       6 <- 43         0.00063
       6 <- 45        -0.00074
       6 <- 48         0.00034
       6 <- 50         0.00024
       6 <- 54        -0.00093
       7 <-  9        -0.12779
       7 <- 14         0.00154
       7 <- 18        -0.00981
       7 <- 23        -0.00030
       7 <- 28        -0.00087
       7 <- 31        -0.00155
       7 <- 37         0.00066
       7 <- 44        -0.00088
       7 <- 46        -0.00047
       7 <- 52         0.00098
       8 <- 12        -0.00338
       8 <- 16         0.01506
       8 <- 19        -0.01018
       8 <- 22        -0.00577
       8 <- 25         0.00012
       8 <- 30        -0.00532
       8 <- 33         0.00055
       8 <- 35        -0.00022
       8 <- 49        -0.00024
       8 <- 53        -0.00043

 Excited State   4:      Singlet-B1     2.8495 eV  435.11 nm  f=0.0002  <S**2>=0.000
       3 ->  9        -0.01579
       3 -> 14         0.00040
       3 -> 18        -0.00315
       3 -> 23         0.00098
       3 -> 28        -0.00146
       3 -> 31        -0.00113
       3 -> 37         0.00016
       3 -> 46        -0.00176
       3 -> 52         0.00040
       4 ->  9        -0.00600
       4 -> 14         0.00097
       4 -> 18         0.00025
       4 -> 23         0.00079
       4 -> 28         0.00061
       4 -> 31        -0.00066
       4 -> 46         0.00021
       5 -> 27        -0.00226
       5 -> 38        -0.00030
       5 -> 47         0.00026
       6 ->  9         0.40373
       6 -> 14        -0.01101
       6 -> 18         0.01071
       6 -> 23        -0.00686
       6 -> 28         0.00373
       6 -> 44        -0.00070
       6 -> 46         0.00185
       6 -> 52         0.00021
       7 -> 10         0.58683
       7 -> 11         0.03206
       7 -> 13        -0.03154
       7 -> 15        -0.01613
       7 -> 17        -0.01320
       7 -> 20         0.00493
       7 -> 21         0.00241
       7 -> 24        -0.00616
       7 -> 26        -0.00435
       7 -> 29        -0.00879
       7 -> 32         0.00208
       7 -> 34        -0.00094
       7 -> 36         0.00091
       7 -> 41        -0.00012
       7 -> 43         0.00043
       7 -> 45        -0.00112
       7 -> 48         0.00265
       7 -> 50         0.00077
       7 -> 54        -0.00131
       8 -> 27         0.00012
       8 -> 47         0.00321
       3 <-  9        -0.00527
       3 <- 14        -0.00039
       3 <- 18        -0.00200
       3 <- 28        -0.00095
       3 <- 31        -0.00061
       3 <- 44        -0.00021
       3 <- 46        -0.00172
       3 <- 52         0.00057
       4 <-  9        -0.00285
       4 <- 14         0.00093
       4 <- 18         0.00097
       4 <- 23         0.00075
       4 <- 28         0.00128
       4 <- 31        -0.00051
       4 <- 44        -0.00037
       5 <- 27        -0.00214
       5 <- 38        -0.00021
       5 <- 47         0.00025
       6 <-  9        -0.06787
       6 <- 14         0.00231
       6 <- 18        -0.00710
       6 <- 23         0.00098
       6 <- 28        -0.00415
       6 <- 31        -0.00261
       6 <- 37         0.00033
       6 <- 44         0.00052
       6 <- 46         0.00190
       6 <- 52        -0.00088
       7 <- 10        -0.07510
       7 <- 11        -0.00807
       7 <- 13         0.01013
       7 <- 15         0.00453
       7 <- 17         0.00395
       7 <- 20        -0.00109
       7 <- 21        -0.00250
       7 <- 24         0.00228
       7 <- 26         0.00151
       7 <- 29         0.00247
       7 <- 34        -0.00012
       7 <- 36        -0.00047
       7 <- 39        -0.00028
       7 <- 41         0.00024
       7 <- 43         0.00022
       7 <- 45        -0.00081
       7 <- 48         0.00243
       7 <- 50         0.00107
       7 <- 54         0.00012
       8 <- 27         0.00037
       8 <- 47         0.00291

 Excited State   5:      Singlet-B1     3.4504 eV  359.33 nm  f=0.0049  <S**2>=0.000
       3 ->  9        -0.00797
       3 -> 14         0.00034
       3 -> 18        -0.00014
       3 -> 23         0.00029
       3 -> 28         0.00141
       3 -> 31         0.00066
       3 -> 44         0.00045
       3 -> 46         0.00308
       3 -> 52         0.00046
       4 ->  9         0.02766
       4 -> 14        -0.00564
       4 -> 18        -0.00048
       4 -> 23        -0.00451
       4 -> 28        -0.00018
       4 -> 31        -0.00093
       4 -> 37        -0.00034
       4 -> 44         0.00037
       4 -> 46        -0.00088
       4 -> 52        -0.00020
       5 -> 27         0.00525
       5 -> 38         0.00378
       6 ->  9         0.58375
       6 -> 14        -0.01128
       6 -> 18         0.00556
       6 -> 23        -0.00735
       6 -> 28        -0.00093
       6 -> 31         0.00451
       6 -> 37        -0.00289
       6 -> 44        -0.00147
       6 -> 46         0.00205
       6 -> 52         0.00108
       7 -> 10        -0.39749
       7 -> 11        -0.01583
       7 -> 13         0.01684
       7 -> 15         0.01525
       7 -> 17         0.00279
       7 -> 20         0.00244
       7 -> 21        -0.00072
       7 -> 24         0.00510
       7 -> 26         0.00227
       7 -> 29         0.00458
       7 -> 34         0.00293
       7 -> 36         0.00150
       7 -> 39        -0.00057
       7 -> 43        -0.00019
       7 -> 45         0.00034
       7 -> 48         0.00116
       7 -> 50         0.00059
       7 -> 54         0.00132
       8 -> 27        -0.00037
       8 -> 38        -0.00015
       8 -> 47         0.00134
       3 <-  9        -0.00258
       3 <- 14        -0.00099
       3 <- 18        -0.00052
       3 <- 23        -0.00065
       3 <- 28         0.00114
       3 <- 31        -0.00033
       3 <- 37         0.00034
       3 <- 44         0.00042
       3 <- 46         0.00316
       3 <- 52         0.00015
       4 <-  9         0.01544
       4 <- 14        -0.00299
       4 <- 18         0.00041
       4 <- 23        -0.00304
       4 <- 31        -0.00072
       4 <- 37        -0.00029
       4 <- 44         0.00039
       4 <- 46        -0.00055
       4 <- 52        -0.00014
       5 <- 27         0.00387
       5 <- 38         0.00328
       6 <-  9         0.00248
       6 <- 14         0.00183
       6 <- 18         0.00015
       6 <- 23        -0.00023
       6 <- 28        -0.00205
       6 <- 31         0.00447
       6 <- 37        -0.00273
       6 <- 44        -0.00085
       6 <- 46         0.00130
       6 <- 52         0.00104
       7 <- 10        -0.01704
       7 <- 11        -0.00270
       7 <- 13         0.00502
       7 <- 15         0.00823
       7 <- 17         0.00128
       7 <- 20         0.00481
       7 <- 21        -0.00045
       7 <- 24         0.00414
       7 <- 26         0.00126
       7 <- 29         0.00111
       7 <- 32        -0.00120
       7 <- 34         0.00211
       7 <- 36         0.00226
       7 <- 39        -0.00031
       7 <- 43        -0.00031
       7 <- 45         0.00049
       7 <- 48         0.00122
       7 <- 50         0.00090
       7 <- 54         0.00114
       8 <- 47         0.00148

 Excited State   6:      Singlet-A2     6.6672 eV  185.96 nm  f=0.0000  <S**2>=0.000
       3 -> 27        -0.00090
       3 -> 38        -0.00023
       4 -> 27        -0.00605
       4 -> 38         0.00045
       4 -> 47        -0.00015
       5 ->  9         0.70640

 The electronic state is 1-A1.
 Alpha  occ. eigenvalues --  -19.17821 -10.34411  -0.87918  -0.72182  -0.49541
 Alpha  occ. eigenvalues --   -0.37300  -0.29711  -0.28496
 Alpha virt. eigenvalues --   -0.18334  -0.10982  -0.00361   0.04021   0.06035
 Alpha virt. eigenvalues --    0.06080   0.11423   0.12788   0.18538   0.20796
 Alpha virt. eigenvalues --    0.23844   0.30400   0.38472   0.38988   0.50336

 Mulliken charges:
               1
     1  C   -0.112884
     2  H    0.195333
     3  H    0.195333
     4  O   -0.277781
 Sum of Mulliken charges =   0.00000

 Dipole moment (field-independent basis, Debye):
    X=             -0.0000    Y=              0.0000    Z=             -4.4093  Tot=              4.4093
 Quadrupole moment (field-independent basis, Debye-Ang):
   XX=            -13.1377   YY=            -12.1273   ZZ=            -10.2144
   XY=              0.0000   XZ=              0.0000   YZ=              0.0000

 Normal termination of Gaussian 16 at Fri Sep 17 10:53:21 2021.
