 Gaussian 16, Revision A.03,
 Gaussian 16:  ES64L-G16RevA.03 25-Dec-2016

 --------------------------------------------------------------------
 #p B3LYP/6-311+G** #p TD=(singlets,nstates=30)IOp(6/8=3) IOp(9/40=4)
 --------------------------------------------------------------------

 ---------------------------------------------
 Scan Step 203, Bond Length 1.5150000000000001
 ---------------------------------------------
 Symbolic Z-matrix:
 Charge =  0 Multiplicity = 1

                         Standard orientation:
 ---------------------------------------------------------------------
 Center     Atomic      Atomic             Coordinates (Angstroms)
 Number     Number       Type             X           Y           Z
 ---------------------------------------------------------------------
      1          6           0        0.000000    0.000000   -0.683581
      2          1           0        0.000000    0.937260   -1.274931
      3          1           0       -0.000000   -0.937260   -1.274931
      4          8           0        0.000000   -0.000000    0.831419
 ---------------------------------------------------------------------

 SCF Done:  E(RB3LYP) =  -114.459736797     A.U. after   10 cycles

 Excitation energies and oscillator strengths:

 Excited State   1:      Singlet-A2     2.3239 eV  533.51 nm  f=0.0000  <S**2>=0.000
       3 -> 27         0.00142
       3 -> 38         0.00110
       3 -> 46         0.00320
       4 -> 27         0.00088
       4 -> 38        -0.00019
       4 -> 46        -0.00137
       5 ->  9         0.01043
       5 -> 13         0.00063
       5 -> 18         0.00345
       5 -> 23         0.00156
       5 -> 28         0.00306
       5 -> 31        -0.00035
       5 -> 37         0.00174
       5 -> 44         0.00039
       5 -> 52         0.00042
       6 -> 27        -0.00060
       6 -> 38        -0.00083
       6 -> 46         0.00148
       7 -> 12        -0.00080
       7 -> 16         0.00444
       7 -> 19        -0.00380
       7 -> 22        -0.00056
       7 -> 25         0.00109
       7 -> 30        -0.00140
       7 -> 33         0.00040
       7 -> 49         0.00013
       7 -> 50         0.00020
       7 -> 53         0.00046
       8 ->  9         0.70788
       8 -> 13        -0.01685
       8 -> 18         0.02187
       8 -> 23        -0.00472
       8 -> 28         0.01106
       8 -> 31         0.00058
       8 -> 37         0.00065
       8 -> 48        -0.00030
       8 -> 52         0.00193
       3 <- 27         0.00073
       3 <- 38         0.00081
       3 <- 46         0.00326
       4 <- 27         0.00147
       4 <- 38         0.00023
       4 <- 46        -0.00111
       5 <-  9        -0.00042
       5 <- 13        -0.00059
       5 <- 18        -0.00080
       5 <- 23         0.00033
       5 <- 28        -0.00056
       5 <- 31         0.00042
       5 <- 37         0.00095
       5 <- 44         0.00013
       5 <- 52         0.00011
       6 <- 38        -0.00069
       6 <- 46         0.00115
       7 <- 12         0.00024
       7 <- 16        -0.00965
       7 <- 19         0.00301
       7 <- 22         0.00720
       7 <- 25         0.00045
       7 <- 30         0.00502
       7 <- 33        -0.00067
       7 <- 36         0.00117
       7 <- 40         0.00062
       7 <- 42         0.00011
       7 <- 49        -0.00031
       7 <- 50         0.00013
       7 <- 53         0.00145
       8 <-  9        -0.04424
       8 <- 13         0.00088
       8 <- 18        -0.00611
       8 <- 23         0.00036
       8 <- 28        -0.00214
       8 <- 31        -0.00057
       8 <- 37        -0.00061
       8 <- 52         0.00052
 This state for optimization and/or second-order correction.
 Total Energy, E(TD-HF/TD-DFT) =  -114.374333730
 Copying the excited state density for this state as the 1-particle RhoCI density.

 Excited State   2:      Singlet-A1     5.8796 eV  210.87 nm  f=0.0990  <S**2>=0.000
       3 -> 10         0.01029
       3 -> 11        -0.01672
       3 -> 14        -0.01257
       3 -> 15         0.01532
       3 -> 17        -0.00380
       3 -> 20        -0.00324
       3 -> 21        -0.00246
       3 -> 24         0.00367
       3 -> 26         0.00544
       3 -> 29        -0.00067
       3 -> 32         0.00280
       3 -> 34         0.00335
       3 -> 39         0.00102
       3 -> 43         0.00044
       3 -> 45         0.00079
       3 -> 47         0.00203
       3 -> 51         0.00075
       3 -> 54         0.00027
       4 -> 10         0.01812
       4 -> 11         0.01056
       4 -> 14        -0.01046
       4 -> 15        -0.00818
       4 -> 17         0.00330
       4 -> 20         0.00704
       4 -> 21         0.00035
       4 -> 24        -0.00589
       4 -> 26         0.00564
       4 -> 29         0.00116
       4 -> 32        -0.00124
       4 -> 34        -0.00233
       4 -> 39        -0.00017
       4 -> 41         0.00014
       4 -> 43        -0.00032
       4 -> 45         0.00038
       4 -> 47        -0.00158
       4 -> 51        -0.00027
       5 -> 12         0.02173
       5 -> 16         0.01703
       5 -> 19         0.00161
       5 -> 22         0.00642
       5 -> 25         0.01010
       5 -> 30        -0.00101
       5 -> 33        -0.00329
       5 -> 36         0.00256
       5 -> 40         0.00159
       5 -> 42         0.00062
       5 -> 49         0.00056
       5 -> 50        -0.00059
       5 -> 53        -0.00020
       6 -> 10        -0.07814
       6 -> 11         0.10417
       6 -> 14         0.07626
       6 -> 15        -0.10971
       6 -> 17        -0.02024
       6 -> 20        -0.01855
       6 -> 21         0.01896
       6 -> 24        -0.01779
       6 -> 26        -0.00896
       6 -> 29        -0.00921
       6 -> 32         0.00019
       6 -> 34         0.00188
       6 -> 35        -0.00131
       6 -> 39         0.00059
       6 -> 41        -0.00060
       6 -> 43         0.00069
       6 -> 45        -0.00041
       6 -> 47         0.00163
       6 -> 51         0.00084
       6 -> 54        -0.00050
       7 ->  9         0.68596
       7 -> 13         0.00716
       7 -> 18        -0.02221
       7 -> 23         0.00214
       7 -> 28        -0.00285
       7 -> 31        -0.00267
       7 -> 37         0.00059
       7 -> 44        -0.00105
       7 -> 48         0.00053
       7 -> 52         0.00103
       8 -> 12        -0.00508
       8 -> 16         0.09030
       8 -> 19        -0.02610
       8 -> 22        -0.03434
       8 -> 25         0.00138
       8 -> 30        -0.01367
       8 -> 33         0.00332
       8 -> 36        -0.00417
       8 -> 40        -0.00189
       8 -> 42        -0.00034
       8 -> 49         0.00068
       8 -> 50         0.00028
       8 -> 53        -0.00082
       3 <- 10         0.00634
       3 <- 11        -0.01094
       3 <- 14        -0.00896
       3 <- 15         0.01033
       3 <- 17        -0.00190
       3 <- 20        -0.00213
       3 <- 21        -0.00247
       3 <- 24         0.00243
       3 <- 26         0.00340
       3 <- 29        -0.00035
       3 <- 32         0.00256
       3 <- 34         0.00223
       3 <- 35        -0.00016
       3 <- 39         0.00085
       3 <- 41         0.00011
       3 <- 43         0.00051
       3 <- 45         0.00064
       3 <- 47         0.00223
       3 <- 51         0.00072
       3 <- 54         0.00034
       4 <- 10         0.00863
       4 <- 11         0.00614
       4 <- 14        -0.00501
       4 <- 15        -0.00481
       4 <- 17         0.00153
       4 <- 20         0.00518
       4 <- 21         0.00030
       4 <- 24        -0.00380
       4 <- 26         0.00424
       4 <- 29         0.00028
       4 <- 32        -0.00159
       4 <- 34        -0.00203
       4 <- 35         0.00022
       4 <- 39        -0.00023
       4 <- 43        -0.00032
       4 <- 45         0.00066
       4 <- 47        -0.00121
       5 <- 12         0.00838
       5 <- 16         0.00776
       5 <- 19         0.00106
       5 <- 22         0.00369
       5 <- 25         0.00641
       5 <- 30        -0.00054
       5 <- 33        -0.00246
       5 <- 36         0.00205
       5 <- 40         0.00136
       5 <- 42         0.00050
       5 <- 49         0.00049
       5 <- 50        -0.00054
       5 <- 53        -0.00018
       6 <- 10        -0.02037
       6 <- 11         0.02910
       6 <- 14         0.02719
       6 <- 15        -0.04290
       6 <- 17        -0.00879
       6 <- 20        -0.01001
       6 <- 21         0.01021
       6 <- 24        -0.01031
       6 <- 26        -0.00528
       6 <- 29        -0.00607
       6 <- 32         0.00066
       6 <- 34         0.00212
       6 <- 35        -0.00106
       6 <- 39         0.00072
       6 <- 41        -0.00040
       6 <- 43         0.00060
       6 <- 45        -0.00054
       6 <- 47         0.00114
       6 <- 51         0.00065
       6 <- 54        -0.00040
       7 <-  9        -0.11702
       7 <- 13         0.00935
       7 <- 18        -0.01453
       7 <- 23         0.00493
       7 <- 28        -0.00480
       7 <- 31        -0.00107
       7 <- 37         0.00010
       7 <- 44        -0.00055
       7 <- 52         0.00088
       8 <- 12        -0.00085
       8 <- 16         0.02637
       8 <- 19        -0.00952
       8 <- 22        -0.01683
       8 <- 25         0.00043
       8 <- 30        -0.00935
       8 <- 33         0.00238
       8 <- 36        -0.00308
       8 <- 40        -0.00150
       8 <- 42        -0.00027
       8 <- 49         0.00047
       8 <- 50         0.00023
       8 <- 53        -0.00074

 Excited State   3:      Singlet-B1     6.0587 eV  204.64 nm  f=0.0015  <S**2>=0.000
       3 ->  9        -0.03099
       3 -> 13         0.00230
       3 -> 18        -0.00529
       3 -> 23         0.00222
       3 -> 28        -0.00125
       3 -> 31        -0.00049
       3 -> 44         0.00031
       3 -> 48         0.00082
       3 -> 52         0.00103
       4 ->  9         0.01469
       4 -> 13        -0.00270
       4 -> 18         0.00043
       4 -> 23        -0.00247
       4 -> 28         0.00020
       4 -> 31        -0.00171
       4 -> 37        -0.00044
       4 -> 44         0.00011
       4 -> 48        -0.00127
       4 -> 52        -0.00070
       5 -> 27        -0.00055
       5 -> 38         0.00199
       5 -> 46         0.00128
       6 ->  9         0.70599
       6 -> 13        -0.02246
       6 -> 18         0.01818
       6 -> 23        -0.01139
       6 -> 28         0.00496
       6 -> 31         0.00364
       6 -> 37        -0.00237
       6 -> 44        -0.00315
       6 -> 48         0.00452
       6 -> 52         0.00161
       7 -> 10        -0.01261
       7 -> 11         0.01524
       7 -> 14         0.00968
       7 -> 15        -0.00806
       7 -> 17        -0.00976
       7 -> 20         0.00245
       7 -> 21        -0.00056
       7 -> 26        -0.00100
       7 -> 29        -0.00420
       7 -> 32        -0.00091
       7 -> 34         0.00017
       7 -> 35         0.00184
       7 -> 39         0.00012
       7 -> 41        -0.00086
       7 -> 43         0.00065
       7 -> 45         0.00195
       7 -> 47         0.00421
       7 -> 51         0.00116
       7 -> 54         0.00051
       8 -> 27         0.00092
       8 -> 38         0.00026
       8 -> 46         0.00583
       3 <-  9        -0.01022
       3 <- 13        -0.00036
       3 <- 18        -0.00309
       3 <- 23        -0.00038
       3 <- 28        -0.00083
       3 <- 31        -0.00060
       3 <- 44        -0.00027
       3 <- 48         0.00103
       3 <- 52         0.00082
       4 <-  9         0.00659
       4 <- 13        -0.00011
       4 <- 18         0.00217
       4 <- 23        -0.00045
       4 <- 28         0.00187
       4 <- 31        -0.00123
       4 <- 37        -0.00016
       4 <- 44         0.00015
       4 <- 48        -0.00110
       4 <- 52        -0.00040
       5 <- 27        -0.00100
       5 <- 38         0.00158
       5 <- 46         0.00114
       6 <-  9        -0.02346
       6 <- 13         0.00180
       6 <- 18        -0.00308
       6 <- 23        -0.00023
       6 <- 28        -0.00314
       6 <- 31         0.00167
       6 <- 37        -0.00212
       6 <- 44        -0.00183
       6 <- 48         0.00403
       6 <- 52         0.00058
       7 <- 10         0.00708
       7 <- 11        -0.00989
       7 <- 14        -0.00925
       7 <- 15         0.01662
       7 <- 17         0.00069
       7 <- 20         0.00568
       7 <- 21        -0.00504
       7 <- 24         0.00479
       7 <- 26         0.00204
       7 <- 29         0.00079
       7 <- 32        -0.00059
       7 <- 34        -0.00034
       7 <- 35         0.00289
       7 <- 39         0.00039
       7 <- 41        -0.00047
       7 <- 43         0.00054
       7 <- 45         0.00192
       7 <- 47         0.00375
       7 <- 51         0.00094
       7 <- 54         0.00109
       8 <- 27         0.00129
       8 <- 38         0.00042
       8 <- 46         0.00536

 Excited State   4:      Singlet-B2     6.7257 eV  184.34 nm  f=0.0181  <S**2>=0.000
       3 -> 12         0.00180
       3 -> 16        -0.00102
       3 -> 19         0.00334
       3 -> 22        -0.00028
       3 -> 25         0.00034
       3 -> 30         0.00223
       3 -> 33         0.00039
       3 -> 36        -0.00167
       3 -> 40        -0.00125
       3 -> 42        -0.00013
       3 -> 49         0.00158
       3 -> 50        -0.00019
       3 -> 53        -0.00022
       4 -> 12        -0.00079
       4 -> 16         0.00285
       4 -> 19         0.00082
       4 -> 22        -0.00351
       4 -> 25         0.00282
       4 -> 30        -0.00087
       4 -> 33         0.00034
       4 -> 36        -0.00031
       4 -> 40         0.00048
       4 -> 49        -0.00021
       5 -> 10        -0.00276
       5 -> 11        -0.00314
       5 -> 14        -0.01411
       5 -> 15         0.00257
       5 -> 17        -0.00162
       5 -> 20        -0.00101
       5 -> 21        -0.00658
       5 -> 24        -0.00178
       5 -> 26         0.00211
       5 -> 29         0.00169
       5 -> 32         0.00021
       5 -> 34         0.00128
       5 -> 35         0.00062
       5 -> 39         0.00061
       5 -> 41        -0.00082
       5 -> 45         0.00027
       5 -> 47         0.00061
       5 -> 51        -0.00038
       5 -> 54         0.00019
       6 -> 12        -0.00340
       6 -> 16         0.00107
       6 -> 19        -0.00164
       6 -> 22        -0.00068
       6 -> 25         0.00072
       6 -> 30         0.00032
       6 -> 33        -0.00049
       6 -> 36         0.00195
       6 -> 40         0.00132
       6 -> 42         0.00012
       6 -> 49        -0.00091
       6 -> 53         0.00021
       7 -> 27         0.00038
       7 -> 38        -0.00101
       7 -> 46        -0.00241
       8 -> 10         0.67149
       8 -> 11        -0.19424
       8 -> 14        -0.08031
       8 -> 15         0.06810
       8 -> 17         0.00541
       8 -> 20         0.00811
       8 -> 21        -0.00253
       8 -> 24         0.00372
       8 -> 26         0.00510
       8 -> 29         0.00636
       8 -> 32         0.00154
       8 -> 34         0.00085
       8 -> 35         0.00058
       8 -> 39         0.00038
       8 -> 41        -0.00049
       8 -> 43         0.00066
       8 -> 45         0.00197
       8 -> 47         0.00226
       8 -> 51        -0.00154
       8 -> 54         0.00090
       3 <- 12         0.00054
       3 <- 16        -0.00010
       3 <- 19         0.00154
       3 <- 22        -0.00078
       3 <- 30         0.00085
       3 <- 33         0.00035
       3 <- 36        -0.00136
       3 <- 40        -0.00114
       3 <- 42        -0.00011
       3 <- 49         0.00164
       3 <- 50        -0.00015
       3 <- 53        -0.00057
       4 <- 12         0.00057
       4 <- 16         0.00243
       4 <- 19         0.00087
       4 <- 22        -0.00268
       4 <- 25         0.00175
       4 <- 30        -0.00070
       4 <- 33         0.00043
       4 <- 36        -0.00049
       4 <- 40         0.00013
       4 <- 42        -0.00019
       4 <- 49        -0.00017
       5 <- 10         0.00169
       5 <- 11         0.00108
       5 <- 14        -0.00389
       5 <- 15        -0.00260
       5 <- 17        -0.00027
       5 <- 20        -0.00014
       5 <- 21        -0.00182
       5 <- 24        -0.00281
       5 <- 26         0.00095
       5 <- 29         0.00042
       5 <- 32        -0.00059
       5 <- 34         0.00055
       5 <- 35         0.00010
       5 <- 39         0.00017
       5 <- 41        -0.00074
       5 <- 43        -0.00018
       5 <- 45         0.00048
       5 <- 47         0.00036
       5 <- 51        -0.00019
       6 <- 12        -0.00027
       6 <- 16        -0.00319
       6 <- 19         0.00154
       6 <- 22         0.00213
       6 <- 25         0.00027
       6 <- 30         0.00281
       6 <- 33        -0.00065
       6 <- 36         0.00192
       6 <- 40         0.00126
       6 <- 42         0.00016
       6 <- 49        -0.00094
       6 <- 53         0.00063
       7 <- 27         0.00042
       7 <- 38        -0.00077
       7 <- 46        -0.00195
       8 <- 10        -0.00493
       8 <- 11         0.00716
       8 <- 14         0.00774
       8 <- 15        -0.00574
       8 <- 17        -0.00025
       8 <- 20         0.00110
       8 <- 21         0.00213
       8 <- 24        -0.00030
       8 <- 26        -0.00179
       8 <- 29         0.00056
       8 <- 32        -0.00102
       8 <- 34        -0.00093
       8 <- 35        -0.00029
       8 <- 39        -0.00090
       8 <- 41        -0.00051
       8 <- 45         0.00218
       8 <- 47         0.00137
       8 <- 51        -0.00085
       8 <- 54         0.00021

 Excited State   5:      Singlet-B2     7.1967 eV  172.28 nm  f=0.0099  <S**2>=0.000
       3 -> 12         0.00097
       3 -> 16         0.00197
       3 -> 19        -0.00188
       3 -> 22        -0.00044
       3 -> 25         0.00089
       3 -> 30        -0.00331
       3 -> 36         0.00105
       3 -> 40         0.00088
       3 -> 49        -0.00120
       3 -> 50         0.00011
       4 -> 12        -0.00159
       4 -> 16        -0.00029
       4 -> 19         0.00061
       4 -> 22         0.00022
       4 -> 25        -0.00038
       4 -> 30         0.00175
       4 -> 33        -0.00037
       4 -> 36         0.00058
       4 -> 50        -0.00013
       5 -> 10        -0.00732
       5 -> 11         0.00128
       5 -> 14         0.00516
       5 -> 15         0.00549
       5 -> 17         0.00229
       5 -> 20         0.00285
       5 -> 21         0.00231
       5 -> 24         0.00017
       5 -> 26        -0.00115
       5 -> 29        -0.00104
       5 -> 32        -0.00156
       5 -> 34        -0.00015
       5 -> 35        -0.00064
       5 -> 39        -0.00084
       5 -> 41         0.00017
       5 -> 43        -0.00037
       5 -> 45        -0.00057
       5 -> 47        -0.00059
       5 -> 51         0.00045
       6 -> 12         0.00021
       6 -> 16        -0.00011
       6 -> 19         0.00106
       6 -> 22        -0.00110
       6 -> 30        -0.00116
       6 -> 33         0.00020
       6 -> 36        -0.00092
       6 -> 40        -0.00120
       6 -> 42        -0.00025
       6 -> 49         0.00169
       6 -> 50        -0.00014
       6 -> 53        -0.00017
       7 -> 27        -0.00076
       7 -> 38         0.00017
       7 -> 46         0.00272
       8 -> 10         0.20472
       8 -> 11         0.67274
       8 -> 14         0.03084
       8 -> 15        -0.06502
       8 -> 17        -0.00672
       8 -> 20         0.01486
       8 -> 21         0.00411
       8 -> 24        -0.00449
       8 -> 29        -0.00488
       8 -> 32        -0.00064
       8 -> 34        -0.00091
       8 -> 35        -0.00100

 The electronic state is 1-A1.
 Alpha  occ. eigenvalues --  -19.16874 -10.31911  -0.95015  -0.68761  -0.48821
 Alpha  occ. eigenvalues --   -0.42618  -0.34304  -0.29008
 Alpha virt. eigenvalues --   -0.13186  -0.00423   0.02239   0.04115   0.06154
 Alpha virt. eigenvalues --    0.10667   0.14852   0.15014   0.18956   0.21557
 Alpha virt. eigenvalues --    0.23902   0.30073   0.39669   0.41973   0.50977

 Mulliken charges:
               1
     1  C   -0.044744
     2  H    0.170227
     3  H    0.170227
     4  O   -0.295710
 Sum of Mulliken charges =  -0.00000

 Dipole moment (field-independent basis, Debye):
    X=             -0.0000    Y=              0.0000    Z=             -3.5585  Tot=              3.5585
 Quadrupole moment (field-independent basis, Debye-Ang):
   XX=            -12.5664   YY=            -11.8305   ZZ=            -11.5635
   XY=              0.0000   XZ=              0.0000   YZ=              0.0000

 Normal termination of Gaussian 16 at Fri Sep 17 10:52:55 2021.
