 Gaussian 16, Revision C.01,
 Gaussian 16:  ES64L-G16RevC.01  3-Jul-2019

 ----------------------------------------
 #P wB97XD/6-311+G* NoSymm #P Field=Y+282
 ----------------------------------------

 -------
 TitleMe
 -------
 Symbolic Z-matrix:
 Charge =  1 Multiplicity = 1

                          Input orientation:
 ---------------------------------------------------------------------
 Center     Atomic      Atomic             Coordinates (Angstroms)
 Number     Number       Type             X           Y           Z
 ---------------------------------------------------------------------
      1          6           0        0.029500    1.339700    0.068200
      2          6           0        1.434800    1.286700    0.006400
      3          6           0        2.111800    0.051100   -0.005400
      4          6           0        1.445100   -1.137200    0.031200
      5          6           0       -0.687900    0.168200    0.110000
      6          1           0       -0.471300    2.298400    0.078100
      7          1           0        2.027300    2.196500   -0.032200
      8          1           0        1.989700   -2.076400    0.023200
      9          1           0       -1.771600    0.180400    0.158200
     10          7           0        3.586400    0.051000   -0.067500
     11          8           0        4.147100   -1.059700   -0.088100
     12          8           0        4.145000    1.163900   -0.090100
     13          6           0       -0.023600   -1.145800    0.083500
     14          1           0       -0.436700   -1.872500    0.788900
     15         35           0       -0.535900   -1.869700   -1.740800
 ---------------------------------------------------------------------

 SCF Done:  E(RwB97XD) =  -3010.58723601     A.U. after   24 cycles

 Alpha  occ. eigenvalues -- -483.27391 -62.82343 -56.62091 -56.61452 -56.61439
 Alpha  occ. eigenvalues --  -19.45574 -19.45240 -14.84679 -10.57708 -10.56258
 Alpha  occ. eigenvalues --  -10.56051 -10.54972 -10.54602 -10.54089  -8.98095
 Alpha  occ. eigenvalues --   -6.80912  -6.78828  -6.78787  -2.90780  -2.90236
 Alpha  occ. eigenvalues --   -2.90204  -2.88538  -2.88538  -1.49076  -1.32078
 Alpha  occ. eigenvalues --   -1.21535  -1.12409  -1.10966  -1.01353  -1.00228
 Alpha  occ. eigenvalues --   -0.94210  -0.90037  -0.85115  -0.80412  -0.79642
 Alpha  occ. eigenvalues --   -0.79307  -0.77741  -0.75296  -0.74487  -0.71015
 Alpha  occ. eigenvalues --   -0.68071  -0.66467  -0.62105  -0.58580  -0.56855
 Alpha  occ. eigenvalues --   -0.55672  -0.54769  -0.51366  -0.51164
 Alpha virt. eigenvalues --   -0.28128  -0.21754  -0.20197  -0.17421  -0.15081
 Alpha virt. eigenvalues --   -0.11176  -0.10532  -0.10138  -0.07795  -0.06001
 Alpha virt. eigenvalues --   -0.05508  -0.03604  -0.01735  -0.01410  -0.00951

 Mulliken charges:
               1
     1  C   -0.622459
     2  C    0.708543
     3  C   -0.892412
     4  C    0.439091
     5  C   -0.134740
     6  H    0.204648
     7  H    0.253111
     8  H    0.459116
     9  H    0.344298
    10  N   -0.098570
    11  O    0.176084
    12  O   -0.126507
    13  C   -0.562016
    14  H    0.473324
    15  Br   0.378489
 Sum of Mulliken charges =   1.00000

 Dipole moment (field-independent basis, Debye):
    X=             -1.7051    Y=             -8.8307    Z=             -1.1649  Tot=              9.0690
 Quadrupole moment (field-independent basis, Debye-Ang):
   XX=            -72.6257   YY=            -49.3648   ZZ=            -60.4103
   XY=             -7.7305   XZ=              2.0486   YZ=              5.4833

 Normal termination of Gaussian 16 at Wed May  1 15:15:42 2024.
