 Gaussian 16, Revision C.01,
 Gaussian 16:  ES64L-G16RevC.01  3-Jul-2019

 ---------------------------------------
 #P wB97XD/6-311+G* NoSymm #P Field=Z+29
 ---------------------------------------

 -------
 TitleMe
 -------
 Symbolic Z-matrix:
 Charge =  1 Multiplicity = 1

                          Input orientation:
 ---------------------------------------------------------------------
 Center     Atomic      Atomic             Coordinates (Angstroms)
 Number     Number       Type             X           Y           Z
 ---------------------------------------------------------------------
      1          6           0        0.519300    1.233000   -0.031900
      2          6           0        1.944500    1.269200   -0.036700
      3          6           0        2.620400    0.092800   -0.025000
      4          6           0       -0.196000    0.030100    0.001000
      5          1           0       -0.020700    2.174200   -0.043400
      6          1           0        2.482800    2.208900   -0.036100
      7          1           0       -1.277700    0.039900    0.011700
      8          7           0        4.092100    0.095900    0.036600
      9          8           0        4.639300   -1.021700    0.144600
     10          8           0        4.664900    1.198400   -0.023300
     11          6           0        0.494300   -1.167100    0.021000
     12          1           0       -0.032500   -2.114900    0.054500
     13          6           0        1.962900   -1.216500   -0.021100
     14          1           0        2.443600   -1.963100    0.615100
     15         35           0        2.173000   -1.949100   -1.906200
 ---------------------------------------------------------------------

 SCF Done:  E(RwB97XD) =  -3010.53305879     A.U. after   19 cycles

 Alpha  occ. eigenvalues -- -483.30557 -62.85569 -56.65274 -56.64691 -56.64678
 Alpha  occ. eigenvalues --  -19.46100 -19.46091 -14.85517 -10.58953 -10.57643
 Alpha  occ. eigenvalues --  -10.57016 -10.56648 -10.53118 -10.52490  -9.01368
 Alpha  occ. eigenvalues --   -6.84077  -6.82166  -6.82129  -2.93974  -2.93473
 Alpha  occ. eigenvalues --   -2.93443  -2.91914  -2.91913  -1.49785  -1.32747
 Alpha  occ. eigenvalues --   -1.22127  -1.12559  -1.12109  -1.04320  -0.99998
 Alpha  occ. eigenvalues --   -0.95053  -0.90313  -0.84758  -0.80701  -0.79927
 Alpha  occ. eigenvalues --   -0.79868  -0.77665  -0.76031  -0.75319  -0.71615
 Alpha  occ. eigenvalues --   -0.68255  -0.67300  -0.62951  -0.59429  -0.57266
 Alpha  occ. eigenvalues --   -0.56546  -0.55806  -0.55500  -0.54056
 Alpha virt. eigenvalues --   -0.29739  -0.20186  -0.15167  -0.12826  -0.08549
 Alpha virt. eigenvalues --   -0.06098  -0.05557  -0.04630  -0.03500  -0.03062
 Alpha virt. eigenvalues --   -0.02358  -0.01389  -0.00572   0.00059   0.00887

 Mulliken charges:
               1
     1  C   -0.117145
     2  C    0.193722
     3  C   -0.069447
     4  C   -0.332101
     5  H    0.344854
     6  H    0.349722
     7  H    0.329779
     8  N   -0.246073
     9  O    0.088185
    10  O    0.069522
    11  C   -0.210473
    12  H    0.355699
    13  C   -0.369799
    14  H    0.401866
    15  Br   0.211690
 Sum of Mulliken charges =   1.00000

 Dipole moment (field-independent basis, Debye):
    X=              2.8242    Y=             -1.0221    Z=             -1.2718  Tot=              3.2616
 Quadrupole moment (field-independent basis, Debye-Ang):
   XX=            -67.8604   YY=            -50.9567   ZZ=            -61.5040
   XY=             -3.2052   XZ=             -3.6357   YZ=              2.9670

 Normal termination of Gaussian 16 at Thu May  2 14:18:50 2024.
