 Gaussian 16, Revision C.01,
 Gaussian 16:  ES64L-G16RevC.01  3-Jul-2019

 ----------------------------------------
 #P wB97XD/6-311+G* NoSymm #P Field=Z+126
 ----------------------------------------

 -------
 TitleMe
 -------
 Symbolic Z-matrix:
 Charge =  1 Multiplicity = 1

                          Input orientation:
 ---------------------------------------------------------------------
 Center     Atomic      Atomic             Coordinates (Angstroms)
 Number     Number       Type             X           Y           Z
 ---------------------------------------------------------------------
      1          6           0        0.519300    1.233000   -0.031900
      2          6           0        1.944500    1.269200   -0.036700
      3          6           0        2.620400    0.092800   -0.025000
      4          6           0       -0.196000    0.030100    0.001000
      5          1           0       -0.020700    2.174200   -0.043400
      6          1           0        2.482800    2.208900   -0.036100
      7          1           0       -1.277700    0.039900    0.011700
      8          7           0        4.092100    0.095900    0.036600
      9          8           0        4.639300   -1.021700    0.144600
     10          8           0        4.664900    1.198400   -0.023300
     11          6           0        0.494300   -1.167100    0.021000
     12          1           0       -0.032500   -2.114900    0.054500
     13          6           0        1.962900   -1.216500   -0.021100
     14          1           0        2.443600   -1.963100    0.615100
     15         35           0        2.173000   -1.949100   -1.906200
 ---------------------------------------------------------------------

 SCF Done:  E(RwB97XD) =  -3010.54125453     A.U. after   20 cycles

 Alpha  occ. eigenvalues -- -483.29087 -62.84072 -56.63805 -56.63186 -56.63168
 Alpha  occ. eigenvalues --  -19.45893 -19.45889 -14.85284 -10.58417 -10.56803
 Alpha  occ. eigenvalues --  -10.56448 -10.55974 -10.52607 -10.52008  -8.99850
 Alpha  occ. eigenvalues --   -6.82634  -6.80612  -6.80558  -2.92512  -2.91988
 Alpha  occ. eigenvalues --   -2.91945  -2.90328  -2.90327  -1.49569  -1.32540
 Alpha  occ. eigenvalues --   -1.21510  -1.12023  -1.11335  -1.03282  -0.99298
 Alpha  occ. eigenvalues --   -0.94443  -0.89798  -0.84419  -0.80335  -0.79597
 Alpha  occ. eigenvalues --   -0.79434  -0.77190  -0.75730  -0.74788  -0.70833
 Alpha  occ. eigenvalues --   -0.67707  -0.66765  -0.62032  -0.58642  -0.57041
 Alpha  occ. eigenvalues --   -0.56273  -0.55581  -0.53686  -0.52613
 Alpha virt. eigenvalues --   -0.29003  -0.19852  -0.14213  -0.12445  -0.10103
 Alpha virt. eigenvalues --   -0.07259  -0.06969  -0.05467  -0.03616  -0.03247
 Alpha virt. eigenvalues --   -0.02042  -0.00936   0.00151   0.00556   0.01402

 Mulliken charges:
               1
     1  C   -0.143054
     2  C    0.224466
     3  C   -0.047534
     4  C   -0.333103
     5  H    0.343886
     6  H    0.348870
     7  H    0.327937
     8  N   -0.267194
     9  O    0.088204
    10  O    0.069537
    11  C   -0.234358
    12  H    0.353167
    13  C   -0.407848
    14  H    0.370516
    15  Br   0.306511
 Sum of Mulliken charges =   1.00000

 Dipole moment (field-independent basis, Debye):
    X=              2.9739    Y=             -1.4220    Z=             -3.0276  Tot=              4.4758
 Quadrupole moment (field-independent basis, Debye-Ang):
   XX=            -67.8833   YY=            -50.3435   ZZ=            -59.3948
   XY=             -4.0184   XZ=             -7.2546   YZ=              4.6760

 Normal termination of Gaussian 16 at Thu May  2 14:19:49 2024.
