 Gaussian 16, Revision A.03,
 Gaussian 16:  ES64L-G16RevA.03 25-Dec-2016

 --------------------------------------------------------------------
 #p B3LYP/6-311+G** #p TD=(singlets,nstates=30)IOp(6/8=3) IOp(9/40=4)
 --------------------------------------------------------------------

 --------------------------------------------
 Scan Step 91, Bond Length 0.9550000000000001
 --------------------------------------------
 Symbolic Z-matrix:
 Charge =  0 Multiplicity = 1

                         Standard orientation:
 ---------------------------------------------------------------------
 Center     Atomic      Atomic             Coordinates (Angstroms)
 Number     Number       Type             X           Y           Z
 ---------------------------------------------------------------------
      1          6           0        0.000000    0.000000   -0.403581
      2          1           0        0.000000    0.937260   -0.994931
      3          1           0       -0.000000   -0.937260   -0.994931
      4          8           0        0.000000   -0.000000    0.551419
 ---------------------------------------------------------------------

 SCF Done:  E(RB3LYP) =  -114.369395574     A.U. after    9 cycles

 Excitation energies and oscillator strengths:

 Excited State   1:      Singlet-A2     5.3100 eV  233.49 nm  f=0.0000  <S**2>=0.000
       3 -> 27         0.00299
       3 -> 36         0.00242
       3 -> 46         0.00150
       4 -> 27         0.00323
       4 -> 36        -0.00075
       4 -> 46        -0.00084
       5 ->  9         0.01306
       5 -> 13        -0.00940
       5 -> 17         0.00620
       5 -> 22        -0.00324
       5 -> 28         0.00335
       5 -> 31         0.00248
       5 -> 37         0.00390
       5 -> 43         0.00062
       5 -> 52         0.00080
       6 -> 12        -0.00060
       6 -> 16        -0.00148
       6 -> 18        -0.00091
       6 -> 23         0.00175
       6 -> 24         0.00082
       6 -> 29        -0.00055
       6 -> 33         0.00030
       6 -> 35         0.00055
       6 -> 40        -0.00018
       6 -> 42         0.00047
       6 -> 47         0.00066
       6 -> 50        -0.00017
       6 -> 53         0.00033
       7 -> 27         0.00084
       7 -> 36        -0.00043
       7 -> 46         0.00140
       8 ->  9         0.69697
       8 -> 13        -0.11498
       8 -> 17         0.02825
       8 -> 22        -0.01039
       8 -> 28         0.00597
       8 -> 31         0.00350
       8 -> 37        -0.00202
       8 -> 43        -0.00025
       8 -> 52         0.00111
       3 <- 27         0.00215
       3 <- 36         0.00207
       3 <- 46         0.00157
       4 <- 27         0.00386
       4 <- 36        -0.00036
       4 <- 46        -0.00079
       5 <-  9         0.00024
       5 <- 13        -0.00108
       5 <- 17        -0.00026
       5 <- 22         0.00037
       5 <- 28        -0.00022
       5 <- 31        -0.00112
       5 <- 37         0.00175
       5 <- 43         0.00043
       5 <- 49         0.00014
       5 <- 52         0.00020
       6 <- 12        -0.00096
       6 <- 16         0.00326
       6 <- 18        -0.00287
       6 <- 23         0.00549
       6 <- 24        -0.00135
       6 <- 29         0.00191
       6 <- 33        -0.00109
       6 <- 35         0.00226
       6 <- 40        -0.00026
       6 <- 42         0.00097
       6 <- 47         0.00050
       6 <- 53         0.00088
       7 <- 27         0.00108
       7 <- 36        -0.00046
       7 <- 46         0.00109
       8 <-  9        -0.01228
       8 <- 13         0.00753
       8 <- 17        -0.00396
       8 <- 22         0.00059
       8 <- 28        -0.00042
       8 <- 31         0.00245
       8 <- 37        -0.00225
       8 <- 52         0.00034
 This state for optimization and/or second-order correction.
 Total Energy, E(TD-HF/TD-DFT) =  -114.174258453
 Copying the excited state density for this state as the 1-particle RhoCI density.

 Excited State   2:      Singlet-B2     6.1862 eV  200.42 nm  f=0.0744  <S**2>=0.000
       3 -> 12         0.00100
       3 -> 16        -0.00010
       3 -> 18         0.00112
       3 -> 23        -0.00012
       3 -> 24         0.00122
       3 -> 29        -0.00016
       3 -> 35        -0.00016
       3 -> 42         0.00011
       3 -> 50        -0.00014
       4 -> 12        -0.00557
       4 -> 16         0.00045
       4 -> 18         0.00207
       4 -> 23        -0.00291
       4 -> 24         0.00402
       4 -> 29        -0.00034
       4 -> 33        -0.00095
       4 -> 35         0.00089
       4 -> 40        -0.00024
       4 -> 42         0.00044
       5 -> 10         0.00019
       5 -> 11        -0.00790
       5 -> 14         0.00594
       5 -> 15         0.00151
       5 -> 19         0.00361
       5 -> 20        -0.00079
       5 -> 21         0.00348
       5 -> 25         0.00090
       5 -> 26        -0.00152
       5 -> 30         0.00248
       5 -> 32        -0.00015
       5 -> 38        -0.00068
       5 -> 39         0.00020
       5 -> 41         0.00023
       5 -> 44        -0.00047
       5 -> 45        -0.00058
       5 -> 48         0.00032
       6 -> 27         0.00080
       6 -> 46         0.00082
       7 -> 12         0.00195
       7 -> 16         0.00132
       7 -> 18         0.00429
       7 -> 23        -0.00251
       7 -> 24         0.00217
       7 -> 42        -0.00038
       7 -> 47         0.00036
       7 -> 50         0.00051
       8 -> 10         0.70604
       8 -> 11        -0.02720
       8 -> 14        -0.01114
       8 -> 15         0.01123
       8 -> 19         0.01939
       8 -> 20         0.00897
       8 -> 21        -0.00679
       8 -> 25         0.00081
       8 -> 26        -0.00079
       8 -> 30         0.00022
       8 -> 32         0.00236
       8 -> 34         0.00175
       8 -> 38         0.00071
       8 -> 39        -0.00058
       8 -> 41        -0.00024
       8 -> 44         0.00061
       8 -> 45        -0.00099
       8 -> 48         0.00024
       8 -> 54        -0.00016
       3 <- 12         0.00031
       3 <- 16        -0.00025
       3 <- 18         0.00059
       3 <- 23        -0.00019
       3 <- 24         0.00085
       3 <- 29        -0.00015
       3 <- 35        -0.00016
       4 <- 12         0.00021
       4 <- 18         0.00277
       4 <- 23        -0.00177
       4 <- 24         0.00298
       4 <- 29        -0.00027
       4 <- 33        -0.00069
       4 <- 35         0.00065
       4 <- 40        -0.00024
       4 <- 42         0.00014
       5 <- 10         0.00227
       5 <- 14         0.00455
       5 <- 15         0.00154
       5 <- 19         0.00091
       5 <- 20        -0.00012
       5 <- 21         0.00199
       5 <- 25         0.00168
       5 <- 26        -0.00131
       5 <- 30         0.00088
       5 <- 32        -0.00047
       5 <- 34        -0.00012
       5 <- 38        -0.00049
       5 <- 39         0.00016
       5 <- 41         0.00031
       5 <- 44        -0.00031
       5 <- 45        -0.00050
       5 <- 48         0.00029
       6 <- 27         0.00061
       6 <- 46         0.00070
       7 <- 12         0.00055
       7 <- 16         0.00123
       7 <- 18         0.00174
       7 <- 23        -0.00098
       7 <- 24         0.00094
       7 <- 29         0.00057
       7 <- 33        -0.00014
       7 <- 35         0.00014
       7 <- 42        -0.00034
       7 <- 47         0.00032
       7 <- 50         0.00055
       8 <- 10        -0.00371
       8 <- 11        -0.00145
       8 <- 14        -0.01112
       8 <- 15        -0.00116
       8 <- 19        -0.00081
       8 <- 20        -0.00033
       8 <- 21        -0.00383
       8 <- 25        -0.00304
       8 <- 26        -0.00053
       8 <- 30        -0.00057
       8 <- 32         0.00106
       8 <- 34         0.00160
       8 <- 38         0.00072
       8 <- 39        -0.00047
       8 <- 41        -0.00011
       8 <- 44         0.00052
       8 <- 45        -0.00068
       8 <- 48         0.00025

 Excited State   3:      Singlet-B2     6.9732 eV  177.80 nm  f=0.0207  <S**2>=0.000
       3 -> 12        -0.00014
       3 -> 16         0.00070
       3 -> 18         0.00019
       3 -> 23         0.00019
       3 -> 24         0.00040
       3 -> 29         0.00115
       3 -> 33         0.00014
       3 -> 35        -0.00031
       3 -> 42        -0.00032
       3 -> 47         0.00021
       3 -> 50         0.00024
       4 -> 12         0.00303
       4 -> 16         0.00311
       4 -> 18         0.00286
       4 -> 23        -0.00153
       4 -> 24         0.00355
       4 -> 29        -0.00110
       4 -> 33         0.00055
       4 -> 35        -0.00025
       4 -> 40        -0.00022
       4 -> 47         0.00015
       4 -> 50         0.00015
       5 -> 10        -0.00613
       5 -> 11         0.00021
       5 -> 14         0.00387
       5 -> 15         0.00540
       5 -> 19        -0.00371
       5 -> 20        -0.00143
       5 -> 21         0.00123
       5 -> 25         0.00114
       5 -> 26         0.00124
       5 -> 30         0.00085
       5 -> 32        -0.00196
       5 -> 34        -0.00069
       5 -> 39        -0.00064
       5 -> 41        -0.00082
       5 -> 45         0.00064
       5 -> 48        -0.00045
       5 -> 51        -0.00025
       6 -> 27        -0.00074
       6 -> 36        -0.00129
       6 -> 46        -0.00120
       7 -> 12        -0.00307
       7 -> 16         0.00090
       7 -> 18        -0.00228
       7 -> 23         0.00141
       7 -> 24        -0.00015
       7 -> 29         0.00014
       7 -> 33        -0.00031
       7 -> 35         0.00131
       7 -> 40        -0.00036
       7 -> 42         0.00072
       7 -> 47        -0.00068
       7 -> 50        -0.00065
       7 -> 53         0.00015
       8 -> 10         0.02776
       8 -> 11         0.70557
       8 -> 14        -0.01523
       8 -> 15        -0.02136
       8 -> 19        -0.02006
       8 -> 20         0.01418
       8 -> 21        -0.00234
       8 -> 25         0.00032
       8 -> 26         0.00034
       8 -> 30        -0.00162
       8 -> 32         0.00012
       8 -> 34         0.00042
       8 -> 38        -0.00012
       8 -> 39        -0.00040
       8 -> 41        -0.00140
       8 -> 45         0.00080
       8 -> 48        -0.00073
       8 -> 51        -0.00023
       8 -> 54         0.00017
       3 <- 12         0.00027
       3 <- 16         0.00052
       3 <- 18         0.00048
       3 <- 24         0.00047
       3 <- 29         0.00074
       3 <- 33         0.00019
       3 <- 35        -0.00035
       3 <- 42        -0.00028
       3 <- 47         0.00017
       3 <- 50         0.00014
       3 <- 53        -0.00022
       4 <- 12         0.00032
       4 <- 16         0.00021
       4 <- 18         0.00122
       4 <- 23        -0.00127
       4 <- 24         0.00160
       4 <- 29        -0.00045
       4 <- 33         0.00054
       4 <- 40        -0.00021
       4 <- 42        -0.00013
       4 <- 50         0.00022
       5 <- 10         0.00135
       5 <- 11        -0.00046
       5 <- 14         0.00196
       5 <- 15         0.00051
       5 <- 19         0.00065
       5 <- 20         0.00015
       5 <- 21         0.00099
       5 <- 25         0.00097
       5 <- 26         0.00088
       5 <- 30         0.00079
       5 <- 32        -0.00053
       5 <- 34        -0.00117
       5 <- 38         0.00012
       5 <- 39        -0.00042
       5 <- 41        -0.00083
       5 <- 44        -0.00014
       5 <- 45         0.00063
       5 <- 48        -0.00031
       5 <- 51        -0.00024
       6 <- 27        -0.00029
       6 <- 36        -0.00106
       6 <- 46        -0.00103
       7 <- 12        -0.00036
       7 <- 16        -0.00017
       7 <- 18        -0.00030
       7 <- 23         0.00031
       7 <- 29        -0.00019
       7 <- 33        -0.00011
       7 <- 35         0.00094
       7 <- 40        -0.00028
       7 <- 42         0.00051
       7 <- 47        -0.00059
       7 <- 50        -0.00058
       8 <- 10        -0.00139
       8 <- 11         0.00102
       8 <- 14        -0.00561
       8 <- 15        -0.00107
       8 <- 19         0.00227
       8 <- 20        -0.00174
       8 <- 21        -0.00244
       8 <- 25        -0.00025
       8 <- 26         0.00109
       8 <- 30        -0.00098
       8 <- 32         0.00113
       8 <- 34        -0.00012
       8 <- 38        -0.00028
       8 <- 39        -0.00017
       8 <- 41        -0.00118
       8 <- 45         0.00068
       8 <- 48        -0.00047
       8 <- 51        -0.00023

 Excited State   4:      Singlet-A1     7.1116 eV  174.34 nm  f=0.0488  <S**2>=0.000
       3 -> 10         0.00142
       3 -> 11        -0.00092
       3 -> 14         0.00025
       3 -> 15         0.00052
       3 -> 19         0.00123
       3 -> 20         0.00057
       3 -> 25         0.00012
       3 -> 26        -0.00023
       3 -> 30         0.00114
       3 -> 32        -0.00029
       3 -> 34        -0.00021
       3 -> 38        -0.00035
       3 -> 39        -0.00021
       3 -> 41        -0.00017
       3 -> 48        -0.00015
       3 -> 51        -0.00032
       3 -> 54         0.00021
       4 -> 10         0.00555
       4 -> 11         0.00967
       4 -> 14         0.00621
       4 -> 15         0.00117
       4 -> 19         0.00077
       4 -> 20         0.00635
       4 -> 21         0.00247
       4 -> 25         0.00698
       4 -> 26        -0.00080
       4 -> 30        -0.00066
       4 -> 32        -0.00045
       4 -> 34        -0.00093
       4 -> 38        -0.00016
       4 -> 39         0.00064
       4 -> 41         0.00020
       4 -> 45        -0.00031
       4 -> 48        -0.00025
       5 -> 12         0.00773
       5 -> 16         0.00549
       5 -> 18         0.00984
       5 -> 24         0.00453
       5 -> 29         0.00049
       5 -> 33        -0.00016
       5 -> 35         0.00090
       5 -> 42        -0.00020
       5 -> 50        -0.00036
       5 -> 53        -0.00015
       6 ->  9         0.00895
       6 -> 13         0.00479
       6 -> 17         0.00513
       6 -> 22         0.00452
       6 -> 28         0.00044
       6 -> 31         0.00087
       6 -> 37         0.00053
       6 -> 43         0.00057
       6 -> 49        -0.00037
       7 -> 10         0.01333
       7 -> 11        -0.00486
       7 -> 14         0.00347
       7 -> 15        -0.00132
       7 -> 19         0.00690
       7 -> 20         0.00374
       7 -> 21         0.00148
       7 -> 25         0.00214
       7 -> 26        -0.00041
       7 -> 30        -0.00014
       7 -> 32         0.00057
       7 -> 34        -0.00087
       7 -> 39         0.00019
       7 -> 44         0.00010
       7 -> 48        -0.00019
       7 -> 51         0.00051
       8 -> 12         0.70557
       8 -> 16         0.03704
       8 -> 18         0.01315
       8 -> 23         0.00454
       8 -> 24         0.00148
       8 -> 29         0.00267
       8 -> 33         0.00152
       8 -> 35        -0.00239
       8 -> 42         0.00125
       8 -> 47        -0.00039
       8 -> 50        -0.00018
       8 -> 53        -0.00015
       3 <- 10         0.00057
       3 <- 11        -0.00030
       3 <- 14         0.00017
       3 <- 15         0.00022
       3 <- 19         0.00064
       3 <- 20         0.00025
       3 <- 25         0.00025
       3 <- 30         0.00068
       3 <- 32        -0.00023
       3 <- 34        -0.00012
       3 <- 38        -0.00027
       3 <- 39        -0.00018
       3 <- 41        -0.00016
       3 <- 45         0.00010
       3 <- 48        -0.00017
       3 <- 51        -0.00027
       3 <- 54         0.00019
       4 <- 10         0.00549
       4 <- 11         0.00316
       4 <- 14         0.00459
       4 <- 15         0.00135
       4 <- 19         0.00059
       4 <- 20         0.00359
       4 <- 21         0.00093
       4 <- 25         0.00413
       4 <- 26        -0.00037
       4 <- 32        -0.00073
       4 <- 34        -0.00092
       4 <- 38        -0.00024
       4 <- 39         0.00057
       4 <- 45        -0.00030
       4 <- 48        -0.00021
       5 <- 12         0.00271
       5 <- 16         0.00093
       5 <- 18         0.00424
       5 <- 23         0.00040
       5 <- 24         0.00246
       5 <- 29         0.00011
       5 <- 33        -0.00031
       5 <- 35         0.00080
       5 <- 42        -0.00018
       5 <- 50        -0.00028
       5 <- 53        -0.00013
       6 <-  9         0.00258
       6 <- 13         0.00172
       6 <- 17         0.00213
       6 <- 22         0.00258
       6 <- 28         0.00023
       6 <- 31         0.00065
       6 <- 37         0.00043
       6 <- 43         0.00048
       6 <- 49        -0.00032
       7 <- 10         0.00430
       7 <- 11        -0.00097
       7 <- 14         0.00161
       7 <- 15        -0.00044
       7 <- 19         0.00279
       7 <- 20         0.00206
       7 <- 21         0.00056
       7 <- 25         0.00123
       7 <- 26        -0.00043
       7 <- 32         0.00031
       7 <- 34        -0.00064
       7 <- 39         0.00026
       7 <- 41         0.00013
       7 <- 51         0.00047
       8 <- 12        -0.00290
       8 <- 16         0.00758
       8 <- 18        -0.00763
       8 <- 24        -0.00235
       8 <- 29         0.00111
       8 <- 33         0.00104
       8 <- 35        -0.00158
       8 <- 42         0.00103
       8 <- 47        -0.00046
       8 <- 50        -0.00016
       8 <- 53        -0.00017

 Excited State   5:      Singlet-A2     7.7175 eV  160.65 nm  f=0.0000  <S**2>=0.000
       3 -> 27        -0.00126
       3 -> 36        -0.00108
       3 -> 46        -0.00058
       4 -> 27        -0.00036
       4 -> 36         0.00067
       4 -> 46         0.00019
       5 ->  9        -0.00966
       5 -> 13         0.00469
       5 -> 17         0.00380
       5 -> 22         0.00020
       5 -> 31        -0.00212
       5 -> 37        -0.00197
       5 -> 43        -0.00030
       5 -> 52        -0.00030
       6 -> 12        -0.00036
       6 -> 16         0.00205
       6 -> 18         0.00097
       6 -> 23        -0.00102
       6 -> 24        -0.00026
       6 -> 29         0.00030
       6 -> 35        -0.00029
       6 -> 42        -0.00026
       6 -> 47        -0.00025
       6 -> 53        -0.00014
       7 -> 36         0.00026
       7 -> 46        -0.00061
       8 ->  9         0.11536
       8 -> 13         0.69721
       8 -> 17         0.00305
       8 -> 22         0.02170
       8 -> 28        -0.00110
       8 -> 31        -0.00133
       8 -> 37         0.00052
       8 -> 43         0.00012
       8 -> 49         0.00018
       8 -> 52        -0.00036
       3 <- 27        -0.00069
       3 <- 36        -0.00086
       3 <- 46        -0.00068
       4 <- 27        -0.00089
       4 <- 46         0.00022
       5 <-  9        -0.00028
       5 <- 17         0.00061
       5 <- 22        -0.00011
       5 <- 31         0.00013
       5 <- 37        -0.00058
       5 <- 43        -0.00015
       6 <- 12        -0.00056
       6 <- 16         0.00052
       6 <- 18         0.00061
       6 <- 23        -0.00207
       6 <- 33         0.00062
       6 <- 35        -0.00111
       6 <- 40         0.00012
       6 <- 42        -0.00060
       6 <- 53        -0.00029
       7 <- 27        -0.00028
       7 <- 36         0.00025
       7 <- 46        -0.00028
       8 <-  9         0.00552
       8 <- 13         0.00033
       8 <- 17         0.00049
       8 <- 22        -0.00044
       8 <- 28         0.00018
       8 <- 31        -0.00061
       8 <- 37         0.00065
       8 <- 52        -0.00015

 Excited State   6:      Singlet-B2    10.0889 eV  122.89 nm  f=0.2663  <S**2>=0.000
       3 -> 12        -0.00041
       3 -> 16         0.00183
       3 -> 18        -0.00036
       3 -> 23         0.00140
       3 -> 24         0.00074

 The electronic state is 1-A1.
 Alpha  occ. eigenvalues --  -19.13817 -10.24066  -1.22999  -0.60588  -0.57780
 Alpha  occ. eigenvalues --   -0.52156  -0.50663  -0.25276
 Alpha virt. eigenvalues --    0.00250   0.01360   0.04321   0.04400   0.07944
 Alpha virt. eigenvalues --    0.13995   0.17900   0.20401   0.21949   0.22658
 Alpha virt. eigenvalues --    0.26599   0.36082   0.49716   0.51944   0.52030

 Mulliken charges:
               1
     1  C    0.150467
     2  H    0.028616
     3  H    0.028616
     4  O   -0.207699
 Sum of Mulliken charges =   0.00000

 Dipole moment (field-independent basis, Debye):
    X=              0.0000    Y=              0.0000    Z=             -1.0129  Tot=              1.0129
 Quadrupole moment (field-independent basis, Debye-Ang):
   XX=            -10.9821   YY=            -12.1195   ZZ=            -13.0617
   XY=             -0.0000   XZ=             -0.0000   YZ=              0.0000

 Normal termination of Gaussian 16 at Fri Sep 17 10:52:33 2021.
