 Gaussian 16, Revision A.03,
 Gaussian 16:  ES64L-G16RevA.03 25-Dec-2016

 --------------------------------------------------------------------
 #p B3LYP/6-311+G** #p TD=(singlets,nstates=30)IOp(6/8=3) IOp(9/40=4)
 --------------------------------------------------------------------

 ---------------------------------------------
 Scan Step 143, Bond Length 1.2149999999999999
 ---------------------------------------------
 Symbolic Z-matrix:
 Charge =  0 Multiplicity = 1

                         Standard orientation:
 ---------------------------------------------------------------------
 Center     Atomic      Atomic             Coordinates (Angstroms)
 Number     Number       Type             X           Y           Z
 ---------------------------------------------------------------------
      1          6           0        0.000000    0.000000   -0.533581
      2          1           0        0.000000    0.937260   -1.124931
      3          1           0       -0.000000   -0.937260   -1.124931
      4          8           0        0.000000   -0.000000    0.681419
 ---------------------------------------------------------------------

 SCF Done:  E(RB3LYP) =  -114.541469865     A.U. after    9 cycles

 Excitation energies and oscillator strengths:

 Excited State   1:      Singlet-A2     3.8845 eV  319.17 nm  f=0.0000  <S**2>=0.000
       3 -> 27         0.00246
       3 -> 38         0.00208
       3 -> 45         0.00250
       4 -> 27         0.00190
       4 -> 38        -0.00055
       4 -> 45        -0.00130
       5 ->  9         0.02095
       5 -> 13        -0.00312
       5 -> 17         0.00562
       5 -> 23        -0.00019
       5 -> 29         0.00437
       5 -> 31        -0.00226
       5 -> 37         0.00340
       5 -> 44         0.00062
       5 -> 47         0.00015
       5 -> 52         0.00077
       6 -> 27        -0.00012
       6 -> 38        -0.00084
       6 -> 45         0.00178
       7 -> 12        -0.00062
       7 -> 15         0.00284
       7 -> 18        -0.00279
       7 -> 22         0.00070
       7 -> 25         0.00142
       7 -> 30        -0.00092
       7 -> 33         0.00043
       7 -> 35        -0.00027
       7 -> 40         0.00024
       7 -> 42        -0.00010
       7 -> 49         0.00035
       7 -> 50         0.00032
       7 -> 53         0.00046
       8 ->  9         0.70543
       8 -> 13        -0.04314
       8 -> 17         0.02307
       8 -> 23        -0.01026
       8 -> 29         0.00910
       8 -> 31        -0.00256
       8 -> 37        -0.00013
       8 -> 44        -0.00012
       8 -> 47        -0.00025
       8 -> 52         0.00168
       3 <- 27         0.00159
       3 <- 38         0.00172
       3 <- 45         0.00259
       4 <- 27         0.00272
       4 <- 45        -0.00111
       5 <-  9        -0.00041
       5 <- 13        -0.00083
       5 <- 17        -0.00098
       5 <- 23         0.00054
       5 <- 29        -0.00067
       5 <- 31         0.00089
       5 <- 37         0.00162
       5 <- 44         0.00026
       5 <- 47         0.00016
       5 <- 52         0.00020
       6 <- 27         0.00045
       6 <- 38        -0.00075
       6 <- 45         0.00139
       7 <- 12        -0.00079
       7 <- 15        -0.00722
       7 <- 18         0.00028
       7 <- 22         0.00732
       7 <- 25        -0.00014
       7 <- 30         0.00342
       7 <- 33        -0.00131
       7 <- 35        -0.00239
       7 <- 40         0.00098
       7 <- 42         0.00011
       7 <- 49         0.00015
       7 <- 50         0.00021
       7 <- 53         0.00128
       8 <-  9        -0.02432
       8 <- 13         0.00305
       8 <- 17        -0.00435
       8 <- 23         0.00080
       8 <- 29        -0.00097
       8 <- 31        -0.00085
       8 <- 37        -0.00145
       8 <- 52         0.00048
 This state for optimization and/or second-order correction.
 Total Energy, E(TD-HF/TD-DFT) =  -114.398716151
 Copying the excited state density for this state as the 1-particle RhoCI density.

 Excited State   2:      Singlet-B2     6.8698 eV  180.48 nm  f=0.0294  <S**2>=0.000
       3 -> 12         0.00150
       3 -> 15         0.00071
       3 -> 18         0.00118
       3 -> 22        -0.00031
       3 -> 25         0.00128
       3 -> 33         0.00019
       3 -> 35         0.00040
       4 -> 12        -0.00316
       4 -> 15         0.00183
       4 -> 18         0.00207
       4 -> 22        -0.00332
       4 -> 25         0.00336
       4 -> 30         0.00029
       4 -> 33        -0.00051
       4 -> 35        -0.00061
       4 -> 40         0.00046
       4 -> 42        -0.00011
       5 -> 10        -0.00672
       5 -> 11        -0.00862
       5 -> 14         0.00700
       5 -> 16        -0.00084
       5 -> 19         0.00026
       5 -> 20         0.00226
       5 -> 21         0.00580
       5 -> 26         0.00248
       5 -> 28         0.00121
       5 -> 32        -0.00090
       5 -> 34        -0.00101
       5 -> 36        -0.00020
       5 -> 39        -0.00030
       5 -> 41        -0.00035
       5 -> 43        -0.00054
       5 -> 46        -0.00034
       5 -> 54         0.00012
       6 -> 15         0.00151
       6 -> 18         0.00209
       6 -> 22        -0.00253
       6 -> 25         0.00118
       6 -> 30        -0.00051
       6 -> 33        -0.00022
       6 -> 35        -0.00037
       6 -> 40        -0.00014
       6 -> 42        -0.00019
       6 -> 49         0.00047
       6 -> 50        -0.00032
       7 -> 27         0.00018
       7 -> 38        -0.00056
       7 -> 45         0.00043
       8 -> 10         0.70302
       8 -> 11        -0.07079
       8 -> 14         0.01371
       8 -> 16        -0.00618
       8 -> 19         0.01085
       8 -> 20         0.01475
       8 -> 21        -0.00301
       8 -> 24         0.00018
       8 -> 26         0.00244
       8 -> 28         0.00075
       8 -> 32         0.00100
       8 -> 34         0.00125
       8 -> 36         0.00039
       8 -> 39         0.00038
       8 -> 41        -0.00018
       8 -> 43         0.00062
       8 -> 46        -0.00061
       8 -> 48        -0.00014
       8 -> 54         0.00019
       3 <- 12         0.00036
       3 <- 15         0.00054
       3 <- 18         0.00045
       3 <- 22        -0.00046
       3 <- 25         0.00075
       3 <- 30        -0.00011
       3 <- 33         0.00017
       3 <- 35         0.00037
       3 <- 40        -0.00012
       4 <- 12         0.00074
       4 <- 15         0.00191
       4 <- 18         0.00200
       4 <- 22        -0.00204
       4 <- 25         0.00231
       4 <- 30         0.00022
       4 <- 33        -0.00029
       4 <- 35        -0.00034
       4 <- 40         0.00014
       4 <- 42        -0.00023
       4 <- 50        -0.00012
       5 <- 10         0.00239
       5 <- 11        -0.00025
       5 <- 14         0.00485
       5 <- 16        -0.00073
       5 <- 20         0.00081
       5 <- 21         0.00210
       5 <- 24         0.00191
       5 <- 26         0.00154
       5 <- 28         0.00017
       5 <- 32        -0.00062
       5 <- 34        -0.00096
       5 <- 36        -0.00028
       5 <- 39        -0.00016
       5 <- 41        -0.00017
       5 <- 43        -0.00041
       5 <- 46        -0.00030
       6 <- 12         0.00010
       6 <- 18         0.00118
       6 <- 22        -0.00071
       6 <- 25         0.00041
       6 <- 30         0.00030
       6 <- 33        -0.00028
       6 <- 35        -0.00047
       6 <- 40        -0.00014
       6 <- 42        -0.00018
       6 <- 49         0.00039
       6 <- 50        -0.00033
       6 <- 53         0.00014
       7 <- 27         0.00016
       7 <- 38        -0.00042
       7 <- 45         0.00038
       8 <- 10        -0.00177
       8 <- 11        -0.00052
       8 <- 14        -0.00545
       8 <- 16        -0.00040
       8 <- 19        -0.00013
       8 <- 20        -0.00058
       8 <- 21        -0.00189
       8 <- 24        -0.00228
       8 <- 26        -0.00068
       8 <- 28        -0.00056
       8 <- 32         0.00109
       8 <- 34         0.00029
       8 <- 36         0.00036
       8 <- 39         0.00030
       8 <- 43         0.00042
       8 <- 46        -0.00039

 Excited State   3:      Singlet-B2     7.6514 eV  162.04 nm  f=0.0257  <S**2>=0.000
       3 -> 12        -0.00031
       3 -> 15        -0.00081
       3 -> 18         0.00088
       3 -> 22         0.00043
       3 -> 25         0.00014
       3 -> 30         0.00216
       3 -> 33         0.00014
       3 -> 35         0.00049
       3 -> 40        -0.00044
       3 -> 49         0.00047
       3 -> 50        -0.00022
       4 -> 12         0.00271
       4 -> 18         0.00235
       4 -> 22        -0.00149
       4 -> 25         0.00298
       4 -> 30        -0.00126
       4 -> 33         0.00050
       4 -> 35         0.00054
       4 -> 42        -0.00013
       4 -> 49         0.00024
       5 -> 10        -0.00700
       5 -> 11        -0.00012
       5 -> 14         0.00871
       5 -> 16        -0.00711
       5 -> 19        -0.00212
       5 -> 20        -0.00458
       5 -> 21         0.00163
       5 -> 24         0.00107
       5 -> 26         0.00106
       5 -> 28         0.00161
       5 -> 32        -0.00021
       5 -> 34        -0.00110
       5 -> 36        -0.00027
       5 -> 39         0.00041
       5 -> 41        -0.00074
       5 -> 43         0.00014
       5 -> 46         0.00089
       5 -> 51        -0.00041
       6 -> 12        -0.00306
       6 -> 15        -0.00173
       6 -> 18        -0.00088
       6 -> 22         0.00127
       6 -> 25         0.00015
       6 -> 30         0.00101
       6 -> 33        -0.00054
       6 -> 35        -0.00149
       6 -> 40         0.00105
       6 -> 49        -0.00114
       6 -> 50         0.00043
       6 -> 53         0.00011
       7 -> 38        -0.00092
       7 -> 45        -0.00179
       8 -> 10         0.07119
       8 -> 11         0.70258
       8 -> 14        -0.00562
       8 -> 16         0.01051
       8 -> 19        -0.03053
       8 -> 20         0.00587
       8 -> 21        -0.00288
       8 -> 24         0.00032
       8 -> 26        -0.00124
       8 -> 28         0.00123
       8 -> 32         0.00020
       8 -> 34        -0.00020
       8 -> 36        -0.00012
       8 -> 39        -0.00022
       8 -> 41        -0.00121
       8 -> 43         0.00032
       8 -> 46         0.00197
       8 -> 48         0.00013
       8 -> 51        -0.00097
       8 -> 54        -0.00010
       3 <- 12         0.00034
       3 <- 15        -0.00025
       3 <- 18         0.00092
       3 <- 25         0.00029
       3 <- 30         0.00121
       3 <- 33         0.00024
       3 <- 35         0.00053
       3 <- 40        -0.00041
       3 <- 49         0.00041
       3 <- 50        -0.00014
       3 <- 53        -0.00029
       4 <- 12         0.00033
       4 <- 15         0.00076
       4 <- 18         0.00056
       4 <- 22        -0.00115
       4 <- 25         0.00125
       4 <- 30        -0.00061
       4 <- 33         0.00046
       4 <- 35         0.00021
       4 <- 42        -0.00013
       4 <- 49         0.00018
       4 <- 50        -0.00011
       5 <- 10         0.00125
       5 <- 11        -0.00121
       5 <- 14         0.00261
       5 <- 16        -0.00043
       5 <- 19         0.00114
       5 <- 20        -0.00047
       5 <- 21         0.00076
       5 <- 24         0.00136
       5 <- 28         0.00070
       5 <- 32        -0.00102
       5 <- 34        -0.00011
       5 <- 36         0.00016
       5 <- 39         0.00011
       5 <- 41        -0.00077
       5 <- 46         0.00083
       5 <- 48         0.00014
       5 <- 51        -0.00030
       6 <- 12        -0.00031
       6 <- 15        -0.00076
       6 <- 18         0.00015
       6 <- 22         0.00074
       6 <- 25        -0.00012
       6 <- 30         0.00080
       6 <- 33        -0.00041
       6 <- 35        -0.00123
       6 <- 40         0.00080
       6 <- 49        -0.00093
       6 <- 50         0.00034
       7 <- 27         0.00023
       7 <- 38        -0.00073
       7 <- 45        -0.00150
       8 <- 10        -0.00071
       8 <- 11        -0.00100
       8 <- 14        -0.00368
       8 <- 16         0.00045
       8 <- 19         0.00438
       8 <- 20        -0.00084
       8 <- 21        -0.00201
       8 <- 24         0.00038
       8 <- 26        -0.00167
       8 <- 28         0.00036
       8 <- 32        -0.00115
       8 <- 34         0.00139
       8 <- 39        -0.00057
       8 <- 41        -0.00108
       8 <- 43         0.00016
       8 <- 46         0.00157
       8 <- 48         0.00026
       8 <- 51        -0.00066

 Excited State   4:      Singlet-A1     7.8572 eV  157.80 nm  f=0.0474  <S**2>=0.000
       3 -> 10         0.00200
       3 -> 11        -0.00074
       3 -> 14         0.00100
       3 -> 16        -0.00012
       3 -> 19        -0.00059
       3 -> 20         0.00202
       3 -> 21         0.00091
       3 -> 24        -0.00071
       3 -> 26         0.00122
       3 -> 28         0.00090
       3 -> 34        -0.00069
       3 -> 36        -0.00018
       3 -> 41        -0.00020
       3 -> 46         0.00016
       3 -> 48         0.00031
       3 -> 51        -0.00019
       3 -> 54        -0.00019
       4 -> 10         0.00478
       4 -> 11         0.00532
       4 -> 14         0.00471
       4 -> 16         0.00049
       4 -> 19         0.00022
       4 -> 20         0.00368
       4 -> 21         0.00027
       4 -> 24         0.00705
       4 -> 26         0.00187
       4 -> 28        -0.00036
       4 -> 32        -0.00064
       4 -> 43         0.00016
       4 -> 46        -0.00020
       4 -> 51        -0.00015
       5 -> 12         0.00599
       5 -> 15         0.00261
       5 -> 18         0.01004
       5 -> 22        -0.00238
       5 -> 25         0.00539
       5 -> 30        -0.00022
       5 -> 33        -0.00017
       5 -> 35        -0.00075
       5 -> 50         0.00021
       5 -> 53        -0.00013
       6 -> 10         0.01179
       6 -> 11        -0.00243
       6 -> 14         0.00433
       6 -> 16         0.00058
       6 -> 19         0.00197
       6 -> 20         0.00351
       6 -> 24         0.00393
       6 -> 26        -0.00016
       6 -> 28        -0.00198
       6 -> 32        -0.00037
       6 -> 39         0.00014
       6 -> 43         0.00014
       6 -> 48        -0.00068
       6 -> 51         0.00020
       6 -> 54        -0.00011
       7 ->  9         0.02196
       7 -> 13         0.01106
       7 -> 17         0.00194
       7 -> 23         0.00520
       7 -> 29        -0.00066
       7 -> 31        -0.00092
       7 -> 37         0.00058
       7 -> 44         0.00064
       7 -> 47        -0.00033
       7 -> 52        -0.00011
       8 -> 12         0.70570
       8 -> 15        -0.00499
       8 -> 18         0.03010
       8 -> 22         0.00379
       8 -> 25         0.00407
       8 -> 30        -0.00015
       8 -> 33         0.00161
       8 -> 35         0.00197
       8 -> 40         0.00052
       8 -> 42         0.00016
       8 -> 49        -0.00045
       8 -> 50         0.00027
       8 -> 53        -0.00024
       3 <- 10         0.00063
       3 <- 11         0.00013
       3 <- 14         0.00053
       3 <- 16         0.00011
       3 <- 19        -0.00047
       3 <- 20         0.00091
       3 <- 21         0.00062
       3 <- 24        -0.00015
       3 <- 26         0.00081
       3 <- 28         0.00060
       3 <- 32         0.00021
       3 <- 34        -0.00047
       3 <- 36        -0.00013
       3 <- 41        -0.00013
       3 <- 46         0.00024
       3 <- 48         0.00025
       3 <- 51        -0.00016
       3 <- 54        -0.00017
       4 <- 10         0.00413
       4 <- 11         0.00117
       4 <- 14         0.00348
       4 <- 20         0.00212
       4 <- 24         0.00382
       4 <- 26         0.00116
       4 <- 32        -0.00079
       4 <- 34        -0.00035
       4 <- 39        -0.00013
       4 <- 43         0.00012
       4 <- 46        -0.00016
       4 <- 51        -0.00013
       5 <- 12         0.00271
       5 <- 15         0.00271
       5 <- 18         0.00353
       5 <- 22        -0.00087
       5 <- 25         0.00292
       5 <- 30        -0.00015
       5 <- 33        -0.00035
       5 <- 35        -0.00069
       5 <- 50         0.00012
       5 <- 53        -0.00011
       6 <- 10         0.00286
       6 <- 14         0.00165
       6 <- 16         0.00014
       6 <- 19         0.00049
       6 <- 20         0.00161
       6 <- 21        -0.00017
       6 <- 24         0.00192
       6 <- 26         0.00012
       6 <- 28        -0.00129
       6 <- 32        -0.00040
       6 <- 34        -0.00013
       6 <- 41         0.00012
       6 <- 46        -0.00014
       6 <- 48        -0.00056
       6 <- 51         0.00023
       7 <-  9        -0.00024
       7 <- 13         0.00237
       7 <- 17         0.00031
       7 <- 23         0.00261
       7 <- 29        -0.00053
       7 <- 31        -0.00063
       7 <- 37         0.00045
       7 <- 44         0.00053
       7 <- 47        -0.00029
       8 <- 12        -0.00071
       8 <- 15        -0.00507
       8 <- 18        -0.00173
       8 <- 22         0.00057
       8 <- 25        -0.00158
       8 <- 30        -0.00079
       8 <- 33         0.00065
       8 <- 35         0.00080
       8 <- 40         0.00054
       8 <- 42         0.00016
       8 <- 49        -0.00046
       8 <- 50         0.00018
       8 <- 53        -0.00024

 Excited State   5:      Singlet-A2     8.3667 eV  148.19 nm  f=0.0000  <S**2>=0.000
       3 -> 27        -0.00043
       3 -> 38        -0.00039
       3 -> 45        -0.00020
       4 -> 27         0.00019
       4 -> 38         0.00047
       5 ->  9        -0.00493
       5 -> 13        -0.00495
       5 -> 17         0.00663
       5 -> 23        -0.00208
       5 -> 29        -0.00018
       5 -> 31         0.00138
       5 -> 37        -0.00092
       5 -> 44        -0.00019
       6 -> 27         0.00023
       6 -> 38         0.00029
       6 -> 45        -0.00021
       7 -> 12        -0.00014
       7 -> 15        -0.00190
       7 -> 18         0.00202
       7 -> 22        -0.00070
       7 -> 35         0.00013
       7 -> 40        -0.00010
       8 ->  9         0.04275
       8 -> 13         0.70524
       8 -> 17         0.02070
       8 -> 23         0.01648
       8 -> 29         0.00022
       8 -> 31         0.00164
       8 -> 37        -0.00036
       8 -> 47         0.00017
       3 <- 27        -0.00012
       3 <- 38        -0.00024
       3 <- 45        -0.00028
       4 <- 27        -0.00010
       5 <-  9        -0.00035
       5 <- 13        -0.00033
       5 <- 17         0.00050
       5 <- 37        -0.00019
       6 <- 38         0.00019
       7 <- 12        -0.00058
       7 <- 15        -0.00103
       7 <- 18         0.00076
       7 <- 22        -0.00090
       7 <- 25        -0.00042
       7 <- 30         0.00023
       7 <- 33         0.00036
       7 <- 35         0.00057
       7 <- 40        -0.00035
       8 <-  9         0.00156
       8 <- 13         0.00127
       8 <- 17         0.00024
       8 <- 23        -0.00014
       8 <- 37         0.00012

 Excited State   6:      Singlet-B1     8.9500 eV  138.53 nm  f=0.0010  <S**2>=0.000
       3 ->  9        -0.03283
       3 -> 13         0.00594
       3 -> 17        -0.00734
       3 -> 23         0.00449
       3 -> 29        -0.00290
       3 -> 44         0.00072
       3 -> 52         0.00112
       4 ->  9         0.01699
       4 -> 13        -0.00281
       4 -> 17         0.00107
       4 -> 23        -0.00248
       4 -> 31        -0.00275
       4 -> 37        -0.00034
       4 -> 44        -0.00013
       4 -> 47        -0.00167
       4 -> 52        -0.00101
       5 -> 27        -0.00190

 The electronic state is 1-A1.
 Alpha  occ. eigenvalues --  -19.15189 -10.28103  -1.06979  -0.64742  -0.50510
 Alpha  occ. eigenvalues --   -0.46323  -0.41017  -0.28275
 Alpha virt. eigenvalues --   -0.06778   0.00741   0.03896   0.04255   0.06447
 Alpha virt. eigenvalues --    0.12868   0.17673   0.18603   0.21969   0.23247
 Alpha virt. eigenvalues --    0.26789   0.32590   0.45254   0.46290   0.50930

 Mulliken charges:
               1
     1  C    0.015628
     2  H    0.114932
     3  H    0.114932
     4  O   -0.245492
 Sum of Mulliken charges =   0.00000

 Dipole moment (field-independent basis, Debye):
    X=             -0.0000    Y=             -0.0000    Z=             -2.5391  Tot=              2.5391
 Quadrupole moment (field-independent basis, Debye-Ang):
   XX=            -11.7883   YY=            -11.7376   ZZ=            -12.4068
   XY=              0.0000   XZ=              0.0000   YZ=              0.0000

 Normal termination of Gaussian 16 at Fri Sep 17 10:52:43 2021.
