 Gaussian 16, Revision C.01,
 Gaussian 16:  ES64L-G16RevC.01  3-Jul-2019

 ----------------------------------------
 #P wB97XD/6-311+G* NoSymm #P Field=X-252
 ----------------------------------------

 -------
 TitleMe
 -------
 Symbolic Z-matrix:
 Charge =  1 Multiplicity = 1

                          Input orientation:
 ---------------------------------------------------------------------
 Center     Atomic      Atomic             Coordinates (Angstroms)
 Number     Number       Type             X           Y           Z
 ---------------------------------------------------------------------
      1          6           0        0.029500    1.339700    0.068200
      2          6           0        1.434800    1.286700    0.006400
      3          6           0        2.111800    0.051100   -0.005400
      4          6           0        1.445100   -1.137200    0.031200
      5          6           0       -0.687900    0.168200    0.110000
      6          1           0       -0.471300    2.298400    0.078100
      7          1           0        2.027300    2.196500   -0.032200
      8          1           0        1.989700   -2.076400    0.023200
      9          1           0       -1.771600    0.180400    0.158200
     10          7           0        3.586400    0.051000   -0.067500
     11          8           0        4.147100   -1.059700   -0.088100
     12          8           0        4.145000    1.163900   -0.090100
     13          6           0       -0.023600   -1.145800    0.083500
     14          1           0       -0.436700   -1.872500    0.788900
     15         35           0       -0.535900   -1.869700   -1.740800
 ---------------------------------------------------------------------

 SCF Done:  E(RwB97XD) =  -3010.56546626     A.U. after   30 cycles

 Alpha  occ. eigenvalues -- -483.29618 -62.84674 -56.64314 -56.63820 -56.63811
 Alpha  occ. eigenvalues --  -19.34060 -19.34014 -14.73376 -10.56122 -10.53844
 Alpha  occ. eigenvalues --  -10.52502 -10.51603 -10.50855 -10.50602  -9.00503
 Alpha  occ. eigenvalues --   -6.83032  -6.81399  -6.81368  -2.92971  -2.92539
 Alpha  occ. eigenvalues --   -2.92513  -2.91206  -2.91206  -1.37546  -1.20419
 Alpha  occ. eigenvalues --   -1.18704  -1.10098  -1.07444  -1.01804  -0.94483
 Alpha  occ. eigenvalues --   -0.91478  -0.85850  -0.80462  -0.76107  -0.75112
 Alpha  occ. eigenvalues --   -0.72719  -0.70770  -0.69644  -0.67487  -0.65197
 Alpha  occ. eigenvalues --   -0.64719  -0.62089  -0.59956  -0.57003  -0.55353
 Alpha  occ. eigenvalues --   -0.52255  -0.44513  -0.42979  -0.42812
 Alpha virt. eigenvalues --   -0.26244  -0.17348  -0.14508  -0.13353  -0.12439
 Alpha virt. eigenvalues --   -0.10156  -0.08470  -0.06225  -0.04301  -0.03951
 Alpha virt. eigenvalues --   -0.02993  -0.01458  -0.00255   0.00387   0.01043

 Mulliken charges:
               1
     1  C   -0.496351
     2  C    0.358645
     3  C   -0.580954
     4  C    0.317606
     5  C   -0.039116
     6  H    0.279620
     7  H    0.406989
     8  H    0.408455
     9  H    0.226599
    10  N   -0.130909
    11  O    0.165922
    12  O    0.164192
    13  C   -0.480047
    14  H    0.361996
    15  Br   0.037356
 Sum of Mulliken charges =   1.00000

 Dipole moment (field-independent basis, Debye):
    X=              7.2977    Y=              0.2794    Z=              0.6055  Tot=              7.3281
 Quadrupole moment (field-independent basis, Debye-Ang):
   XX=            -52.0879   YY=            -53.1584   ZZ=            -64.8287
   XY=             -0.1771   XZ=             -0.9965   YZ=             -0.1566

 Normal termination of Gaussian 16 at Wed May  1 14:58:09 2024.
