 Gaussian 16, Revision A.03,
 Gaussian 16:  ES64L-G16RevA.03 25-Dec-2016

 --------------------------------------------------------------------
 #p B3LYP/6-311+G** #p TD=(singlets,nstates=30)IOp(6/8=3) IOp(9/40=4)
 --------------------------------------------------------------------

 --------------------------------
 Scan Step 265, Bond Length 1.825
 --------------------------------
 Symbolic Z-matrix:
 Charge =  0 Multiplicity = 1

                         Standard orientation:
 ---------------------------------------------------------------------
 Center     Atomic      Atomic             Coordinates (Angstroms)
 Number     Number       Type             X           Y           Z
 ---------------------------------------------------------------------
      1          6           0        0.000000    0.000000   -0.838581
      2          1           0        0.000000    0.937260   -1.429931
      3          1           0       -0.000000   -0.937260   -1.429931
      4          8           0        0.000000   -0.000000    0.986419
 ---------------------------------------------------------------------

 SCF Done:  E(RB3LYP) =  -114.348386592     A.U. after   11 cycles

 Excitation energies and oscillator strengths:

 Excited State   1:      Singlet-A2     1.3070 eV  948.63 nm  f=0.0000  <S**2>=0.000
       3 -> 27         0.00073
       3 -> 38         0.00046
       3 -> 46         0.00334
       4 -> 27         0.00039
       4 -> 46        -0.00098
       5 ->  9         0.00186
       5 -> 13         0.00111
       5 -> 18         0.00174
       5 -> 23         0.00138
       5 -> 28         0.00135
       5 -> 37         0.00076
       5 -> 44         0.00021
       5 -> 52         0.00018
       6 -> 27        -0.00058
       6 -> 38        -0.00057
       6 -> 46         0.00096
       7 -> 12        -0.00126
       7 -> 16         0.00529
       7 -> 19        -0.00466
       7 -> 22        -0.00111
       7 -> 25        -0.00058
       7 -> 29        -0.00190
       7 -> 33         0.00028
       7 -> 49         0.00013
       7 -> 53         0.00038
       8 ->  9         0.71074
       8 -> 13        -0.00700
       8 -> 18         0.02085
       8 -> 23        -0.00103
       8 -> 28         0.01033
       8 -> 31         0.00160
       8 -> 37         0.00049
       8 -> 48        -0.00030
       8 -> 52         0.00186
       3 <- 27         0.00021
       3 <- 38         0.00023
       3 <- 46         0.00337
       4 <- 27         0.00073
       4 <- 38         0.00019
       4 <- 46        -0.00076
       5 <-  9         0.00033
       5 <- 13        -0.00034
       5 <- 18        -0.00039
       5 <- 23         0.00017
       5 <- 28        -0.00029
       5 <- 31         0.00022
       5 <- 37         0.00044
       6 <- 38        -0.00044
       6 <- 46         0.00070
       7 <- 12         0.00176
       7 <- 16        -0.01054
       7 <- 19         0.00551
       7 <- 22         0.00578
       7 <- 25        -0.00063
       7 <- 29         0.00561
       7 <- 33        -0.00035
       7 <- 35         0.00018
       7 <- 40        -0.00012
       7 <- 42        -0.00012
       7 <- 49        -0.00048
       7 <- 53         0.00145
       8 <-  9        -0.07438
       8 <- 13        -0.00040
       8 <- 18        -0.00769
       8 <- 23        -0.00031
       8 <- 28        -0.00275
       8 <- 31        -0.00081
       8 <- 37        -0.00021
       8 <- 48         0.00013
       8 <- 52         0.00044
 This state for optimization and/or second-order correction.
 Total Energy, E(TD-HF/TD-DFT) =  -114.300356070
 Copying the excited state density for this state as the 1-particle RhoCI density.

 Excited State   2:      Singlet-A1     3.4389 eV  360.53 nm  f=0.0323  <S**2>=0.000
       3 -> 10        -0.01494
       3 -> 11        -0.00332
       3 -> 14         0.00165
       3 -> 15         0.00052
       3 -> 17        -0.00309
       3 -> 20        -0.00358
       3 -> 21         0.00040
       3 -> 24         0.00059
       3 -> 26         0.00143
       3 -> 30        -0.00066
       3 -> 32         0.00277
       3 -> 34        -0.00111
       3 -> 36        -0.00100
       3 -> 39        -0.00044
       3 -> 43         0.00052
       3 -> 45        -0.00095
       3 -> 47         0.00231
       3 -> 50         0.00153
       4 -> 10        -0.00186
       4 -> 11         0.01064
       4 -> 14         0.00198
       4 -> 15        -0.00787
       4 -> 17         0.00227
       4 -> 20         0.00225
       4 -> 21         0.00028
       4 -> 24        -0.00384
       4 -> 26         0.00339
       4 -> 30         0.00038
       4 -> 32        -0.00125
       4 -> 34         0.00082
       4 -> 36         0.00015
       4 -> 39        -0.00019
       4 -> 43        -0.00047
       4 -> 45         0.00078
       4 -> 47        -0.00079
       4 -> 50        -0.00028
       4 -> 54         0.00015
       5 -> 12         0.00996
       5 -> 16         0.00298
       5 -> 19         0.00118
       5 -> 22         0.00689
       5 -> 25        -0.00477
       5 -> 29         0.00033
       5 -> 33        -0.00245
       5 -> 35         0.00274
       5 -> 40        -0.00102
       5 -> 42        -0.00097
       5 -> 49         0.00016
       5 -> 51        -0.00085
       6 -> 10         0.24801
       6 -> 11         0.03940
       6 -> 14        -0.04454
       6 -> 15        -0.02416
       6 -> 17        -0.01598
       6 -> 20        -0.00189
       6 -> 21         0.00580
       6 -> 24        -0.00820
       6 -> 26        -0.00334
       6 -> 30        -0.00438
       6 -> 32         0.00386
       6 -> 34        -0.00138
       6 -> 36         0.00045
       6 -> 39        -0.00133
       6 -> 41        -0.00012
       6 -> 43         0.00083
       6 -> 45        -0.00087
       6 -> 47         0.00081
       6 -> 50         0.00057
       6 -> 54        -0.00095
       7 ->  9         0.67637
       7 -> 13        -0.00667
       7 -> 18        -0.01074
       7 -> 23        -0.00254
       7 -> 28         0.00114
       7 -> 31        -0.00328
       7 -> 37         0.00131
       7 -> 44        -0.00097
       7 -> 52         0.00106
       8 -> 12        -0.00757
       8 -> 16         0.03789
       8 -> 19        -0.01879
       8 -> 22        -0.01317
       8 -> 29        -0.00817
       8 -> 33         0.00101
       8 -> 35        -0.00078
       8 -> 40         0.00030
       8 -> 42         0.00027
       8 -> 49         0.00013
       8 -> 51         0.00015
       8 -> 53        -0.00051
       3 <- 10        -0.01169
       3 <- 11        -0.00295
       3 <- 14         0.00138
       3 <- 17        -0.00177
       3 <- 20        -0.00307
       3 <- 26         0.00049
       3 <- 30        -0.00022
       3 <- 32         0.00242
       3 <- 34        -0.00058
       3 <- 36        -0.00100
       3 <- 39        -0.00039
       3 <- 43         0.00058
       3 <- 45        -0.00108
       3 <- 47         0.00232
       3 <- 50         0.00154
       4 <- 11         0.00774
       4 <- 14         0.00150
       4 <- 15        -0.00537
       4 <- 17         0.00136
       4 <- 20         0.00268
       4 <- 21         0.00011
       4 <- 24        -0.00292
       4 <- 26         0.00298
       4 <- 30        -0.00021
       4 <- 32        -0.00133
       4 <- 34         0.00069
       4 <- 36         0.00043
       4 <- 39        -0.00021
       4 <- 43        -0.00043
       4 <- 45         0.00073
       4 <- 47        -0.00048
       4 <- 50        -0.00015
       4 <- 54         0.00012
       5 <- 12         0.00593
       5 <- 16         0.00196
       5 <- 19         0.00094
       5 <- 22         0.00494
       5 <- 25        -0.00371
       5 <- 29         0.00035
       5 <- 33        -0.00204
       5 <- 35         0.00236
       5 <- 40        -0.00093
       5 <- 42        -0.00086
       5 <- 49         0.00015
       5 <- 51        -0.00080
       6 <- 10         0.08452
       6 <- 11         0.01625
       6 <- 14        -0.02146
       6 <- 15        -0.01282
       6 <- 17        -0.00958
       6 <- 20        -0.00247
       6 <- 21         0.00402
       6 <- 24        -0.00542
       6 <- 26        -0.00173
       6 <- 30        -0.00291
       6 <- 32         0.00379
       6 <- 34        -0.00156
       6 <- 39        -0.00121
       6 <- 41        -0.00012
       6 <- 43         0.00068
       6 <- 45        -0.00064
       6 <- 47         0.00046
       6 <- 50         0.00044
       6 <- 54        -0.00087
       7 <-  9        -0.13093
       7 <- 13         0.00355
       7 <- 18        -0.01146
       7 <- 23         0.00090
       7 <- 28        -0.00179
       7 <- 31        -0.00159
       7 <- 37         0.00062
       7 <- 44        -0.00078
       7 <- 48        -0.00041
       7 <- 52         0.00097
       8 <- 12        -0.00306
       8 <- 16         0.01880
       8 <- 19        -0.01076
       8 <- 22        -0.00867
       8 <- 25         0.00013
       8 <- 29        -0.00654
       8 <- 33         0.00080
       8 <- 35        -0.00061
       8 <- 40         0.00024
       8 <- 42         0.00021
       8 <- 51         0.00013
       8 <- 53        -0.00048

 Excited State   3:      Singlet-B2     3.7941 eV  326.78 nm  f=0.0027  <S**2>=0.000
       3 -> 12        -0.00124
       3 -> 16         0.00135
       3 -> 19        -0.00401
       3 -> 22         0.00104
       3 -> 25        -0.00086
       3 -> 29        -0.00267
       3 -> 33         0.00020
       3 -> 35         0.00149
       3 -> 40        -0.00135
       3 -> 42        -0.00051
       3 -> 49        -0.00381
       3 -> 51         0.00017
       3 -> 53         0.00028
       4 -> 12         0.00040
       4 -> 16        -0.00156
       4 -> 19         0.00039
       4 -> 22         0.00186
       4 -> 25         0.00070
       4 -> 29         0.00095
       4 -> 33        -0.00035
       4 -> 35         0.00044
       4 -> 40         0.00030
       4 -> 42         0.00012
       4 -> 49         0.00072
       4 -> 51        -0.00010
       5 -> 10         0.01032
       5 -> 11         0.00145
       5 -> 14        -0.00381
       5 -> 15         0.00334
       5 -> 17        -0.00049
       5 -> 20         0.00200
       5 -> 21         0.00330
       5 -> 24         0.00147
       5 -> 26        -0.00061
       5 -> 30        -0.00208
       5 -> 32        -0.00142
       5 -> 34         0.00031
       5 -> 39         0.00070
       5 -> 41         0.00044
       5 -> 47        -0.00043
       5 -> 50         0.00028
       5 -> 54        -0.00020
       6 -> 12         0.00251
       6 -> 16        -0.00270
       6 -> 19         0.00409
       6 -> 22        -0.00060
       6 -> 25         0.00112
       6 -> 33        -0.00010
       6 -> 35        -0.00132
       6 -> 40         0.00090
       6 -> 42         0.00067
       6 -> 49         0.00128
       6 -> 53        -0.00045
       7 -> 27        -0.00056
       7 -> 38         0.00037
       7 -> 46         0.00315
       8 -> 10         0.70198
       8 -> 11         0.06535
       8 -> 14        -0.05993
       8 -> 15        -0.02397
       8 -> 17        -0.01648
       8 -> 20         0.00443
       8 -> 21         0.00627
       8 -> 24        -0.00600
       8 -> 26        -0.00460
       8 -> 30        -0.01285
       8 -> 32        -0.00192
       8 -> 34         0.00127
       8 -> 36         0.00132
       8 -> 39         0.00057
       8 -> 41        -0.00015
       8 -> 45        -0.00086
       8 -> 47        -0.00389
       8 -> 50         0.00154
       8 -> 54        -0.00241
       3 <- 12        -0.00044
       3 <- 16         0.00046
       3 <- 19        -0.00197
       3 <- 22         0.00094
       3 <- 25        -0.00078
       3 <- 29        -0.00108
       3 <- 33         0.00020
       3 <- 35         0.00101
       3 <- 40        -0.00117
       3 <- 42        -0.00037
       3 <- 49        -0.00387
       3 <- 51         0.00017
       3 <- 53         0.00075
       4 <- 16        -0.00175
       4 <- 19         0.00018
       4 <- 22         0.00215
       4 <- 25         0.00040
       4 <- 29         0.00116
       4 <- 33        -0.00037
       4 <- 35         0.00064
       4 <- 40         0.00012
       4 <- 49         0.00051
       5 <- 10        -0.00091
       5 <- 11        -0.00072
       5 <- 14        -0.00050
       5 <- 15         0.00261
       5 <- 17         0.00020
       5 <- 20         0.00077
       5 <- 21         0.00170
       5 <- 24         0.00169
       5 <- 26        -0.00015
       5 <- 30        -0.00044
       5 <- 32        -0.00031
       5 <- 39         0.00031
       5 <- 41         0.00047
       5 <- 45        -0.00024
       5 <- 47        -0.00043
       5 <- 50         0.00015
       6 <- 12        -0.00070
       6 <- 16         0.00760
       6 <- 19        -0.00401
       6 <- 22        -0.00513
       6 <- 25         0.00117
       6 <- 29        -0.00602
       6 <- 33         0.00024
       6 <- 35        -0.00117
       6 <- 40         0.00091
       6 <- 42         0.00070
       6 <- 49         0.00175
       6 <- 53        -0.00140
       7 <- 27        -0.00056
       7 <- 38         0.00030
       7 <- 46         0.00271
       8 <- 10        -0.04092
       8 <- 11        -0.00764
       8 <- 14         0.00798
       8 <- 15         0.00228
       8 <- 17         0.00181
       8 <- 20        -0.00318
       8 <- 21        -0.00143
       8 <- 24         0.00156
       8 <- 26         0.00129
       8 <- 30         0.00135
       8 <- 32         0.00294
       8 <- 34        -0.00088
       8 <- 36        -0.00076
       8 <- 39        -0.00115
       8 <- 41         0.00024
       8 <- 43         0.00044
       8 <- 45        -0.00162
       8 <- 47        -0.00320
       8 <- 50         0.00121
       8 <- 54        -0.00065

 Excited State   4:      Singlet-B1     3.9065 eV  317.38 nm  f=0.0003  <S**2>=0.000
       3 ->  9        -0.02331
       3 -> 13         0.00088
       3 -> 18        -0.00376
       3 -> 23         0.00125
       3 -> 28        -0.00096
       3 -> 31        -0.00076
       3 -> 37         0.00015
       3 -> 44         0.00034
       3 -> 48         0.00032
       3 -> 52         0.00072
       4 ->  9         0.00660
       4 -> 13        -0.00157
       4 -> 18         0.00015
       4 -> 23        -0.00142
       4 -> 28         0.00054
       4 -> 31        -0.00119
       4 -> 37        -0.00025
       4 -> 48        -0.00049
       4 -> 52        -0.00030
       5 -> 27        -0.00033
       5 -> 38         0.00145
       5 -> 46         0.00046
       6 ->  9         0.65723
       6 -> 13        -0.01660
       6 -> 18         0.01400
       6 -> 23        -0.00996
       6 -> 28         0.00362
       6 -> 31         0.00204
       6 -> 37        -0.00138
       6 -> 44        -0.00175
       6 -> 48         0.00331
       6 -> 52         0.00093
       7 -> 10         0.26413
       7 -> 11         0.02799
       7 -> 14        -0.02689
       7 -> 15        -0.00948
       7 -> 17        -0.01026
       7 -> 20         0.00382
       7 -> 21         0.00184
       7 -> 24        -0.00320
       7 -> 26        -0.00315
       7 -> 30        -0.00517
       7 -> 32         0.00025
       7 -> 34        -0.00042
       7 -> 36         0.00137
       7 -> 39        -0.00017
       7 -> 41        -0.00019
       7 -> 43         0.00048
       7 -> 45        -0.00065
       7 -> 47         0.00356
       7 -> 50         0.00121
       7 -> 54        -0.00026
       8 -> 27         0.00012
       8 -> 46         0.00437
       3 <-  9        -0.00781
       3 <- 13        -0.00080
       3 <- 18        -0.00251
       3 <- 23        -0.00050
       3 <- 28        -0.00054
       3 <- 31        -0.00077
       3 <- 37         0.00016
       3 <- 48         0.00042
       3 <- 52         0.00069
       4 <-  9         0.00445
       4 <- 13        -0.00023
       4 <- 18         0.00141
       4 <- 23        -0.00053
       4 <- 28         0.00144
       4 <- 31        -0.00084
       4 <- 37        -0.00014
       4 <- 44        -0.00016
       4 <- 48        -0.00045
       4 <- 52        -0.00015
       5 <- 27        -0.00071
       5 <- 38         0.00127
       5 <- 46         0.00041
       6 <-  9        -0.04214
       6 <- 13         0.00217
       6 <- 18        -0.00502
       6 <- 23         0.00023
       6 <- 28        -0.00405
       6 <- 31        -0.00017
       6 <- 37        -0.00109
       6 <- 44        -0.00044
       6 <- 48         0.00301
       7 <- 10        -0.04896
       7 <- 11        -0.00921
       7 <- 14         0.01320
       7 <- 15         0.00819
       7 <- 17         0.00310
       7 <- 20         0.00256
       7 <- 21        -0.00334
       7 <- 24         0.00399
       7 <- 26         0.00179
       7 <- 30         0.00210
       7 <- 32         0.00030
       7 <- 34        -0.00086
       7 <- 36         0.00121
       7 <- 39        -0.00058
       7 <- 41         0.00018
       7 <- 43         0.00027
       7 <- 45        -0.00039
       7 <- 47         0.00330
       7 <- 50         0.00134
       7 <- 54         0.00077
       8 <- 27         0.00056
       8 <- 38         0.00011
       8 <- 46         0.00407

 Excited State   5:      Singlet-B1     4.5833 eV  270.51 nm  f=0.0069  <S**2>=0.000
       3 ->  9        -0.00420
       3 -> 13         0.00014
       3 -> 18        -0.00191
       3 -> 23         0.00039
       3 -> 28        -0.00252
       3 -> 31        -0.00139
       3 -> 44         0.00012
       3 -> 48        -0.00311
       3 -> 52        -0.00021
       4 ->  9        -0.03041
       4 -> 13         0.00600
       4 -> 18         0.00089
       4 -> 23         0.00466
       4 -> 28         0.00105
       4 -> 31         0.00036
       4 -> 37         0.00034
       4 -> 44        -0.00043
       4 -> 48         0.00087
       4 -> 52         0.00017
       5 -> 27        -0.00637
       5 -> 38        -0.00347
       5 -> 46         0.00018
       6 ->  9        -0.26358
       6 -> 13         0.00270
       6 -> 18        -0.00019
       6 -> 23         0.00213
       6 -> 28         0.00271
       6 -> 31        -0.00395
       6 -> 37         0.00242
       6 -> 44         0.00083
       6 -> 48        -0.00044
       6 -> 52        -0.00084
       7 -> 10         0.65141
       7 -> 11         0.05225
       7 -> 14        -0.05076
       7 -> 15        -0.02931
       7 -> 17        -0.00862
       7 -> 20        -0.00239
       7 -> 21         0.00314
       7 -> 24        -0.00905
       7 -> 26        -0.00559
       7 -> 30        -0.00724
       7 -> 32        -0.00136
       7 -> 34         0.00365
       7 -> 36        -0.00138
       7 -> 39         0.00062
       7 -> 43         0.00051
       7 -> 45        -0.00091
       7 -> 47         0.00071
       7 -> 50         0.00031
       7 -> 54        -0.00167
       8 -> 27         0.00061
       8 -> 38         0.00020
       8 -> 46         0.00087
       3 <-  9        -0.00073
       3 <- 13         0.00074
       3 <- 18        -0.00065
       3 <- 23         0.00062
       3 <- 28        -0.00174
       3 <- 31        -0.00013
       3 <- 37        -0.00024
       3 <- 48        -0.00324
       3 <- 52         0.00022
       4 <-  9        -0.01371
       4 <- 13         0.00282
       4 <- 18         0.00016
       4 <- 23         0.00279
       4 <- 28         0.00100
       4 <- 31         0.00018
       4 <- 37         0.00036
       4 <- 44        -0.00061
       4 <- 48         0.00046
       4 <- 52         0.00014
       5 <- 27        -0.00458
       5 <- 38        -0.00284
       5 <- 46         0.00020
       6 <-  9        -0.02696
       6 <- 13        -0.00027
       6 <- 18        -0.00331
       6 <- 23         0.00062
       6 <- 31        -0.00470
       6 <- 37         0.00228
       6 <- 44         0.00084
       6 <- 48         0.00018

 The electronic state is 1-A1.
 Alpha  occ. eigenvalues --  -19.17730 -10.33922  -0.89284  -0.71398  -0.49230
 Alpha  occ. eigenvalues --   -0.38954  -0.30763  -0.28711
 Alpha virt. eigenvalues --   -0.17125  -0.07153  -0.00037   0.04046   0.06092
 Alpha virt. eigenvalues --    0.06452   0.11783   0.13341   0.18735   0.21019
 Alpha virt. eigenvalues --    0.23951   0.30404   0.38529   0.39610   0.50631

 Mulliken charges:
               1
     1  C   -0.097012
     2  H    0.192109
     3  H    0.192109
     4  O   -0.287206
 Sum of Mulliken charges =  -0.00000

 Dipole moment (field-independent basis, Debye):
    X=             -0.0000    Y=              0.0000    Z=             -4.1720  Tot=              4.1720
 Quadrupole moment (field-independent basis, Debye-Ang):
   XX=            -13.0351   YY=            -12.0376   ZZ=            -10.6499
   XY=              0.0000   XZ=              0.0000   YZ=              0.0000

 Normal termination of Gaussian 16 at Fri Sep 17 10:53:09 2021.
