 Gaussian 16, Revision C.01,
 Gaussian 16:  ES64L-G16RevC.01  3-Jul-2019

 ----------------------------------------
 #P wB97XD/6-311+G* NoSymm #P Field=Y+243
 ----------------------------------------

 -------
 TitleMe
 -------
 Symbolic Z-matrix:
 Charge =  1 Multiplicity = 1

                          Input orientation:
 ---------------------------------------------------------------------
 Center     Atomic      Atomic             Coordinates (Angstroms)
 Number     Number       Type             X           Y           Z
 ---------------------------------------------------------------------
      1          6           0        0.029500    1.339700    0.068200
      2          6           0        1.434800    1.286700    0.006400
      3          6           0        2.111800    0.051100   -0.005400
      4          6           0        1.445100   -1.137200    0.031200
      5          6           0       -0.687900    0.168200    0.110000
      6          1           0       -0.471300    2.298400    0.078100
      7          1           0        2.027300    2.196500   -0.032200
      8          1           0        1.989700   -2.076400    0.023200
      9          1           0       -1.771600    0.180400    0.158200
     10          7           0        3.586400    0.051000   -0.067500
     11          8           0        4.147100   -1.059700   -0.088100
     12          8           0        4.145000    1.163900   -0.090100
     13          6           0       -0.023600   -1.145800    0.083500
     14          1           0       -0.436700   -1.872500    0.788900
     15         35           0       -0.535900   -1.869700   -1.740800
 ---------------------------------------------------------------------

 SCF Done:  E(RwB97XD) =  -3010.57458357     A.U. after   23 cycles

 Alpha  occ. eigenvalues -- -483.27805 -62.82770 -56.62510 -56.61879 -56.61869
 Alpha  occ. eigenvalues --  -19.45523 -19.45230 -14.84719 -10.57627 -10.56292
 Alpha  occ. eigenvalues --  -10.56125 -10.55215 -10.55037 -10.53872  -8.98531
 Alpha  occ. eigenvalues --   -6.81331  -6.79271  -6.79239  -2.91204  -2.90664
 Alpha  occ. eigenvalues --   -2.90638  -2.88991  -2.88991  -1.49082  -1.32079
 Alpha  occ. eigenvalues --   -1.21599  -1.12513  -1.11059  -1.01635  -1.00322
 Alpha  occ. eigenvalues --   -0.94300  -0.90107  -0.85036  -0.80371  -0.79721
 Alpha  occ. eigenvalues --   -0.79329  -0.77669  -0.75358  -0.74684  -0.71109
 Alpha  occ. eigenvalues --   -0.68226  -0.66618  -0.62312  -0.58680  -0.56787
 Alpha  occ. eigenvalues --   -0.55667  -0.54844  -0.51976  -0.51694
 Alpha virt. eigenvalues --   -0.28261  -0.20304  -0.19383  -0.15111  -0.14930
 Alpha virt. eigenvalues --   -0.11212  -0.09323  -0.09052  -0.07089  -0.04841
 Alpha virt. eigenvalues --   -0.04372  -0.02751  -0.01383  -0.00772  -0.00428

 Mulliken charges:
               1
     1  C   -0.615727
     2  C    0.674900
     3  C   -0.866264
     4  C    0.412199
     5  C   -0.108712
     6  H    0.223825
     7  H    0.269847
     8  H    0.448245
     9  H    0.344998
    10  N   -0.099843
    11  O    0.155992
    12  O   -0.106321
    13  C   -0.545534
    14  H    0.464126
    15  Br   0.348271
 Sum of Mulliken charges =   1.00000

 Dipole moment (field-independent basis, Debye):
    X=             -1.5906    Y=             -7.6634    Z=             -0.9942  Tot=              7.8896
 Quadrupole moment (field-independent basis, Debye-Ang):
   XX=            -72.4487   YY=            -49.6121   ZZ=            -60.7004
   XY=             -6.4821   XZ=              1.9149   YZ=              4.9325

 Normal termination of Gaussian 16 at Wed May  1 15:13:45 2024.
