 Gaussian 16, Revision A.03,
 Gaussian 16:  ES64L-G16RevA.03 25-Dec-2016

 --------------------------------------------------------------------
 #p B3LYP/6-311+G** #p TD=(singlets,nstates=30)IOp(6/8=3) IOp(9/40=4)
 --------------------------------------------------------------------

 -------------------------------
 Scan Step 286, Bond Length 1.93
 -------------------------------
 Symbolic Z-matrix:
 Charge =  0 Multiplicity = 1

                         Standard orientation:
 ---------------------------------------------------------------------
 Center     Atomic      Atomic             Coordinates (Angstroms)
 Number     Number       Type             X           Y           Z
 ---------------------------------------------------------------------
      1          6           0        0.000000   -0.000000   -0.891081
      2          1           0        0.000000    0.937260   -1.482431
      3          1           0       -0.000000   -0.937260   -1.482431
      4          8           0        0.000000    0.000000    1.038919
 ---------------------------------------------------------------------

 SCF Done:  E(RB3LYP) =  -114.316044311     A.U. after   13 cycles

 Excitation energies and oscillator strengths:

 Excited State   1:      Singlet-A2     1.0905 eV 1136.92 nm  f=0.0000  <S**2>=0.000
       3 -> 27         0.00059
       3 -> 38         0.00034
       3 -> 47         0.00329
       4 -> 27         0.00030
       4 -> 47        -0.00081
       5 ->  9         0.00028
       5 -> 13         0.00105
       5 -> 18         0.00136
       5 -> 23         0.00121
       5 -> 28         0.00098
       5 -> 37         0.00059
       5 -> 44         0.00017
       5 -> 52         0.00013
       6 -> 27        -0.00052
       6 -> 38        -0.00048
       6 -> 47         0.00080
       7 -> 12        -0.00142
       7 -> 16         0.00539
       7 -> 19        -0.00492
       7 -> 22        -0.00114
       7 -> 25        -0.00045
       7 -> 30        -0.00203
       7 -> 33         0.00025
       7 -> 49         0.00013
       7 -> 53         0.00035
       8 ->  9         0.71191
       8 -> 13        -0.00519
       8 -> 18         0.02034
       8 -> 23        -0.00039
       8 -> 28         0.00982
       8 -> 31         0.00159
       8 -> 37         0.00045
       8 -> 46        -0.00027
       8 -> 52         0.00180
       3 <- 27         0.00012
       3 <- 38         0.00014
       3 <- 47         0.00331
       4 <- 27         0.00057
       4 <- 38         0.00016
       4 <- 47        -0.00061
       5 <-  9         0.00058
       5 <- 13        -0.00028
       5 <- 18        -0.00029
       5 <- 23         0.00013
       5 <- 28        -0.00023
       5 <- 31         0.00019
       5 <- 37         0.00034
       6 <- 38        -0.00036
       6 <- 47         0.00057
       7 <- 12         0.00221
       7 <- 16        -0.01047
       7 <- 19         0.00618
       7 <- 22         0.00514
       7 <- 25        -0.00063
       7 <- 30         0.00566
       7 <- 33        -0.00033
       7 <- 49        -0.00047
       7 <- 53         0.00143
       8 <-  9        -0.08451
       8 <- 13        -0.00071
       8 <- 18        -0.00801
       8 <- 23        -0.00046
       8 <- 28        -0.00281
       8 <- 31        -0.00086
       8 <- 37        -0.00015
       8 <- 46         0.00013
       8 <- 52         0.00041
 This state for optimization and/or second-order correction.
 Total Energy, E(TD-HF/TD-DFT) =  -114.275968338
 Copying the excited state density for this state as the 1-particle RhoCI density.

 Excited State   2:      Singlet-A1     2.8523 eV  434.69 nm  f=0.0212  <S**2>=0.000
       3 -> 10        -0.01183
       3 -> 11        -0.00202
       3 -> 14         0.00011
       3 -> 17        -0.00285
       3 -> 20        -0.00315
       3 -> 21         0.00069
       3 -> 26         0.00069
       3 -> 29         0.00010
       3 -> 32         0.00258
       3 -> 34         0.00092
       3 -> 36        -0.00087
       3 -> 39        -0.00028
       3 -> 43         0.00044
       3 -> 45        -0.00127
       3 -> 48         0.00231
       3 -> 50         0.00166
       3 -> 54        -0.00014
       4 -> 11         0.00893
       4 -> 14         0.00126
       4 -> 15        -0.00688
       4 -> 17         0.00189
       4 -> 20         0.00141
       4 -> 21         0.00018
       4 -> 24        -0.00353
       4 -> 26         0.00264
       4 -> 32        -0.00101
       4 -> 34        -0.00062
       4 -> 39        -0.00028
       4 -> 43        -0.00040
       4 -> 45         0.00073
       4 -> 48        -0.00065
       4 -> 50        -0.00022
       4 -> 54         0.00013
       5 -> 12         0.00767
       5 -> 16         0.00109
       5 -> 19         0.00095
       5 -> 22         0.00614
       5 -> 25        -0.00353
       5 -> 30         0.00032
       5 -> 33        -0.00221
       5 -> 35         0.00269
       5 -> 40        -0.00086
       5 -> 42        -0.00098
       5 -> 51        -0.00091
       6 -> 10         0.26467
       6 -> 11         0.02772
       6 -> 14        -0.02963
       6 -> 15        -0.01788
       6 -> 17        -0.01420
       6 -> 21         0.00361
       6 -> 24        -0.00635
       6 -> 26        -0.00225
       6 -> 29        -0.00198
       6 -> 32         0.00479
       6 -> 34         0.00136
       6 -> 36         0.00076
       6 -> 39        -0.00154
       6 -> 43         0.00076
       6 -> 45        -0.00098
       6 -> 48         0.00067
       6 -> 50         0.00043
       6 -> 54        -0.00099
       7 ->  9         0.67291
       7 -> 13        -0.00814
       7 -> 18        -0.00820
       7 -> 23        -0.00309
       7 -> 28         0.00176
       7 -> 31        -0.00330
       7 -> 37         0.00136
       7 -> 44        -0.00095
       7 -> 52         0.00105
       8 -> 12        -0.00691
       8 -> 16         0.02887
       8 -> 19        -0.01644
       8 -> 22        -0.00926
       8 -> 30        -0.00680
       8 -> 33         0.00075
       8 -> 35        -0.00040
       8 -> 40         0.00012
       8 -> 42         0.00015
       8 -> 51         0.00012
       8 -> 53        -0.00047
       3 <- 10        -0.00984
       3 <- 11        -0.00201
       3 <- 15        -0.00037
       3 <- 17        -0.00170
       3 <- 20        -0.00288
       3 <- 21         0.00027
       3 <- 24        -0.00034
       3 <- 29         0.00039
       3 <- 32         0.00217
       3 <- 34         0.00046
       3 <- 36        -0.00094
       3 <- 39        -0.00021
       3 <- 43         0.00046
       3 <- 45        -0.00136
       3 <- 48         0.00231
       3 <- 50         0.00167
       4 <- 10         0.00115
       4 <- 11         0.00693
       4 <- 14         0.00118
       4 <- 15        -0.00497
       4 <- 17         0.00121
       4 <- 20         0.00204
       4 <- 24        -0.00280
       4 <- 26         0.00243
       4 <- 29        -0.00042
       4 <- 32        -0.00096
       4 <- 34        -0.00053
       4 <- 36         0.00023
       4 <- 39        -0.00033
       4 <- 43        -0.00035
       4 <- 45         0.00064
       4 <- 48        -0.00038
       4 <- 54         0.00011
       5 <- 12         0.00504
       5 <- 16         0.00083
       5 <- 19         0.00082
       5 <- 22         0.00464
       5 <- 25        -0.00288
       5 <- 30         0.00033
       5 <- 33        -0.00189
       5 <- 35         0.00237
       5 <- 40        -0.00080
       5 <- 42        -0.00089
       5 <- 51        -0.00086
       6 <- 10         0.09368
       6 <- 11         0.01269
       6 <- 14        -0.01558
       6 <- 15        -0.01033
       6 <- 17        -0.00919
       6 <- 20        -0.00134
       6 <- 21         0.00275
       6 <- 24        -0.00433
       6 <- 26        -0.00096
       6 <- 29        -0.00089
       6 <- 32         0.00446
       6 <- 34         0.00151
       6 <- 36         0.00029
       6 <- 39        -0.00138
       6 <- 43         0.00065
       6 <- 45        -0.00071
       6 <- 48         0.00037
       6 <- 50         0.00029
       6 <- 54        -0.00093
       7 <-  9        -0.12940
       7 <- 13         0.00209
       7 <- 18        -0.01029
       7 <- 28        -0.00110
       7 <- 31        -0.00157
       7 <- 37         0.00066
       7 <- 44        -0.00085
       7 <- 46        -0.00046
       7 <- 52         0.00098
       8 <- 12        -0.00332
       8 <- 16         0.01612
       8 <- 19        -0.01039
       8 <- 22        -0.00654
       8 <- 25         0.00013
       8 <- 30        -0.00565
       8 <- 33         0.00061
       8 <- 35        -0.00030
       8 <- 42         0.00012
       8 <- 49        -0.00018
       8 <- 51         0.00010
       8 <- 53        -0.00044

 Excited State   3:      Singlet-B2     2.9067 eV  426.55 nm  f=0.0014  <S**2>=0.000
       3 -> 12        -0.00105
       3 -> 16         0.00091
       3 -> 19        -0.00343
       3 -> 22         0.00112
       3 -> 25        -0.00087
       3 -> 30        -0.00223
       3 -> 33         0.00033
       3 -> 35         0.00107
       3 -> 40        -0.00108
       3 -> 42        -0.00033
       3 -> 49        -0.00405
       3 -> 51         0.00014
       3 -> 53         0.00023
       4 -> 12         0.00032
       4 -> 16        -0.00117
       4 -> 19         0.00028
       4 -> 22         0.00146
       4 -> 25         0.00044
       4 -> 30         0.00068
       4 -> 33        -0.00027
       4 -> 35         0.00039
       4 -> 40         0.00021
       4 -> 49         0.00072
       5 -> 10         0.00891
       5 -> 11         0.00087
       5 -> 14        -0.00223
       5 -> 15         0.00252
       5 -> 17        -0.00053
       5 -> 20         0.00181
       5 -> 21         0.00236
       5 -> 24         0.00125
       5 -> 26        -0.00025
       5 -> 29        -0.00205
       5 -> 32        -0.00068
       5 -> 34        -0.00012
       5 -> 39         0.00052
       5 -> 41         0.00034
       5 -> 48        -0.00028
       5 -> 50         0.00019
       5 -> 54        -0.00016
       6 -> 12         0.00236
       6 -> 16        -0.00289
       6 -> 19         0.00432
       6 -> 22        -0.00069
       6 -> 25         0.00115
       6 -> 30         0.00043
       6 -> 33        -0.00022
       6 -> 35        -0.00101
       6 -> 40         0.00061
       6 -> 42         0.00054
       6 -> 49         0.00098
       6 -> 53        -0.00044
       7 -> 27        -0.00045
       7 -> 38         0.00025
       7 -> 47         0.00267
       8 -> 10         0.70629
       8 -> 11         0.04328
       8 -> 14        -0.04119
       8 -> 15        -0.01774
       8 -> 17        -0.01645
       8 -> 20         0.00676
       8 -> 21         0.00478
       8 -> 24        -0.00501
       8 -> 26        -0.00370
       8 -> 29        -0.01361
       8 -> 32         0.00138
       8 -> 34        -0.00092
       8 -> 36         0.00180
       8 -> 39         0.00027
       8 -> 41        -0.00017
       8 -> 45        -0.00075
       8 -> 48        -0.00327
       8 -> 50         0.00111
       8 -> 54        -0.00251
       3 <- 12        -0.00036
       3 <- 16         0.00034
       3 <- 19        -0.00173
       3 <- 22         0.00088
       3 <- 25        -0.00079
       3 <- 30        -0.00092
       3 <- 33         0.00032
       3 <- 35         0.00066
       3 <- 40        -0.00093
       3 <- 42        -0.00017
       3 <- 49        -0.00409
       3 <- 51         0.00014
       3 <- 53         0.00065
       4 <- 12         0.00012
       4 <- 16        -0.00150
       4 <- 19         0.00019
       4 <- 22         0.00185
       4 <- 25         0.00020
       4 <- 30         0.00097
       4 <- 33        -0.00028
       4 <- 35         0.00055
       4 <- 49         0.00050
       5 <- 10        -0.00096
       5 <- 11        -0.00045
       5 <- 14        -0.00036
       5 <- 15         0.00207
       5 <- 17         0.00019
       5 <- 20         0.00075
       5 <- 21         0.00141
       5 <- 24         0.00137
       5 <- 29        -0.00045
       5 <- 32        -0.00021
       5 <- 39         0.00027
       5 <- 41         0.00036
       5 <- 45        -0.00017
       5 <- 48        -0.00030
       6 <- 12        -0.00110
       6 <- 16         0.00829
       6 <- 19        -0.00480
       6 <- 22        -0.00521
       6 <- 25         0.00137
       6 <- 30        -0.00627
       6 <- 33         0.00014
       6 <- 35        -0.00079
       6 <- 40         0.00059
       6 <- 42         0.00051
       6 <- 49         0.00152
       6 <- 53        -0.00145
       7 <- 27        -0.00046
       7 <- 38         0.00020
       7 <- 47         0.00233
       8 <- 10        -0.05619
       8 <- 11        -0.00695
       8 <- 14         0.00673
       8 <- 15         0.00222
       8 <- 17         0.00271
       8 <- 20        -0.00362
       8 <- 21        -0.00098
       8 <- 24         0.00137
       8 <- 26         0.00090
       8 <- 29         0.00285
       8 <- 32         0.00208
       8 <- 34         0.00075
       8 <- 36        -0.00092
       8 <- 39        -0.00080
       8 <- 41         0.00014
       8 <- 43         0.00029
       8 <- 45        -0.00141
       8 <- 48        -0.00275
       8 <- 50         0.00106
       8 <- 54        -0.00065

 Excited State   4:      Singlet-B1     3.1822 eV  389.62 nm  f=0.0001  <S**2>=0.000
       3 ->  9        -0.01854
       3 -> 13         0.00054
       3 -> 18        -0.00344
       3 -> 23         0.00108
       3 -> 28        -0.00141
       3 -> 31        -0.00110
       3 -> 37         0.00017
       3 -> 44         0.00022
       3 -> 46        -0.00119
       3 -> 52         0.00050
       4 ->  9        -0.00306
       4 -> 13         0.00036
       4 -> 18         0.00025
       4 -> 23         0.00024
       4 -> 28         0.00066
       4 -> 31        -0.00083
       4 -> 52        -0.00015
       5 -> 27        -0.00185
       5 -> 38         0.00017
       5 -> 47         0.00032
       6 ->  9         0.48897
       6 -> 13        -0.01292
       6 -> 18         0.01182
       6 -> 23        -0.00794
       6 -> 28         0.00380
       6 -> 31         0.00055
       6 -> 37        -0.00035
       6 -> 44        -0.00097
       6 -> 46         0.00235
       6 -> 52         0.00041
       7 -> 10         0.51596
       7 -> 11         0.03274
       7 -> 14        -0.03242
       7 -> 15        -0.01527
       7 -> 17        -0.01266
       7 -> 20         0.00446
       7 -> 21         0.00251
       7 -> 24        -0.00574
       7 -> 26        -0.00433
       7 -> 29        -0.00790
       7 -> 32         0.00152
       7 -> 34        -0.00065
       7 -> 36         0.00100
       7 -> 41        -0.00013
       7 -> 43         0.00046
       7 -> 45        -0.00105
       7 -> 48         0.00301
       7 -> 50         0.00096
       7 -> 54        -0.00105
       8 -> 27         0.00013
       8 -> 47         0.00365
       3 <-  9        -0.00616
       3 <- 13        -0.00052
       3 <- 18        -0.00221
       3 <- 23        -0.00019
       3 <- 28        -0.00089
       3 <- 31        -0.00069
       3 <- 44        -0.00011
       3 <- 46        -0.00113
       3 <- 52         0.00063
       4 <-  9        -0.00087
       4 <- 13         0.00061
       4 <- 18         0.00111
       4 <- 23         0.00040
       4 <- 28         0.00139
       4 <- 31        -0.00063
       4 <- 44        -0.00034
       5 <- 27        -0.00183
       5 <- 38         0.00020
       5 <- 47         0.00030
       6 <-  9        -0.06081
       6 <- 13         0.00233
       6 <- 18        -0.00665
       6 <- 23         0.00079
       6 <- 28        -0.00419
       6 <- 31        -0.00200
       6 <- 44         0.00029
       6 <- 46         0.00229
       6 <- 52        -0.00067
       7 <- 10        -0.06809
       7 <- 11        -0.00854
       7 <- 14         0.01124
       7 <- 15         0.00562
       7 <- 17         0.00378
       7 <- 21        -0.00283
       7 <- 24         0.00283
       7 <- 26         0.00166
       7 <- 29         0.00241
       7 <- 34         0.00012
       7 <- 39        -0.00041
       7 <- 41         0.00025
       7 <- 43         0.00025
       7 <- 45        -0.00074
       7 <- 48         0.00277
       7 <- 50         0.00121
       7 <- 54         0.00030
       8 <- 27         0.00044
       8 <- 47         0.00334

 Excited State   5:      Singlet-B1     3.7196 eV  333.33 nm  f=0.0056  <S**2>=0.000
       3 ->  9        -0.00556
       3 -> 13         0.00026
       3 -> 18         0.00032
       3 -> 23         0.00014
       3 -> 28         0.00170
       3 -> 31         0.00087
       3 -> 44         0.00032
       3 -> 46         0.00323
       3 -> 52         0.00042
       4 ->  9         0.02872
       4 -> 13        -0.00582
       4 -> 18        -0.00058
       4 -> 23        -0.00465
       4 -> 28        -0.00039
       4 -> 31        -0.00081
       4 -> 37        -0.00036
       4 -> 44         0.00038
       4 -> 46        -0.00093
       4 -> 52        -0.00021
       5 -> 27         0.00557
       5 -> 38         0.00377
       6 ->  9         0.51364
       6 -> 13        -0.00937
       6 -> 18         0.00446
       6 -> 23        -0.00615
       6 -> 28        -0.00136
       6 -> 31         0.00441
       6 -> 37        -0.00282
       6 -> 44        -0.00137
       6 -> 46         0.00176
       6 -> 52         0.00107
       7 -> 10        -0.48373
       7 -> 11        -0.02354
       7 -> 14         0.02455
       7 -> 15         0.01879
       7 -> 17         0.00444
       7 -> 20         0.00227
       7 -> 21        -0.00141
       7 -> 24         0.00631
       7 -> 26         0.00319
       7 -> 29         0.00555
       7 -> 32         0.00012
       7 -> 34         0.00318
       7 -> 36         0.00147
       7 -> 39        -0.00060
       7 -> 43        -0.00026
       7 -> 45         0.00052
       7 -> 48         0.00076
       7 -> 50         0.00039
       7 -> 54         0.00149
       8 -> 27        -0.00042
       8 -> 38        -0.00017
       8 -> 47         0.00088
       3 <-  9        -0.00197
       3 <- 13        -0.00095
       3 <- 18        -0.00027
       3 <- 23        -0.00067
       3 <- 28         0.00130
       3 <- 31        -0.00022
       3 <- 37         0.00032
       3 <- 44         0.00034
       3 <- 46         0.00332
       4 <-  9         0.01528
       4 <- 13        -0.00298
       4 <- 18         0.00031
       4 <- 23        -0.00303
       4 <- 28        -0.00019
       4 <- 31        -0.00060
       4 <- 37        -0.00032
       4 <- 44         0.00046
       4 <- 46        -0.00058
       4 <- 52        -0.00015
       5 <- 27         0.00408
       5 <- 38         0.00323
       6 <-  9         0.01115
       6 <- 13         0.00133
       6 <- 18         0.00115
       6 <- 23        -0.00042
       6 <- 28        -0.00147
       6 <- 31         0.00462
       6 <- 37        -0.00268
       6 <- 44        -0.00092
       6 <- 46         0.00102
       6 <- 52         0.00116
       7 <- 10        -0.00555
       7 <- 11        -0.00142
       7 <- 14         0.00347
       7 <- 15         0.00742
       7 <- 17         0.00068
       7 <- 20         0.00501
       7 <- 21        -0.00015
       7 <- 24         0.00375
       7 <- 26         0.00093
       7 <- 29         0.00080
       7 <- 32        -0.00115
       7 <- 34         0.00215
       7 <- 36         0.00238
       7 <- 39        -0.00024
       7 <- 43        -0.00035
       7 <- 45         0.00062
       7 <- 48         0.00086
       7 <- 50         0.00067
       7 <- 54         0.00111
       8 <- 47         0.00108

 Excited State   6:      Singlet-A2     6.7337 eV  184.13 nm  f=0.0000  <S**2>=0.000
       3 -> 27        -0.00096
       3 -> 38        -0.00026
       3 -> 47         0.00011
       4 -> 27        -0.00603

 The electronic state is 1-A1.
 Alpha  occ. eigenvalues --  -19.17815 -10.34292  -0.88267  -0.71974  -0.49449
 Alpha  occ. eigenvalues --   -0.37782  -0.29995  -0.28562
 Alpha virt. eigenvalues --   -0.18010  -0.09929  -0.00276   0.04029   0.06083
 Alpha virt. eigenvalues --    0.06117   0.11518   0.12940   0.18599   0.20858
 Alpha virt. eigenvalues --    0.23881   0.30420   0.38472   0.39147   0.50426

 Mulliken charges:
               1
     1  C   -0.108963
     2  H    0.194709
     3  H    0.194709
     4  O   -0.280456
 Sum of Mulliken charges =   0.00000

 Dipole moment (field-independent basis, Debye):
    X=             -0.0000    Y=             -0.0000    Z=             -4.3399  Tot=              4.3399
 Quadrupole moment (field-independent basis, Debye-Ang):
   XX=            -13.1150   YY=            -12.1015   ZZ=            -10.3442
   XY=              0.0000   XZ=              0.0000   YZ=              0.0000

 Normal termination of Gaussian 16 at Fri Sep 17 10:53:17 2021.
