 Gaussian 16, Revision A.03,
 Gaussian 16:  ES64L-G16RevA.03 25-Dec-2016

 --------------------------------------------------------------------
 #p B3LYP/6-311+G** #p TD=(singlets,nstates=30)IOp(6/8=3) IOp(9/40=4)
 --------------------------------------------------------------------

 --------------------------------
 Scan Step 215, Bond Length 1.575
 --------------------------------
 Symbolic Z-matrix:
 Charge =  0 Multiplicity = 1

                         Standard orientation:
 ---------------------------------------------------------------------
 Center     Atomic      Atomic             Coordinates (Angstroms)
 Number     Number       Type             X           Y           Z
 ---------------------------------------------------------------------
      1          6           0        0.000000    0.000000   -0.713581
      2          1           0        0.000000    0.937260   -1.304931
      3          1           0       -0.000000   -0.937260   -1.304931
      4          8           0        0.000000   -0.000000    0.861419
 ---------------------------------------------------------------------

 SCF Done:  E(RB3LYP) =  -114.437212225     A.U. after   10 cycles

 Excitation energies and oscillator strengths:

 Excited State   1:      Singlet-A2     2.0785 eV  596.52 nm  f=0.0000  <S**2>=0.000
       3 -> 27         0.00125
       3 -> 38         0.00094
       3 -> 46         0.00327
       4 -> 27         0.00075
       4 -> 38        -0.00015
       4 -> 46        -0.00132
       5 ->  9         0.00824
       5 -> 13         0.00086
       5 -> 18         0.00304
       5 -> 23         0.00161
       5 -> 28         0.00266
       5 -> 31        -0.00021
       5 -> 37         0.00148
       5 -> 44         0.00035
       5 -> 52         0.00036
       6 -> 27        -0.00062
       6 -> 38        -0.00079
       6 -> 46         0.00138
       7 -> 12        -0.00088
       7 -> 16         0.00466
       7 -> 19        -0.00397
       7 -> 22        -0.00072
       7 -> 25         0.00098
       7 -> 30        -0.00150
       7 -> 33         0.00037
       7 -> 49         0.00013
       7 -> 50         0.00017
       7 -> 53         0.00045
       8 ->  9         0.70834
       8 -> 13        -0.01418
       8 -> 18         0.02170
       8 -> 23        -0.00378
       8 -> 28         0.01106
       8 -> 31         0.00094
       8 -> 37         0.00064
       8 -> 48        -0.00031
       8 -> 52         0.00194
       3 <- 27         0.00060
       3 <- 38         0.00066
       3 <- 46         0.00332
       4 <- 27         0.00129
       4 <- 38         0.00023
       4 <- 46        -0.00107
       5 <-  9        -0.00029
       5 <- 13        -0.00054
       5 <- 18        -0.00071
       5 <- 23         0.00029
       5 <- 28        -0.00050
       5 <- 31         0.00037
       5 <- 37         0.00082
       5 <- 44         0.00012
       6 <- 38        -0.00065
       6 <- 46         0.00106
       7 <- 12         0.00053
       7 <- 16        -0.00995
       7 <- 19         0.00353
       7 <- 22         0.00700
       7 <- 25         0.00051
       7 <- 30         0.00520
       7 <- 33        -0.00056
       7 <- 36         0.00091
       7 <- 40         0.00053
       7 <- 42         0.00013
       7 <- 49        -0.00037
       7 <- 50         0.00011
       7 <- 53         0.00146
       8 <-  9        -0.04946
       8 <- 13         0.00058
       8 <- 18        -0.00646
       8 <- 23         0.00022
       8 <- 28        -0.00231
       8 <- 31        -0.00061
       8 <- 37        -0.00050
       8 <- 52         0.00051
 This state for optimization and/or second-order correction.
 Total Energy, E(TD-HF/TD-DFT) =  -114.360829662
 Copying the excited state density for this state as the 1-particle RhoCI density.

 Excited State   2:      Singlet-A1     5.3168 eV  233.19 nm  f=0.0822  <S**2>=0.000
       3 -> 10        -0.01387
       3 -> 11        -0.01534
       3 -> 14         0.01246
       3 -> 15         0.00879
       3 -> 17        -0.00357
       3 -> 20        -0.00378
       3 -> 21        -0.00152
       3 -> 24         0.00282
       3 -> 26         0.00439
       3 -> 29        -0.00105
       3 -> 32         0.00277
       3 -> 34         0.00277
       3 -> 35        -0.00081
       3 -> 39         0.00088
       3 -> 43         0.00043
       3 -> 45        -0.00016
       3 -> 47         0.00223
       3 -> 51         0.00095
       3 -> 54         0.00022
       4 -> 10        -0.01411
       4 -> 11         0.01172
       4 -> 14         0.00720
       4 -> 15        -0.00959
       4 -> 17         0.00319
       4 -> 20         0.00581
       4 -> 21         0.00040
       4 -> 24        -0.00531
       4 -> 26         0.00525
       4 -> 29         0.00113
       4 -> 32        -0.00130
       4 -> 34        -0.00193
       4 -> 35         0.00032
       4 -> 39        -0.00012
       4 -> 41         0.00014
       4 -> 43        -0.00041
       4 -> 45        -0.00073
       4 -> 47        -0.00134
       4 -> 51        -0.00031
       5 -> 12         0.01860
       5 -> 16         0.01279
       5 -> 19         0.00152
       5 -> 22         0.00717
       5 -> 25         0.00884
       5 -> 30        -0.00047
       5 -> 33        -0.00314
       5 -> 36         0.00271
       5 -> 40         0.00152
       5 -> 42         0.00063
       5 -> 49         0.00050
       5 -> 50        -0.00065
       5 -> 53        -0.00016
       6 -> 10         0.11785
       6 -> 11         0.11203
       6 -> 14        -0.09551
       6 -> 15        -0.08045
       6 -> 17        -0.02040
       6 -> 20        -0.01329
       6 -> 21         0.01529
       6 -> 24        -0.01521
       6 -> 26        -0.00748
       6 -> 29        -0.00840
       6 -> 32         0.00058
       6 -> 34         0.00155
       6 -> 35        -0.00093
       6 -> 39         0.00076
       6 -> 41        -0.00047
       6 -> 43         0.00078
       6 -> 45         0.00073
       6 -> 47         0.00137
       6 -> 51         0.00084
       6 -> 54        -0.00061
       7 ->  9         0.68485
       7 -> 13         0.00264
       7 -> 18        -0.01962
       7 -> 23         0.00070
       7 -> 28        -0.00186
       7 -> 31        -0.00292
       7 -> 37         0.00079
       7 -> 44        -0.00106
       7 -> 48         0.00045
       7 -> 52         0.00104
       8 -> 12        -0.00681
       8 -> 16         0.07593
       8 -> 19        -0.02491
       8 -> 22        -0.02899
       8 -> 25         0.00084
       8 -> 30        -0.01259
       8 -> 33         0.00257
       8 -> 36        -0.00316
       8 -> 40        -0.00150
       8 -> 42        -0.00035
       8 -> 49         0.00062
       8 -> 50         0.00025
       8 -> 53        -0.00075
       3 <- 10        -0.00907
       3 <- 11        -0.01055
       3 <- 14         0.00910
       3 <- 15         0.00592
       3 <- 17        -0.00182
       3 <- 20        -0.00265
       3 <- 21        -0.00175
       3 <- 24         0.00180
       3 <- 26         0.00267
       3 <- 29        -0.00062
       3 <- 32         0.00254
       3 <- 34         0.00181
       3 <- 35        -0.00071
       3 <- 39         0.00077
       3 <- 41         0.00010
       3 <- 43         0.00052
       3 <- 47         0.00236
       3 <- 51         0.00092
       3 <- 54         0.00031
       4 <- 10        -0.00696
       4 <- 11         0.00723
       4 <- 14         0.00357
       4 <- 15        -0.00565
       4 <- 17         0.00157
       4 <- 20         0.00467
       4 <- 21         0.00031
       4 <- 24        -0.00355
       4 <- 26         0.00408
       4 <- 29         0.00030
       4 <- 32        -0.00162
       4 <- 34        -0.00169
       4 <- 35         0.00054
       4 <- 39        -0.00018
       4 <- 43        -0.00040
       4 <- 45        -0.00087
       4 <- 47        -0.00094
       4 <- 51        -0.00015
       5 <- 12         0.00796
       5 <- 16         0.00631
       5 <- 19         0.00104
       5 <- 22         0.00434
       5 <- 25         0.00588
       5 <- 30        -0.00019
       5 <- 33        -0.00241
       5 <- 36         0.00219
       5 <- 40         0.00132
       5 <- 42         0.00051
       5 <- 49         0.00044
       5 <- 50        -0.00059
       5 <- 53        -0.00014
       6 <- 10         0.03359
       6 <- 11         0.03413
       6 <- 14        -0.03628
       6 <- 15        -0.03321
       6 <- 17        -0.00955
       6 <- 20        -0.00794
       6 <- 21         0.00866
       6 <- 24        -0.00910
       6 <- 26        -0.00439
       6 <- 29        -0.00568
       6 <- 32         0.00105
       6 <- 34         0.00188
       6 <- 35        -0.00097
       6 <- 39         0.00086
       6 <- 41        -0.00032
       6 <- 43         0.00067
       6 <- 45         0.00071
       6 <- 47         0.00089
       6 <- 51         0.00066
       6 <- 54        -0.00051
       7 <-  9        -0.12210
       7 <- 13         0.00805
       7 <- 18        -0.01410
       7 <- 23         0.00396
       7 <- 28        -0.00418
       7 <- 31        -0.00130
       7 <- 37         0.00025
       7 <- 44        -0.00060
       7 <- 48        -0.00013
       7 <- 52         0.00091
       8 <- 12        -0.00143
       8 <- 16         0.02527
       8 <- 19        -0.01016
       8 <- 22        -0.01522
       8 <- 25         0.00023
       8 <- 30        -0.00894
       8 <- 33         0.00189
       8 <- 36        -0.00239
       8 <- 40        -0.00120
       8 <- 42        -0.00028
       8 <- 49         0.00042
       8 <- 50         0.00020
       8 <- 53        -0.00068

 Excited State   3:      Singlet-B1     5.5937 eV  221.65 nm  f=0.0014  <S**2>=0.000
       3 ->  9        -0.02958
       3 -> 13         0.00190
       3 -> 18        -0.00487
       3 -> 23         0.00192
       3 -> 28        -0.00104
       3 -> 31        -0.00048
       3 -> 44         0.00026
       3 -> 48         0.00093
       3 -> 52         0.00099
       4 ->  9         0.01396
       4 -> 13        -0.00269
       4 -> 18         0.00031
       4 -> 23        -0.00244
       4 -> 28         0.00022
       4 -> 31        -0.00159
       4 -> 37        -0.00042
       4 -> 44         0.00012
       4 -> 48        -0.00116
       4 -> 52        -0.00062
       5 -> 27        -0.00025
       5 -> 38         0.00201
       5 -> 46         0.00103
       6 ->  9         0.70560
       6 -> 13        -0.02087
       6 -> 18         0.01726
       6 -> 23        -0.01111
       6 -> 28         0.00449
       6 -> 31         0.00340
       6 -> 37        -0.00224
       6 -> 44        -0.00295
       6 -> 48         0.00427
       6 -> 52         0.00150
       7 -> 10         0.02696
       7 -> 11         0.02296
       7 -> 14        -0.01524
       7 -> 15        -0.00770
       7 -> 17        -0.00934
       7 -> 20         0.00278
       7 -> 24        -0.00041
       7 -> 26        -0.00135
       7 -> 29        -0.00399
       7 -> 32        -0.00071
       7 -> 34         0.00057
       7 -> 35         0.00183
       7 -> 39         0.00013
       7 -> 41        -0.00065
       7 -> 43         0.00058
       7 -> 45        -0.00078
       7 -> 47         0.00432
       7 -> 51         0.00117
       7 -> 54         0.00045
       8 -> 27         0.00063
       8 -> 38         0.00015
       8 -> 46         0.00550
       3 <-  9        -0.00987
       3 <- 13        -0.00055
       3 <- 18        -0.00297
       3 <- 23        -0.00050
       3 <- 28        -0.00068
       3 <- 31        -0.00065
       3 <- 44        -0.00026
       3 <- 48         0.00111
       3 <- 52         0.00079
       4 <-  9         0.00671
       4 <- 13        -0.00021
       4 <- 18         0.00202
       4 <- 23        -0.00055
       4 <- 28         0.00171
       4 <- 31        -0.00109
       4 <- 37        -0.00020
       4 <- 44         0.00011
       4 <- 48        -0.00100
       4 <- 52        -0.00035
       5 <- 27        -0.00078
       5 <- 38         0.00162
       5 <- 46         0.00092
       6 <-  9        -0.02460
       6 <- 13         0.00172
       6 <- 18        -0.00319
       6 <- 23        -0.00028
       6 <- 28        -0.00330
       6 <- 31         0.00137
       6 <- 37        -0.00197
       6 <- 44        -0.00164
       6 <- 48         0.00382
       6 <- 52         0.00052
       7 <- 10        -0.01226
       7 <- 11        -0.01229
       7 <- 14         0.01361
       7 <- 15         0.01411
       7 <- 17         0.00125
       7 <- 20         0.00522
       7 <- 21        -0.00455
       7 <- 24         0.00457
       7 <- 26         0.00183
       7 <- 29         0.00099
       7 <- 32        -0.00030
       7 <- 34         0.00039
       7 <- 35         0.00281
       7 <- 39         0.00042
       7 <- 41        -0.00029
       7 <- 43         0.00045
       7 <- 45        -0.00087
       7 <- 47         0.00392
       7 <- 51         0.00101
       7 <- 54         0.00108
       8 <- 27         0.00107
       8 <- 38         0.00032
       8 <- 46         0.00510

 Excited State   4:      Singlet-B2     6.3123 eV  196.42 nm  f=0.0164  <S**2>=0.000
       3 -> 12        -0.00161
       3 -> 16         0.00182
       3 -> 19        -0.00431
       3 -> 22         0.00039
       3 -> 25         0.00021
       3 -> 30        -0.00323
       3 -> 33        -0.00033
       3 -> 36         0.00210
       3 -> 40         0.00169
       3 -> 42         0.00018
       3 -> 49        -0.00239
       3 -> 50         0.00022
       3 -> 53         0.00028
       4 -> 12         0.00046
       4 -> 16        -0.00284
       4 -> 19        -0.00014
       4 -> 22         0.00331
       4 -> 25        -0.00229
       4 -> 30         0.00140
       4 -> 33        -0.00047
       4 -> 36         0.00051
       4 -> 40        -0.00051
       4 -> 49         0.00035
       4 -> 50        -0.00010
       5 -> 10         0.00389
       5 -> 11         0.00576
       5 -> 14        -0.01380
       5 -> 15         0.00208
       5 -> 17         0.00107
       5 -> 20         0.00193
       5 -> 21         0.00655
       5 -> 24         0.00189
       5 -> 26        -0.00200
       5 -> 29        -0.00197
       5 -> 32        -0.00124
       5 -> 34        -0.00131
       5 -> 35        -0.00058
       5 -> 39        -0.00096
       5 -> 41         0.00079
       5 -> 45         0.00023
       5 -> 47        -0.00083
       5 -> 51         0.00050
       5 -> 54        -0.00023
       6 -> 12         0.00340
       6 -> 16        -0.00145
       6 -> 19         0.00266
       6 -> 25        -0.00077
       6 -> 30        -0.00056
       6 -> 33         0.00041
       6 -> 36        -0.00219
       6 -> 40        -0.00172
       6 -> 42        -0.00031
       6 -> 49         0.00151
       6 -> 53        -0.00032
       7 -> 27        -0.00062
       7 -> 38         0.00094
       7 -> 46         0.00348
       8 -> 10         0.62728
       8 -> 11         0.29477
       8 -> 14        -0.11934
       8 -> 15        -0.07201
       8 -> 17        -0.01144
       8 -> 20        -0.00299
       8 -> 21         0.00584
       8 -> 24        -0.00600
       8 -> 26        -0.00556
       8 -> 29        -0.00909
       8 -> 32        -0.00248
       8 -> 34        -0.00167
       8 -> 35        -0.00060
       8 -> 39        -0.00054
       8 -> 41         0.00036
       8 -> 43        -0.00053
       8 -> 45         0.00202
       8 -> 47        -0.00392
       8 -> 51         0.00212
       8 -> 54        -0.00142
       3 <- 12        -0.00057
       3 <- 16         0.00044
       3 <- 19        -0.00203
       3 <- 22         0.00086
       3 <- 25         0.00026
       3 <- 30        -0.00129
       3 <- 33        -0.00029
       3 <- 36         0.00166
       3 <- 40         0.00151
       3 <- 42         0.00016
       3 <- 49        -0.00247
       3 <- 50         0.00019
       3 <- 53         0.00079
       4 <- 12        -0.00031
       4 <- 16        -0.00242
       4 <- 19        -0.00038
       4 <- 22         0.00280
       4 <- 25        -0.00141
       4 <- 30         0.00118
       4 <- 33        -0.00055
       4 <- 36         0.00071
       4 <- 40        -0.00016
       4 <- 42         0.00014
       4 <- 49         0.00027
       5 <- 10         0.00081
       5 <- 11        -0.00156
       5 <- 14        -0.00239
       5 <- 15         0.00380
       5 <- 17         0.00024
       5 <- 20         0.00044
       5 <- 21         0.00209
       5 <- 24         0.00271
       5 <- 26        -0.00067
       5 <- 29        -0.00051
       5 <- 32         0.00021
       5 <- 34        -0.00038
       5 <- 39        -0.00031
       5 <- 41         0.00078
       5 <- 43         0.00012
       5 <- 45         0.00053
       5 <- 47        -0.00064
       5 <- 51         0.00027
       6 <- 12         0.00013
       6 <- 16         0.00482
       6 <- 19        -0.00217
       6 <- 22        -0.00346
       6 <- 25        -0.00040
       6 <- 30        -0.00419
       6 <- 33         0.00066
       6 <- 36        -0.00218
       6 <- 40        -0.00169
       6 <- 42        -0.00036
       6 <- 49         0.00158
       6 <- 53        -0.00092
       7 <- 27        -0.00062
       7 <- 38         0.00073
       7 <- 46         0.00286
       8 <- 10        -0.01063
       8 <- 11        -0.01129
       8 <- 14         0.01107
       8 <- 15         0.00555
       8 <- 17         0.00024
       8 <- 20        -0.00216
       8 <- 21        -0.00236
       8 <- 24         0.00108
       8 <- 26         0.00203
       8 <- 29        -0.00085
       8 <- 32         0.00204
       8 <- 34         0.00140
       8 <- 39         0.00138
       8 <- 41         0.00059
       8 <- 43         0.00018
       8 <- 45         0.00252
       8 <- 47        -0.00279
       8 <- 51         0.00126
       8 <- 54        -0.00034

 Excited State   5:      Singlet-B2     7.0732 eV  175.29 nm  f=0.0028  <S**2>=0.000
       3 -> 12         0.00141
       3 -> 16         0.00158
       3 -> 19        -0.00100
       3 -> 22        -0.00038
       3 -> 25         0.00096
       3 -> 30        -0.00248
       3 -> 36         0.00056
       3 -> 40         0.00051
       3 -> 49        -0.00077
       4 -> 12        -0.00136
       4 -> 16         0.00052
       4 -> 19         0.00094
       4 -> 22        -0.00078
       4 -> 25         0.00059
       4 -> 30         0.00132
       4 -> 33        -0.00019
       4 -> 36         0.00037
       4 -> 50        -0.00012
       5 -> 10         0.00784
       5 -> 11        -0.00218
       5 -> 14         0.00140
       5 -> 15         0.00576
       5 -> 17         0.00107
       5 -> 20         0.00192
       5 -> 21         0.00036
       5 -> 24        -0.00031
       5 -> 26        -0.00043
       5 -> 29        -0.00052
       5 -> 32        -0.00154
       5 -> 34         0.00025
       5 -> 35        -0.00039
       5 -> 39        -0.00062
       5 -> 41        -0.00011
       5 -> 43        -0.00033
       5 -> 45         0.00034
       5 -> 47        -0.00041
       5 -> 51         0.00029
       6 -> 12        -0.00138
       6 -> 16        -0.00030
       6 -> 19         0.00048
       6 -> 22        -0.00101
       6 -> 25         0.00012
       6 -> 30        -0.00084
       6 -> 36        -0.00019
       6 -> 40        -0.00066
       6 -> 42        -0.00021
       6 -> 49         0.00130
       6 -> 50        -0.00011
       6 -> 53        -0.00011
       7 -> 27        -0.00064
       7 -> 38        -0.00018
       7 -> 46         0.00187
       8 -> 10        -0.30567
       8 -> 11         0.63600
       8 -> 14        -0.01231
       8 -> 15        -0.03964
       8 -> 17        -0.00575
       8 -> 20         0.01523
       8 -> 21         0.00401
       8 -> 24        -0.00363
       8 -> 26         0.00133
       8 -> 29        -0.00316
       8 -> 32        -0.00055

 The electronic state is 1-A1.
 Alpha  occ. eigenvalues --  -19.17114 -10.32429  -0.93481  -0.69395  -0.48831
 Alpha  occ. eigenvalues --   -0.41902  -0.33424  -0.28984
 Alpha virt. eigenvalues --   -0.14132  -0.00965   0.01536   0.04097   0.06134
 Alpha virt. eigenvalues --    0.09503   0.13394   0.14620   0.18946   0.21451
 Alpha virt. eigenvalues --    0.23951   0.30130   0.39264   0.41377   0.50956

 Mulliken charges:
               1
     1  C   -0.056137
     2  H    0.176661
     3  H    0.176661
     4  O   -0.297185
 Sum of Mulliken charges =   0.00000

 Dipole moment (field-independent basis, Debye):
    X=             -0.0000    Y=             -0.0000    Z=             -3.6992  Tot=              3.6992
 Quadrupole moment (field-independent basis, Debye-Ang):
   XX=            -12.6853   YY=            -11.8702   ZZ=            -11.3872
   XY=              0.0000   XZ=              0.0000   YZ=              0.0000

 Normal termination of Gaussian 16 at Fri Sep 17 10:52:59 2021.
