 Gaussian 16, Revision A.03,
 Gaussian 16:  ES64L-G16RevA.03 25-Dec-2016

 --------------------------------------------------------------------
 #p B3LYP/6-311+G** #p TD=(singlets,nstates=30)IOp(6/8=3) IOp(9/40=4)
 --------------------------------------------------------------------

 ------------------------------
 Scan Step 94, Bond Length 0.97
 ------------------------------
 Symbolic Z-matrix:
 Charge =  0 Multiplicity = 1

                         Standard orientation:
 ---------------------------------------------------------------------
 Center     Atomic      Atomic             Coordinates (Angstroms)
 Number     Number       Type             X           Y           Z
 ---------------------------------------------------------------------
      1          6           0        0.000000    0.000000   -0.411081
      2          1           0        0.000000    0.937260   -1.002431
      3          1           0       -0.000000   -0.937260   -1.002431
      4          8           0        0.000000   -0.000000    0.558919
 ---------------------------------------------------------------------

 SCF Done:  E(RB3LYP) =  -114.395553386     A.U. after    9 cycles

 Excitation energies and oscillator strengths:

 Excited State   1:      Singlet-A2     5.2458 eV  236.35 nm  f=0.0000  <S**2>=0.000
       3 -> 27         0.00300
       3 -> 36         0.00245
       3 -> 46         0.00157
       4 -> 27         0.00316
       4 -> 36        -0.00075
       4 -> 46        -0.00087
       5 ->  9         0.01414
       5 -> 13        -0.00923
       5 -> 17         0.00621
       5 -> 23        -0.00312
       5 -> 28         0.00342
       5 -> 31         0.00259
       5 -> 37         0.00395
       5 -> 43         0.00063
       5 -> 52         0.00082
       6 -> 12        -0.00061
       6 -> 16         0.00156
       6 -> 18        -0.00106
       6 -> 22         0.00172
       6 -> 24         0.00089
       6 -> 29        -0.00058
       6 -> 33         0.00031
       6 -> 35         0.00054
       6 -> 40        -0.00020
       6 -> 42         0.00045
       6 -> 48         0.00066
       6 -> 50        -0.00017
       6 -> 53         0.00035
       7 -> 27         0.00078
       7 -> 36        -0.00046
       7 -> 46         0.00144
       8 ->  9         0.69774
       8 -> 13        -0.11027
       8 -> 17         0.02776
       8 -> 23        -0.01081
       8 -> 28         0.00614
       8 -> 31         0.00351
       8 -> 37        -0.00192
       8 -> 43        -0.00025
       8 -> 47        -0.00010
       8 -> 52         0.00116
       3 <- 27         0.00215
       3 <- 36         0.00209
       3 <- 46         0.00164
       4 <- 27         0.00382
       4 <- 36        -0.00033
       4 <- 46        -0.00082
       5 <-  9         0.00023
       5 <- 13        -0.00106
       5 <- 17        -0.00033
       5 <- 23         0.00039
       5 <- 28        -0.00026
       5 <- 31        -0.00112
       5 <- 37         0.00177
       5 <- 43         0.00043
       5 <- 47         0.00014
       5 <- 52         0.00021
       6 <- 12        -0.00096
       6 <- 16        -0.00363
       6 <- 18        -0.00268
       6 <- 22         0.00568
       6 <- 24        -0.00127
       6 <- 29         0.00197
       6 <- 33        -0.00113
       6 <- 35         0.00232
       6 <- 40        -0.00031
       6 <- 42         0.00097
       6 <- 48         0.00049
       6 <- 53         0.00092
       7 <- 27         0.00106
       7 <- 36        -0.00048
       7 <- 46         0.00113
       8 <-  9        -0.01308
       8 <- 13         0.00720
       8 <- 17        -0.00392
       8 <- 23         0.00061
       8 <- 28        -0.00044
       8 <- 31         0.00235
       8 <- 37        -0.00223
       8 <- 52         0.00035
 This state for optimization and/or second-order correction.
 Total Energy, E(TD-HF/TD-DFT) =  -114.202775429
 Copying the excited state density for this state as the 1-particle RhoCI density.

 Excited State   2:      Singlet-B2     6.2460 eV  198.50 nm  f=0.0717  <S**2>=0.000
       3 -> 12         0.00103
       3 -> 16         0.00019
       3 -> 18         0.00113
       3 -> 22        -0.00013
       3 -> 24         0.00123
       3 -> 29        -0.00015
       3 -> 35        -0.00017
       3 -> 50        -0.00013
       4 -> 12        -0.00541
       4 -> 16        -0.00022
       4 -> 18         0.00218
       4 -> 22        -0.00299
       4 -> 24         0.00400
       4 -> 29        -0.00030
       4 -> 33        -0.00093
       4 -> 35         0.00089
       4 -> 40        -0.00026
       4 -> 42         0.00043
       5 -> 10        -0.00016
       5 -> 11        -0.00813
       5 -> 14         0.00606
       5 -> 15        -0.00149
       5 -> 19         0.00355
       5 -> 20        -0.00069
       5 -> 21         0.00362
       5 -> 25         0.00083
       5 -> 26        -0.00162
       5 -> 30         0.00250
       5 -> 32        -0.00020
       5 -> 38        -0.00064
       5 -> 39         0.00022
       5 -> 41         0.00019
       5 -> 44        -0.00048
       5 -> 45        -0.00058
       5 -> 49         0.00031
       6 -> 27         0.00075
       6 -> 46         0.00081
       7 -> 12         0.00187
       7 -> 16        -0.00089
       7 -> 18         0.00431
       7 -> 22        -0.00255
       7 -> 24         0.00210
       7 -> 29        -0.00011
       7 -> 42        -0.00038
       7 -> 48         0.00036
       7 -> 50         0.00051
       8 -> 10         0.70595
       8 -> 11        -0.03015
       8 -> 14        -0.00938
       8 -> 15        -0.01107
       8 -> 19         0.01917
       8 -> 20         0.00918
       8 -> 21        -0.00656
       8 -> 25         0.00083
       8 -> 26        -0.00085
       8 -> 30         0.00027
       8 -> 32         0.00224
       8 -> 34         0.00180
       8 -> 38         0.00068
       8 -> 39        -0.00058
       8 -> 41        -0.00022
       8 -> 44         0.00064
       8 -> 45        -0.00097
       8 -> 49         0.00022
       8 -> 54         0.00016
       3 <- 12         0.00031
       3 <- 16         0.00030
       3 <- 18         0.00058
       3 <- 22        -0.00021
       3 <- 24         0.00085
       3 <- 29        -0.00014
       3 <- 35        -0.00017
       4 <- 12         0.00027
       4 <- 16         0.00028
       4 <- 18         0.00278
       4 <- 22        -0.00181
       4 <- 24         0.00295
       4 <- 29        -0.00023
       4 <- 33        -0.00067
       4 <- 35         0.00064
       4 <- 40        -0.00025
       4 <- 42         0.00013
       5 <- 10         0.00230
       5 <- 14         0.00461
       5 <- 15        -0.00149
       5 <- 19         0.00089
       5 <- 21         0.00204
       5 <- 25         0.00168
       5 <- 26        -0.00133
       5 <- 30         0.00088
       5 <- 32        -0.00050
       5 <- 34        -0.00018
       5 <- 38        -0.00048
       5 <- 39         0.00017
       5 <- 41         0.00028
       5 <- 44        -0.00032
       5 <- 45        -0.00050
       5 <- 49         0.00027
       6 <- 27         0.00058
       6 <- 46         0.00069
       7 <- 12         0.00053
       7 <- 16        -0.00104
       7 <- 18         0.00179
       7 <- 22        -0.00099
       7 <- 24         0.00090
       7 <- 29         0.00054
       7 <- 33        -0.00015
       7 <- 35         0.00015
       7 <- 42        -0.00035
       7 <- 48         0.00032
       7 <- 50         0.00054
       8 <- 10        -0.00357
       8 <- 11        -0.00133
       8 <- 14        -0.01073
       8 <- 15         0.00100
       8 <- 19        -0.00076
       8 <- 20        -0.00034
       8 <- 21        -0.00374
       8 <- 25        -0.00302
       8 <- 26        -0.00049
       8 <- 30        -0.00059
       8 <- 32         0.00095
       8 <- 34         0.00161
       8 <- 38         0.00070
       8 <- 39        -0.00047
       8 <- 44         0.00053
       8 <- 45        -0.00067
       8 <- 49         0.00023
       8 <- 51         0.00010

 Excited State   3:      Singlet-B2     7.0334 eV  176.28 nm  f=0.0206  <S**2>=0.000
       3 -> 12        -0.00015
       3 -> 16        -0.00069
       3 -> 18         0.00025
       3 -> 22         0.00019
       3 -> 24         0.00039
       3 -> 29         0.00120
       3 -> 33         0.00014
       3 -> 35        -0.00031
       3 -> 42        -0.00033
       3 -> 48         0.00021
       3 -> 50         0.00025
       4 -> 12         0.00307
       4 -> 16        -0.00276
       4 -> 18         0.00306
       4 -> 22        -0.00155
       4 -> 24         0.00352
       4 -> 29        -0.00108
       4 -> 33         0.00055
       4 -> 35        -0.00027
       4 -> 40        -0.00021
       4 -> 48         0.00016
       4 -> 50         0.00015
       5 -> 10        -0.00635
       5 -> 11         0.00025
       5 -> 14         0.00410
       5 -> 15        -0.00556
       5 -> 19        -0.00377
       5 -> 20        -0.00160
       5 -> 21         0.00119
       5 -> 25         0.00118
       5 -> 26         0.00121
       5 -> 30         0.00090
       5 -> 32        -0.00190
       5 -> 34        -0.00075
       5 -> 39        -0.00061
       5 -> 41        -0.00083
       5 -> 45         0.00065
       5 -> 49        -0.00044
       5 -> 51        -0.00026
       6 -> 27        -0.00071
       6 -> 36        -0.00128
       6 -> 46        -0.00123
       7 -> 12        -0.00310
       7 -> 16        -0.00110
       7 -> 18        -0.00219
       7 -> 22         0.00142
       7 -> 24        -0.00012
       7 -> 29         0.00019
       7 -> 33        -0.00033
       7 -> 35         0.00134
       7 -> 40        -0.00039
       7 -> 42         0.00073
       7 -> 48        -0.00069
       7 -> 50        -0.00066
       7 -> 53         0.00015
       8 -> 10         0.03073
       8 -> 11         0.70545
       8 -> 14        -0.01477
       8 -> 15         0.02082
       8 -> 19        -0.02063
       8 -> 20         0.01396
       8 -> 21        -0.00225
       8 -> 25         0.00032
       8 -> 26         0.00050
       8 -> 30        -0.00157
       8 -> 34         0.00042
       8 -> 38        -0.00011
       8 -> 39        -0.00034
       8 -> 41        -0.00141
       8 -> 45         0.00084
       8 -> 49        -0.00074
       8 -> 51        -0.00026
       8 -> 54        -0.00017
       3 <- 12         0.00028
       3 <- 16        -0.00049
       3 <- 18         0.00054
       3 <- 24         0.00046
       3 <- 29         0.00077
       3 <- 33         0.00019
       3 <- 35        -0.00035
       3 <- 42        -0.00028
       3 <- 48         0.00017
       3 <- 50         0.00014
       3 <- 53        -0.00022
       4 <- 12         0.00033
       4 <- 18         0.00120
       4 <- 22        -0.00126
       4 <- 24         0.00156
       4 <- 29        -0.00045
       4 <- 33         0.00054
       4 <- 40        -0.00020
       4 <- 42        -0.00014
       4 <- 50         0.00022
       5 <- 10         0.00135
       5 <- 11        -0.00051
       5 <- 14         0.00199
       5 <- 15        -0.00050
       5 <- 19         0.00066
       5 <- 20         0.00012
       5 <- 21         0.00098
       5 <- 25         0.00098
       5 <- 26         0.00086
       5 <- 30         0.00078
       5 <- 32        -0.00045
       5 <- 34        -0.00120
       5 <- 38         0.00013
       5 <- 39        -0.00039
       5 <- 41        -0.00085
       5 <- 44        -0.00013
       5 <- 45         0.00064
       5 <- 49        -0.00030
       5 <- 51        -0.00025
       6 <- 27        -0.00027
       6 <- 36        -0.00104
       6 <- 46        -0.00106
       7 <- 12        -0.00036
       7 <- 16         0.00011
       7 <- 18        -0.00030
       7 <- 22         0.00033
       7 <- 29        -0.00014
       7 <- 33        -0.00012
       7 <- 35         0.00096
       7 <- 40        -0.00030
       7 <- 42         0.00051
       7 <- 48        -0.00059
       7 <- 50        -0.00058
       8 <- 10        -0.00129
       8 <- 11         0.00095
       8 <- 14        -0.00541
       8 <- 15         0.00099
       8 <- 19         0.00235
       8 <- 20        -0.00169
       8 <- 21        -0.00239
       8 <- 25        -0.00022
       8 <- 26         0.00116
       8 <- 30        -0.00093
       8 <- 32         0.00114
       8 <- 34        -0.00011
       8 <- 38        -0.00026
       8 <- 39        -0.00010
       8 <- 41        -0.00119
       8 <- 45         0.00071
       8 <- 49        -0.00048
       8 <- 51        -0.00025

 Excited State   4:      Singlet-A1     7.1723 eV  172.87 nm  f=0.0500  <S**2>=0.000
       3 -> 10         0.00144
       3 -> 11        -0.00094
       3 -> 14         0.00028
       3 -> 15        -0.00050
       3 -> 19         0.00121
       3 -> 20         0.00063
       3 -> 26        -0.00028
       3 -> 30         0.00116
       3 -> 32        -0.00030
       3 -> 34        -0.00021
       3 -> 38        -0.00035
       3 -> 39        -0.00019
       3 -> 41        -0.00018
       3 -> 49        -0.00014
       3 -> 51        -0.00033
       3 -> 54        -0.00021
       4 -> 10         0.00554
       4 -> 11         0.00945
       4 -> 14         0.00617
       4 -> 15        -0.00101
       4 -> 19         0.00072
       4 -> 20         0.00626
       4 -> 21         0.00251
       4 -> 25         0.00700
       4 -> 26        -0.00080
       4 -> 30        -0.00063
       4 -> 32        -0.00039
       4 -> 34        -0.00092
       4 -> 38        -0.00014
       4 -> 39         0.00059
       4 -> 41         0.00021
       4 -> 45        -0.00030
       4 -> 49        -0.00024
       5 -> 12         0.00776
       5 -> 16        -0.00468
       5 -> 18         0.01036
       5 -> 22        -0.00010
       5 -> 24         0.00462
       5 -> 29         0.00045
       5 -> 33        -0.00016
       5 -> 35         0.00089
       5 -> 42        -0.00019
       5 -> 50        -0.00036
       5 -> 53        -0.00015
       6 ->  9         0.00929
       6 -> 13         0.00516
       6 -> 17         0.00508
       6 -> 23         0.00461
       6 -> 28         0.00038
       6 -> 31         0.00086
       6 -> 37         0.00054
       6 -> 43         0.00058
       6 -> 47        -0.00037
       7 -> 10         0.01336
       7 -> 11        -0.00478
       7 -> 14         0.00359
       7 -> 15         0.00137
       7 -> 19         0.00664
       7 -> 20         0.00388
       7 -> 21         0.00156
       7 -> 25         0.00218
       7 -> 26        -0.00047
       7 -> 30        -0.00024
       7 -> 32         0.00056
       7 -> 34        -0.00084
       7 -> 39         0.00017
       7 -> 44         0.00011
       7 -> 49        -0.00019
       7 -> 51         0.00052
       8 -> 12         0.70559
       8 -> 16        -0.03507
       8 -> 18         0.01630
       8 -> 22         0.00471
       8 -> 24         0.00154
       8 -> 29         0.00252
       8 -> 33         0.00151
       8 -> 35        -0.00235
       8 -> 42         0.00121
       8 -> 48        -0.00038
       8 -> 50        -0.00020
       8 -> 53        -0.00016
       3 <- 10         0.00057
       3 <- 11        -0.00030
       3 <- 14         0.00019
       3 <- 15        -0.00021
       3 <- 19         0.00062
       3 <- 20         0.00028
       3 <- 25         0.00024
       3 <- 26        -0.00011
       3 <- 30         0.00069
       3 <- 32        -0.00024
       3 <- 34        -0.00012
       3 <- 38        -0.00027
       3 <- 39        -0.00017
       3 <- 41        -0.00016
       3 <- 45         0.00011
       3 <- 49        -0.00016
       3 <- 51        -0.00028
       3 <- 54        -0.00019
       4 <- 10         0.00542
       4 <- 11         0.00302
       4 <- 14         0.00455
       4 <- 15        -0.00123
       4 <- 19         0.00056
       4 <- 20         0.00353
       4 <- 21         0.00097
       4 <- 25         0.00412
       4 <- 26        -0.00038
       4 <- 32        -0.00067
       4 <- 34        -0.00093
       4 <- 38        -0.00022
       4 <- 39         0.00054
       4 <- 45        -0.00029
       4 <- 49        -0.00020
       5 <- 12         0.00272
       5 <- 16        -0.00054
       5 <- 18         0.00434
       5 <- 22         0.00031
       5 <- 24         0.00250
       5 <- 33        -0.00031
       5 <- 35         0.00079
       5 <- 42        -0.00017
       5 <- 50        -0.00027
       5 <- 53        -0.00014
       6 <-  9         0.00252
       6 <- 13         0.00179
       6 <- 17         0.00206
       6 <- 23         0.00260
       6 <- 28         0.00018
       6 <- 31         0.00064
       6 <- 37         0.00043
       6 <- 43         0.00049
       6 <- 47        -0.00032
       7 <- 10         0.00423
       7 <- 11        -0.00091
       7 <- 14         0.00165
       7 <- 15         0.00046
       7 <- 19         0.00264
       7 <- 20         0.00211
       7 <- 21         0.00060
       7 <- 25         0.00124
       7 <- 26        -0.00048
       7 <- 32         0.00030
       7 <- 34        -0.00063
       7 <- 39         0.00024
       7 <- 41         0.00013
       7 <- 51         0.00048
       8 <- 12        -0.00274
       8 <- 16        -0.00790
       8 <- 18        -0.00686
       8 <- 22         0.00012
       8 <- 24        -0.00237
       8 <- 29         0.00099
       8 <- 33         0.00101
       8 <- 35        -0.00153
       8 <- 42         0.00100
       8 <- 48        -0.00045
       8 <- 50        -0.00017
       8 <- 53        -0.00017

 Excited State   5:      Singlet-A2     7.7547 eV  159.88 nm  f=0.0000  <S**2>=0.000
       3 -> 27        -0.00117
       3 -> 36        -0.00101
       3 -> 46        -0.00055
       4 -> 27        -0.00026
       4 -> 36         0.00065
       4 -> 46         0.00018
       5 ->  9        -0.00979
       5 -> 13         0.00392
       5 -> 17         0.00411
       5 -> 31        -0.00208
       5 -> 37        -0.00186
       5 -> 43        -0.00029
       5 -> 52        -0.00028
       6 -> 12        -0.00040
       6 -> 16        -0.00202
       6 -> 18         0.00112
       6 -> 22        -0.00097
       6 -> 24        -0.00026
       6 -> 29         0.00028
       6 -> 35        -0.00027
       6 -> 42        -0.00023
       6 -> 48        -0.00023
       6 -> 53        -0.00014
       7 -> 36         0.00027
       7 -> 46        -0.00058
       8 ->  9         0.11059
       8 -> 13         0.69798
       8 -> 17         0.00469
       8 -> 23         0.02133
       8 -> 28        -0.00094
       8 -> 31        -0.00129
       8 -> 37         0.00041
       8 -> 43         0.00010
       8 -> 47         0.00018
       8 -> 52        -0.00033
       3 <- 27        -0.00062
       3 <- 36        -0.00080
       3 <- 46        -0.00065
       4 <- 27        -0.00077
       4 <- 46         0.00020
       5 <-  9        -0.00027
       5 <- 17         0.00062
       5 <- 23        -0.00011
       5 <- 31         0.00010
       5 <- 37        -0.00053
       5 <- 43        -0.00014
       6 <- 12        -0.00058
       6 <- 16        -0.00054
       6 <- 18         0.00060
       6 <- 22        -0.00196
       6 <- 33         0.00060
       6 <- 35        -0.00106
       6 <- 40         0.00014
       6 <- 42        -0.00057
       6 <- 53        -0.00028
       7 <- 27        -0.00024
       7 <- 36         0.00025
       7 <- 46        -0.00025
       8 <-  9         0.00519
       8 <- 13         0.00059
       8 <- 17         0.00043
       8 <- 23        -0.00042
       8 <- 28         0.00017
       8 <- 31        -0.00053
       8 <- 37         0.00058
       8 <- 52        -0.00014

 Excited State   6:      Singlet-B2    10.1209 eV  122.50 nm  f=0.2587  <S**2>=0.000
       3 -> 12        -0.00041
       3 -> 16        -0.00189
       3 -> 18        -0.00021
       3 -> 22         0.00142
       3 -> 24         0.00077
       3 -> 29         0.00133

 The electronic state is 1-A1.
 Alpha  occ. eigenvalues --  -19.13850 -10.24232  -1.22020  -0.60829  -0.57117
 Alpha  occ. eigenvalues --   -0.51307  -0.50359  -0.25517
 Alpha virt. eigenvalues --   -0.00105   0.01341   0.04303   0.04393   0.07755
 Alpha virt. eigenvalues --    0.13940   0.17938   0.20331   0.21963   0.22595
 Alpha virt. eigenvalues --    0.26694   0.35996   0.49596   0.51663   0.51809

 Mulliken charges:
               1
     1  C    0.137280
     2  H    0.034634
     3  H    0.034634
     4  O   -0.206548
 Sum of Mulliken charges =  -0.00000

 Dipole moment (field-independent basis, Debye):
    X=              0.0000    Y=              0.0000    Z=             -1.1190  Tot=              1.1190
 Quadrupole moment (field-independent basis, Debye-Ang):
   XX=            -11.0281   YY=            -12.0756   ZZ=            -13.0258
   XY=             -0.0000   XZ=             -0.0000   YZ=             -0.0000

 Normal termination of Gaussian 16 at Fri Sep 17 10:52:35 2021.
