 Gaussian 16, Revision C.01,
 Gaussian 16:  ES64L-G16RevC.01  3-Jul-2019

 ----------------------------------------
 #P wB97XD/6-311+G* NoSymm #P Field=Z-116
 ----------------------------------------

 -------
 TitleMe
 -------
 Symbolic Z-matrix:
 Charge =  1 Multiplicity = 1

                          Input orientation:
 ---------------------------------------------------------------------
 Center     Atomic      Atomic             Coordinates (Angstroms)
 Number     Number       Type             X           Y           Z
 ---------------------------------------------------------------------
      1          6           0        0.029500    1.339700    0.068200
      2          6           0        1.434800    1.286700    0.006400
      3          6           0        2.111800    0.051100   -0.005400
      4          6           0        1.445100   -1.137200    0.031200
      5          6           0       -0.687900    0.168200    0.110000
      6          1           0       -0.471300    2.298400    0.078100
      7          1           0        2.027300    2.196500   -0.032200
      8          1           0        1.989700   -2.076400    0.023200
      9          1           0       -1.771600    0.180400    0.158200
     10          7           0        3.586400    0.051000   -0.067500
     11          8           0        4.147100   -1.059700   -0.088100
     12          8           0        4.145000    1.163900   -0.090100
     13          6           0       -0.023600   -1.145800    0.083500
     14          1           0       -0.436700   -1.872500    0.788900
     15         35           0       -0.535900   -1.869700   -1.740800
 ---------------------------------------------------------------------

 SCF Done:  E(RwB97XD) =  -3010.53983030     A.U. after   18 cycles

 Alpha  occ. eigenvalues -- -483.32958 -62.88010 -56.67666 -56.67145 -56.67144
 Alpha  occ. eigenvalues --  -19.46166 -19.46083 -14.85664 -10.59065 -10.57979
 Alpha  occ. eigenvalues --  -10.57561 -10.57379 -10.57088 -10.53250  -9.03835
 Alpha  occ. eigenvalues --   -6.86413  -6.84697  -6.84684  -2.96341  -2.95883
 Alpha  occ. eigenvalues --   -2.95871  -2.94498  -2.94498  -1.49918  -1.32890
 Alpha  occ. eigenvalues --   -1.23106  -1.14783  -1.12169  -1.05704  -1.01360
 Alpha  occ. eigenvalues --   -0.95919  -0.91307  -0.85554  -0.81077  -0.80952
 Alpha  occ. eigenvalues --   -0.80282  -0.78581  -0.76393  -0.76251  -0.73075
 Alpha  occ. eigenvalues --   -0.69718  -0.67915  -0.64430  -0.61159  -0.58527
 Alpha  occ. eigenvalues --   -0.57334  -0.56670  -0.56307  -0.55874
 Alpha virt. eigenvalues --   -0.30274  -0.21603  -0.16824  -0.13923  -0.11543
 Alpha virt. eigenvalues --   -0.08236  -0.07633  -0.06991  -0.05418  -0.04288
 Alpha virt. eigenvalues --   -0.03631  -0.02905  -0.02521  -0.02395  -0.01708

 Mulliken charges:
               1
     1  C   -0.600571
     2  C    0.553821
     3  C   -0.727242
     4  C    0.301055
     5  C    0.039559
     6  H    0.338620
     7  H    0.367907
     8  H    0.377627
     9  H    0.355986
    10  N   -0.106588
    11  O    0.032406
    12  O    0.028647
    13  C   -0.472671
    14  H    0.444083
    15  Br   0.067362
 Sum of Mulliken charges =   1.00000

 Dipole moment (field-independent basis, Debye):
    X=             -0.5471    Y=             -0.1556    Z=              1.9868  Tot=              2.0666
 Quadrupole moment (field-independent basis, Debye-Ang):
   XX=            -70.8631   YY=            -52.5988   ZZ=            -64.8978
   XY=              0.9871   XZ=              2.0329   YZ=             -0.0547

 Normal termination of Gaussian 16 at Wed May  1 15:22:43 2024.
