 Gaussian 16, Revision A.03,
 Gaussian 16:  ES64L-G16RevA.03 25-Dec-2016

 --------------------------------------------------------------------
 #p B3LYP/6-311+G** #p TD=(singlets,nstates=30)IOp(6/8=3) IOp(9/40=4)
 --------------------------------------------------------------------

 -------------------------------
 Scan Step 55, Bond Length 0.775
 -------------------------------
 Symbolic Z-matrix:
 Charge =  0 Multiplicity = 1

                         Standard orientation:
 ---------------------------------------------------------------------
 Center     Atomic      Atomic             Coordinates (Angstroms)
 Number     Number       Type             X           Y           Z
 ---------------------------------------------------------------------
      1          6           0        0.000000    0.000000   -0.313581
      2          1           0        0.000000    0.937260   -0.904931
      3          1           0       -0.000000   -0.937260   -0.904931
      4          8           0        0.000000    0.000000    0.461419
 ---------------------------------------------------------------------

 SCF Done:  E(RB3LYP) =  -113.687792779     A.U. after    9 cycles

 Excitation energies and oscillator strengths:

 Excited State   1:      Singlet-B2     5.3347 eV  232.41 nm  f=0.1059  <S**2>=0.000
       3 -> 11        -0.00078
       3 -> 16        -0.00043
       3 -> 19        -0.00084
       3 -> 23        -0.00020
       3 -> 24         0.00103
       3 -> 29         0.00022
       3 -> 32         0.00010
       3 -> 40        -0.00012
       3 -> 42        -0.00018
       3 -> 50         0.00014
       3 -> 53        -0.00012
       4 ->  9         0.00273
       4 -> 12        -0.00460
       4 -> 14        -0.00428
       4 -> 15        -0.00163
       4 -> 18        -0.00345
       4 -> 20        -0.00173
       4 -> 21        -0.00212
       4 -> 25        -0.00149
       4 -> 26         0.00085
       4 -> 30         0.00130
       4 -> 31        -0.00123
       4 -> 34        -0.00045
       4 -> 38         0.00078
       4 -> 41         0.00052
       4 -> 44         0.00038
       4 -> 46         0.00070
       4 -> 48        -0.00031
       5 -> 28        -0.00144
       5 -> 35        -0.00056
       5 -> 45        -0.00086
       6 -> 11         0.00706
       6 -> 16        -0.00185
       6 -> 19        -0.00049
       6 -> 23         0.00174
       6 -> 24         0.00433
       6 -> 29         0.00088
       6 -> 32         0.00105
       6 -> 36        -0.00072
       6 -> 42        -0.00037
       7 -> 11        -0.00407
       7 -> 16        -0.00404
       7 -> 19        -0.00298
       7 -> 23         0.00113
       7 -> 24         0.00225
       7 -> 29        -0.00045
       7 -> 32        -0.00027
       7 -> 36         0.00046
       7 -> 42         0.00039
       7 -> 47        -0.00046
       7 -> 50        -0.00046
       7 -> 53         0.00011
       8 ->  9         0.70593
       8 -> 12        -0.00130
       8 -> 14         0.03453
       8 -> 15        -0.00971
       8 -> 18        -0.02139
       8 -> 20         0.00635
       8 -> 21         0.00921
       8 -> 25        -0.00040
       8 -> 26         0.00013
       8 -> 30        -0.00089
       8 -> 31        -0.00324
       8 -> 34        -0.00128
       8 -> 38        -0.00106
       8 -> 39         0.00036
       8 -> 41        -0.00065
       8 -> 44         0.00014
       8 -> 46         0.00095
       8 -> 48        -0.00034
       8 -> 54         0.00011
       3 <- 11        -0.00029
       3 <- 16        -0.00011
       3 <- 19        -0.00055
       3 <- 23        -0.00012
       3 <- 24         0.00077
       3 <- 29         0.00020
       3 <- 32         0.00012
       3 <- 40        -0.00012
       3 <- 42        -0.00017
       3 <- 53        -0.00013
       4 <-  9         0.00166
       4 <- 12         0.00022
       4 <- 14        -0.00348
       4 <- 15        -0.00189
       4 <- 18        -0.00083
       4 <- 20        -0.00084
       4 <- 21        -0.00148
       4 <- 25        -0.00151
       4 <- 26         0.00126
       4 <- 30         0.00045
       4 <- 31        -0.00042
       4 <- 34        -0.00027
       4 <- 38         0.00049
       4 <- 39        -0.00017
       4 <- 41         0.00045
       4 <- 44         0.00028
       4 <- 46         0.00063
       4 <- 48        -0.00025
       5 <- 28        -0.00116
       5 <- 35        -0.00045
       5 <- 45        -0.00073
       6 <- 11         0.00066
       6 <- 16        -0.00197
       6 <- 19        -0.00162
       6 <- 23         0.00085
       6 <- 24         0.00335
       6 <- 29         0.00066
       6 <- 32         0.00084
       6 <- 36        -0.00059
       6 <- 40         0.00011
       6 <- 42        -0.00020
       7 <- 11        -0.00088
       7 <- 16        -0.00232
       7 <- 19        -0.00065
       7 <- 23         0.00043
       7 <- 24         0.00101
       7 <- 29        -0.00106
       7 <- 32        -0.00016
       7 <- 36         0.00017
       7 <- 42         0.00030
       7 <- 47        -0.00046
       7 <- 50        -0.00054
       8 <-  9        -0.00609
       8 <- 12        -0.00360
       8 <- 14         0.01639
       8 <- 15         0.00413
       8 <- 18         0.00138
       8 <- 21         0.00471
       8 <- 25         0.00316
       8 <- 26         0.00051
       8 <- 30        -0.00074
       8 <- 31        -0.00190
       8 <- 34        -0.00149
       8 <- 38        -0.00102
       8 <- 39         0.00030
       8 <- 41        -0.00049
       8 <- 46         0.00076
       8 <- 48        -0.00028
 This state for optimization and/or second-order correction.
 Total Energy, E(TD-HF/TD-DFT) =  -113.491747516
 Copying the excited state density for this state as the 1-particle RhoCI density.

 Excited State   2:      Singlet-A2     5.4892 eV  225.87 nm  f=0.0000  <S**2>=0.000
       3 -> 28         0.00222
       3 -> 35         0.00157
       3 -> 45         0.00068
       4 -> 10         0.00219
       4 -> 13         0.00429
       4 -> 17         0.00502
       4 -> 22        -0.00277
       4 -> 27         0.00253
       4 -> 33         0.00060
       4 -> 37         0.00230
       4 -> 43         0.00030
       4 -> 49         0.00011
       4 -> 52         0.00044
       5 -> 11        -0.00042
       5 -> 16        -0.00013
       5 -> 19        -0.00038
       5 -> 23         0.00130
       5 -> 32         0.00017
       5 -> 36         0.00041
       5 -> 42         0.00044
       5 -> 47         0.00050
       5 -> 50        -0.00019
       5 -> 53         0.00016
       6 -> 28         0.00368
       6 -> 35        -0.00058
       6 -> 45        -0.00033
       7 -> 28         0.00044
       7 -> 45         0.00070
       8 -> 10         0.70305
       8 -> 13         0.06952
       8 -> 17         0.03010
       8 -> 22        -0.00041
       8 -> 27         0.00319
       8 -> 33         0.00319
       8 -> 37        -0.00228
       8 -> 52         0.00056
       3 <- 28         0.00174
       3 <- 35         0.00135
       3 <- 45         0.00068
       4 <- 10         0.00018
       4 <- 13         0.00101
       4 <- 17         0.00054
       4 <- 27         0.00020
       4 <- 33        -0.00091
       4 <- 37         0.00115
       4 <- 43         0.00034
       4 <- 52         0.00011
       5 <- 11        -0.00078
       5 <- 16         0.00083
       5 <- 19        -0.00223
       5 <- 23         0.00249
       5 <- 24         0.00160
       5 <- 29         0.00144
       5 <- 32        -0.00046
       5 <- 36         0.00118
       5 <- 42         0.00058
       5 <- 47         0.00043
       5 <- 53         0.00042
       6 <- 28         0.00380
       6 <- 35        -0.00063
       6 <- 45        -0.00034
       7 <- 28         0.00035
       7 <- 45         0.00062
       8 <- 10        -0.00190
       8 <- 13        -0.00758
       8 <- 17        -0.00500
       8 <- 22         0.00026
       8 <- 27        -0.00039
       8 <- 33         0.00301
       8 <- 37        -0.00191
       8 <- 43         0.00011
       8 <- 52         0.00018

 Excited State   3:      Singlet-B2     6.1734 eV  200.84 nm  f=0.0277  <S**2>=0.000
       3 -> 11         0.00011
       3 -> 16        -0.00055
       3 -> 19         0.00020
       3 -> 23        -0.00024
       3 -> 24         0.00043
       3 -> 29        -0.00065
       3 -> 32        -0.00013
       3 -> 36         0.00026
       3 -> 42         0.00026
       3 -> 47        -0.00018
       3 -> 50        -0.00016
       3 -> 53         0.00014
       4 ->  9        -0.00319
       4 -> 12        -0.00031
       4 -> 14        -0.00189
       4 -> 15        -0.00344
       4 -> 18         0.00225
       4 -> 20         0.00012
       4 -> 21        -0.00141
       4 -> 25        -0.00082
       4 -> 26        -0.00095
       4 -> 30         0.00121
       4 -> 31         0.00201
       4 -> 34         0.00020
       4 -> 39         0.00092
       4 -> 41        -0.00044
       4 -> 46        -0.00061
       4 -> 48         0.00026
       4 -> 51         0.00014
       5 -> 28         0.00096
       5 -> 35         0.00132
       5 -> 45         0.00085
       6 -> 11        -0.00149
       6 -> 16        -0.00504
       6 -> 23         0.00079
       6 -> 24         0.00361
       6 -> 29         0.00160
       6 -> 32        -0.00053
       6 -> 36        -0.00019
       6 -> 40         0.00033
       6 -> 42        -0.00015
       7 -> 11         0.00275
       7 -> 16         0.00151
       7 -> 19         0.00223
       7 -> 23        -0.00113
       7 -> 24        -0.00141
       7 -> 32         0.00025
       7 -> 36        -0.00098
       7 -> 40         0.00026
       7 -> 42        -0.00047
       7 -> 47         0.00066
       7 -> 50         0.00048
       7 -> 53        -0.00018
       8 ->  9         0.00101
       8 -> 12         0.70595
       8 -> 14         0.02351
       8 -> 15         0.02605
       8 -> 18         0.01280
       8 -> 20         0.01575
       8 -> 21         0.00435
       8 -> 25        -0.00064
       8 -> 26         0.00119
       8 -> 30        -0.00202
       8 -> 31        -0.00069
       8 -> 34        -0.00032
       8 -> 39         0.00121
       8 -> 41        -0.00097
       8 -> 46        -0.00064
       8 -> 48         0.00032
       8 -> 54        -0.00015
       3 <- 11        -0.00015
       3 <- 16        -0.00055
       3 <- 24         0.00048
       3 <- 29        -0.00044
       3 <- 32        -0.00015
       3 <- 36         0.00027
       3 <- 42         0.00023
       3 <- 47        -0.00014
       3 <- 53         0.00022
       4 <-  9         0.00133
       4 <- 14        -0.00157
       4 <- 15        -0.00068
       4 <- 18        -0.00064
       4 <- 20         0.00041
       4 <- 21        -0.00097
       4 <- 25        -0.00094
       4 <- 26        -0.00087
       4 <- 30         0.00108
       4 <- 31         0.00088
       4 <- 34         0.00073
       4 <- 39         0.00070
       4 <- 41        -0.00044
       4 <- 46        -0.00060
       4 <- 48         0.00015
       4 <- 51         0.00013
       5 <- 28         0.00052
       5 <- 35         0.00111
       5 <- 45         0.00075
       6 <- 16        -0.00116
       6 <- 19        -0.00086
       6 <- 23         0.00105
       6 <- 24         0.00213
       6 <- 29         0.00088
       6 <- 32        -0.00061
       6 <- 36        -0.00039
       6 <- 40         0.00032
       7 <- 11         0.00033
       7 <- 16         0.00070
       7 <- 19         0.00031
       7 <- 23        -0.00032
       7 <- 24        -0.00051
       7 <- 29         0.00045
       7 <- 36        -0.00061
       7 <- 40         0.00020
       7 <- 42        -0.00033
       7 <- 47         0.00058
       7 <- 50         0.00049
       8 <-  9        -0.00331
       8 <- 12         0.00136
       8 <- 14         0.00884
       8 <- 15         0.00285
       8 <- 18        -0.00140
       8 <- 20        -0.00255
       8 <- 21         0.00312
       8 <- 25         0.00060
       8 <- 26        -0.00040
       8 <- 30        -0.00170
       8 <- 31        -0.00092
       8 <- 38         0.00017
       8 <- 39         0.00097
       8 <- 41        -0.00083
       8 <- 46        -0.00053
       8 <- 48         0.00017

 Excited State   4:      Singlet-A1     6.3198 eV  196.18 nm  f=0.0250  <S**2>=0.000
       3 ->  9        -0.00122
       3 -> 12         0.00063
       3 -> 15         0.00063
       3 -> 18         0.00138
       3 -> 21        -0.00055
       3 -> 25         0.00041
       3 -> 26         0.00017
       3 -> 30        -0.00100
       3 -> 34        -0.00028
       3 -> 38        -0.00031
       3 -> 39        -0.00031
       3 -> 51        -0.00023
       3 -> 54         0.00018
       4 -> 11         0.00681
       4 -> 16         0.00774
       4 -> 19         0.00497
       4 -> 23         0.00174
       4 -> 24        -0.00356
       4 -> 29         0.00070
       4 -> 32        -0.00013
       4 -> 36         0.00102
       4 -> 42        -0.00027
       4 -> 50        -0.00030
       5 -> 10         0.00525
       5 -> 13        -0.00267
       5 -> 17         0.00449
       5 -> 22         0.00350
       5 -> 27         0.00100
       5 -> 33         0.00093
       5 -> 37         0.00056
       5 -> 43         0.00030
       5 -> 49        -0.00033
       6 ->  9        -0.00726
       6 -> 12        -0.01065
       6 -> 14         0.00583
       6 -> 15         0.00381
       6 -> 18         0.00292
       6 -> 20        -0.00682
       6 -> 21         0.00068
       6 -> 25         0.00667
       6 -> 26        -0.00122
       6 -> 30         0.00088
       6 -> 31        -0.00118
       6 -> 34        -0.00142
       6 -> 38        -0.00074
       6 -> 39         0.00119
       6 -> 44        -0.00042
       6 -> 46        -0.00016
       6 -> 48        -0.00040
       7 ->  9        -0.01160
       7 -> 12         0.00725
       7 -> 14         0.00091
       7 -> 15        -0.00158
       7 -> 18         0.00877
       7 -> 20        -0.00023
       7 -> 25         0.00085
       7 -> 26         0.00108
       7 -> 30        -0.00034
       7 -> 31         0.00106
       7 -> 34        -0.00086
       7 -> 48        -0.00020
       7 -> 51         0.00029
       8 -> 11         0.70517
       8 -> 16         0.04687
       8 -> 19        -0.01313
       8 -> 23         0.00125
       8 -> 24        -0.00315
       8 -> 29         0.00409
       8 -> 32         0.00170
       8 -> 36        -0.00288
       8 -> 40         0.00023
       8 -> 42         0.00167
       8 -> 47        -0.00063
       3 <-  9        -0.00058
       3 <- 12         0.00029
       3 <- 15         0.00036
       3 <- 18         0.00083
       3 <- 21        -0.00030
       3 <- 25         0.00036
       3 <- 26         0.00016
       3 <- 30        -0.00064
       3 <- 34        -0.00026
       3 <- 38        -0.00022
       3 <- 39        -0.00026
       3 <- 46         0.00014
       3 <- 51        -0.00020
       3 <- 54         0.00016
       4 <- 11         0.00252
       4 <- 16         0.00283
       4 <- 19         0.00269
       4 <- 23         0.00135
       4 <- 24        -0.00190
       4 <- 29         0.00032
       4 <- 32        -0.00023
       4 <- 36         0.00086
       4 <- 42        -0.00024
       4 <- 50        -0.00026
       5 <- 10         0.00243
       5 <- 13        -0.00130
       5 <- 17         0.00241
       5 <- 22         0.00226
       5 <- 27         0.00068
       5 <- 33         0.00074
       5 <- 37         0.00047
       5 <- 43         0.00026
       5 <- 49        -0.00029
       6 <-  9        -0.00687
       6 <- 12        -0.00447
       6 <- 14         0.00451
       6 <- 15         0.00323
       6 <- 18         0.00177
       6 <- 20        -0.00384
       6 <- 21        -0.00039
       6 <- 25         0.00428
       6 <- 26        -0.00064
       6 <- 30         0.00022
       6 <- 31        -0.00118
       6 <- 34        -0.00105
       6 <- 38        -0.00082
       6 <- 39         0.00094
       6 <- 44        -0.00045
       6 <- 46        -0.00016
       6 <- 48        -0.00032
       7 <-  9        -0.00377
       7 <- 12         0.00238
       7 <- 14         0.00018
       7 <- 15        -0.00091
       7 <- 18         0.00408
       7 <- 20        -0.00033
       7 <- 21        -0.00011
       7 <- 25         0.00053
       7 <- 26         0.00061
       7 <- 30        -0.00029
       7 <- 31         0.00080
       7 <- 34        -0.00059
       7 <- 38        -0.00011
       7 <- 39         0.00017
       7 <- 46        -0.00013
       7 <- 48        -0.00012
       7 <- 51         0.00027
       8 <- 11        -0.00608
       8 <- 16         0.00469
       8 <- 19        -0.01338
       8 <- 23        -0.00258
       8 <- 24         0.00041
       8 <- 29         0.00253
       8 <- 32         0.00144
       8 <- 36        -0.00219
       8 <- 42         0.00134
       8 <- 47        -0.00067

 Excited State   5:      Singlet-A2     7.7388 eV  160.21 nm  f=0.0000  <S**2>=0.000
       3 -> 28         0.00254
       3 -> 35         0.00189
       3 -> 45         0.00078
       4 -> 10         0.00384
       4 -> 13         0.00999
       4 -> 17         0.00032
       4 -> 22        -0.00316
       4 -> 27         0.00073
       4 -> 33         0.00186
       4 -> 37         0.00309
       4 -> 43         0.00025
       4 -> 52         0.00049
       5 -> 16        -0.00136
       5 -> 19        -0.00035
       5 -> 23         0.00170
       5 -> 24         0.00025
       5 -> 29        -0.00030
       5 -> 32         0.00012
       5 -> 36         0.00050
       5 -> 42         0.00058
       5 -> 47         0.00053
       5 -> 53         0.00019
       6 -> 28         0.00245
       6 -> 35        -0.00086
       6 -> 45        -0.00015
       7 -> 28         0.00031
       7 -> 45         0.00084
       8 -> 10        -0.07078
       8 -> 13         0.70248
       8 -> 17         0.02989
       8 -> 22        -0.02346
       8 -> 27         0.00303
       8 -> 33         0.00242
       8 -> 37        -0.00235
       8 -> 43        -0.00012
       8 -> 52         0.00053
       3 <- 28         0.00169
       3 <- 35         0.00156
       3 <- 45         0.00086
       4 <- 10         0.00034
       4 <- 13         0.00077
       4 <- 33        -0.00059
       4 <- 37         0.00112
       4 <- 43         0.00035
       4 <- 52         0.00015
       5 <- 11         0.00029
       5 <- 16        -0.00038
       5 <- 19        -0.00097
       5 <- 23         0.00274
       5 <- 24         0.00143
       5 <- 29         0.00036
       5 <- 32        -0.00077
       5 <- 36         0.00151
       5 <- 42         0.00085
       5 <- 47         0.00025
       5 <- 53         0.00043
       6 <- 28         0.00293
       6 <- 35        -0.00035
       6 <- 45        -0.00029
       7 <- 28         0.00036
       7 <- 35        -0.00020
       7 <- 45         0.00049
       8 <- 10        -0.00709
       8 <- 13        -0.00407
       8 <- 17        -0.00253
       8 <- 22         0.00070
       8 <- 27        -0.00041
       8 <- 33         0.00243
       8 <- 37        -0.00166
       8 <- 43         0.00013
       8 <- 52         0.00021

 Excited State   6:      Singlet-B2     9.4362 eV  131.39 nm  f=0.1149  <S**2>=0.000
       3 -> 11        -0.00037
       3 -> 16         0.00079
       3 -> 19        -0.00076
       3 -> 23         0.00042
       3 -> 24        -0.00027
       3 -> 29         0.00069
       3 -> 32        -0.00057
       3 -> 40         0.00039
       3 -> 42         0.00032
       3 -> 47         0.00023
       4 ->  9        -0.00461
       4 -> 12         0.00527
       4 -> 14         0.01139
       4 -> 15         0.00015
       4 -> 18         0.00225
       4 -> 20         0.00702
       4 -> 21         0.00860
       4 -> 25         0.00344
       4 -> 26         0.00030

 The electronic state is 1-A1.
 Alpha  occ. eigenvalues --  -19.15140 -10.25155  -1.32280  -0.69044  -0.65239
 Alpha  occ. eigenvalues --   -0.58000  -0.54453  -0.22098
 Alpha virt. eigenvalues --    0.01235   0.02670   0.04439   0.04543   0.11958
 Alpha virt. eigenvalues --    0.14418   0.17644   0.19556   0.21720   0.24857
 Alpha virt. eigenvalues --    0.25138   0.36539   0.50556   0.54983   0.56067

 Mulliken charges:
               1
     1  C    0.322789
     2  H   -0.051666
     3  H   -0.051666
     4  O   -0.219458
 Sum of Mulliken charges =  -0.00000

 Dipole moment (field-independent basis, Debye):
    X=              0.0000    Y=             -0.0000    Z=              0.3699  Tot=              0.3699
 Quadrupole moment (field-independent basis, Debye-Ang):
   XX=            -10.4692   YY=            -12.9400   ZZ=            -13.4644
   XY=             -0.0000   XZ=             -0.0000   YZ=              0.0000

 Normal termination of Gaussian 16 at Fri Sep 17 10:52:24 2021.
