 Gaussian 16, Revision C.01,
 Gaussian 16:  ES64L-G16RevC.01  3-Jul-2019

 ----------------------------------------
 #P wB97XD/6-311+G* NoSymm #P Field=Y+165
 ----------------------------------------

 -------
 TitleMe
 -------
 Symbolic Z-matrix:
 Charge =  1 Multiplicity = 1

                          Input orientation:
 ---------------------------------------------------------------------
 Center     Atomic      Atomic             Coordinates (Angstroms)
 Number     Number       Type             X           Y           Z
 ---------------------------------------------------------------------
      1          6           0        0.519300    1.233000   -0.031900
      2          6           0        1.944500    1.269200   -0.036700
      3          6           0        2.620400    0.092800   -0.025000
      4          6           0       -0.196000    0.030100    0.001000
      5          1           0       -0.020700    2.174200   -0.043400
      6          1           0        2.482800    2.208900   -0.036100
      7          1           0       -1.277700    0.039900    0.011700
      8          7           0        4.092100    0.095900    0.036600
      9          8           0        4.639300   -1.021700    0.144600
     10          8           0        4.664900    1.198400   -0.023300
     11          6           0        0.494300   -1.167100    0.021000
     12          1           0       -0.032500   -2.114900    0.054500
     13          6           0        1.962900   -1.216500   -0.021100
     14          1           0        2.443600   -1.963100    0.615100
     15         35           0        2.173000   -1.949100   -1.906200
 ---------------------------------------------------------------------

 SCF Done:  E(RwB97XD) =  -3010.55352508     A.U. after   21 cycles

 Alpha  occ. eigenvalues -- -483.28748 -62.83728 -56.63459 -56.62845 -56.62825
 Alpha  occ. eigenvalues --  -19.46314 -19.45987 -14.85461 -10.58720 -10.56683
 Alpha  occ. eigenvalues --  -10.55917 -10.55708 -10.53612 -10.52097  -8.99502
 Alpha  occ. eigenvalues --   -6.82278  -6.80272  -6.80209  -2.92158  -2.91639
 Alpha  occ. eigenvalues --   -2.91589  -2.89985  -2.89984  -1.49785  -1.32757
 Alpha  occ. eigenvalues --   -1.21524  -1.12177  -1.11280  -1.03275  -0.99288
 Alpha  occ. eigenvalues --   -0.94446  -0.89949  -0.84631  -0.80510  -0.79838
 Alpha  occ. eigenvalues --   -0.79448  -0.77261  -0.75926  -0.74684  -0.70934
 Alpha  occ. eigenvalues --   -0.67642  -0.66816  -0.62354  -0.58564  -0.57287
 Alpha  occ. eigenvalues --   -0.56440  -0.55735  -0.53159  -0.52393
 Alpha virt. eigenvalues --   -0.28962  -0.20148  -0.14826  -0.13820  -0.12307
 Alpha virt. eigenvalues --   -0.10535  -0.06868  -0.06654  -0.05235  -0.03344
 Alpha virt. eigenvalues --   -0.02327  -0.01581  -0.00712  -0.00110   0.00533

 Mulliken charges:
               1
     1  C   -0.102834
     2  C    0.204647
     3  C   -0.115797
     4  C   -0.379923
     5  H    0.272726
     6  H    0.283370
     7  H    0.327039
     8  N   -0.246267
     9  O    0.180931
    10  O   -0.024061
    11  C   -0.175716
    12  H    0.413306
    13  C   -0.397132
    14  H    0.450091
    15  Br   0.309621
 Sum of Mulliken charges =   1.00000

 Dipole moment (field-independent basis, Debye):
    X=              3.0307    Y=             -5.7643    Z=             -1.4314  Tot=              6.6679
 Quadrupole moment (field-independent basis, Debye-Ang):
   XX=            -67.6077   YY=            -49.0428   ZZ=            -60.4384
   XY=            -13.1254   XZ=             -4.0498   YZ=              5.0335

 Normal termination of Gaussian 16 at Thu May  2 14:20:25 2024.
