 Gaussian 16, Revision C.01,
 Gaussian 16:  ES64L-G16RevC.01  3-Jul-2019

 ---------------------------------------
 #P wB97XD/6-311+G* NoSymm #P Field=Y-58
 ---------------------------------------

 -------
 TitleMe
 -------
 Symbolic Z-matrix:
 Charge =  1 Multiplicity = 1

                          Input orientation:
 ---------------------------------------------------------------------
 Center     Atomic      Atomic             Coordinates (Angstroms)
 Number     Number       Type             X           Y           Z
 ---------------------------------------------------------------------
      1          6           0        0.029500    1.339700    0.068200
      2          6           0        1.434800    1.286700    0.006400
      3          6           0        2.111800    0.051100   -0.005400
      4          6           0        1.445100   -1.137200    0.031200
      5          6           0       -0.687900    0.168200    0.110000
      6          1           0       -0.471300    2.298400    0.078100
      7          1           0        2.027300    2.196500   -0.032200
      8          1           0        1.989700   -2.076400    0.023200
      9          1           0       -1.771600    0.180400    0.158200
     10          7           0        3.586400    0.051000   -0.067500
     11          8           0        4.147100   -1.059700   -0.088100
     12          8           0        4.145000    1.163900   -0.090100
     13          6           0       -0.023600   -1.145800    0.083500
     14          1           0       -0.436700   -1.872500    0.788900
     15         35           0       -0.535900   -1.869700   -1.740800
 ---------------------------------------------------------------------

 SCF Done:  E(RwB97XD) =  -3010.53590571     A.U. after   18 cycles

 Alpha  occ. eigenvalues -- -483.32010 -62.87047 -56.66724 -56.66174 -56.66172
 Alpha  occ. eigenvalues --  -19.45887 -19.45709 -14.85325 -10.58905 -10.57291
 Alpha  occ. eigenvalues --  -10.57240 -10.57162 -10.56578 -10.52503  -9.02863
 Alpha  occ. eigenvalues --   -6.85497  -6.83691  -6.83679  -2.95412  -2.94931
 Alpha  occ. eigenvalues --   -2.94920  -2.93475  -2.93475  -1.49590  -1.32562
 Alpha  occ. eigenvalues --   -1.22722  -1.14308  -1.11642  -1.04945  -1.00977
 Alpha  occ. eigenvalues --   -0.95532  -0.90925  -0.85202  -0.80721  -0.80585
 Alpha  occ. eigenvalues --   -0.79955  -0.78434  -0.76038  -0.75805  -0.72467
 Alpha  occ. eigenvalues --   -0.69262  -0.67390  -0.63711  -0.60437  -0.57505
 Alpha  occ. eigenvalues --   -0.56950  -0.56111  -0.55772  -0.55508
 Alpha virt. eigenvalues --   -0.29751  -0.21301  -0.15990  -0.13470  -0.09924
 Alpha virt. eigenvalues --   -0.06481  -0.05857  -0.05753  -0.04644  -0.03420
 Alpha virt. eigenvalues --   -0.02949  -0.02234  -0.02154  -0.01611  -0.01029

 Mulliken charges:
               1
     1  C   -0.565805
     2  C    0.489289
     3  C   -0.686703
     4  C    0.271888
     5  C    0.021113
     6  H    0.357591
     7  H    0.387091
     8  H    0.354134
     9  H    0.352513
    10  N   -0.108150
    11  O    0.001730
    12  O    0.061337
    13  C   -0.461574
    14  H    0.389047
    15  Br   0.136498
 Sum of Mulliken charges =   1.00000

 Dipole moment (field-independent basis, Debye):
    X=             -0.6292    Y=              1.0794    Z=              0.1965  Tot=              1.2648
 Quadrupole moment (field-independent basis, Debye-Ang):
   XX=            -70.9241   YY=            -52.7759   ZZ=            -63.1097
   XY=              3.1626   XZ=              0.9244   YZ=              0.8994

 Normal termination of Gaussian 16 at Wed May  1 15:04:37 2024.
