 Gaussian 16, Revision C.01,
 Gaussian 16:  ES64L-G16RevC.01  3-Jul-2019

 ----------------------------------------
 #P wB97XD/6-311+G* NoSymm #P Field=Z+233
 ----------------------------------------

 -------
 TitleMe
 -------
 Symbolic Z-matrix:
 Charge =  1 Multiplicity = 1

                          Input orientation:
 ---------------------------------------------------------------------
 Center     Atomic      Atomic             Coordinates (Angstroms)
 Number     Number       Type             X           Y           Z
 ---------------------------------------------------------------------
      1          6           0        0.519300    1.233000   -0.031900
      2          6           0        1.944500    1.269200   -0.036700
      3          6           0        2.620400    0.092800   -0.025000
      4          6           0       -0.196000    0.030100    0.001000
      5          1           0       -0.020700    2.174200   -0.043400
      6          1           0        2.482800    2.208900   -0.036100
      7          1           0       -1.277700    0.039900    0.011700
      8          7           0        4.092100    0.095900    0.036600
      9          8           0        4.639300   -1.021700    0.144600
     10          8           0        4.664900    1.198400   -0.023300
     11          6           0        0.494300   -1.167100    0.021000
     12          1           0       -0.032500   -2.114900    0.054500
     13          6           0        1.962900   -1.216500   -0.021100
     14          1           0        2.443600   -1.963100    0.615100
     15         35           0        2.173000   -1.949100   -1.906200
 ---------------------------------------------------------------------

 SCF Done:  E(RwB97XD) =  -3010.55814534     A.U. after   21 cycles

 Alpha  occ. eigenvalues -- -483.27664 -62.82612 -56.62376 -56.61720 -56.61694
 Alpha  occ. eigenvalues --  -19.45723 -19.45716 -14.85074 -10.57873 -10.55994
 Alpha  occ. eigenvalues --  -10.55862 -10.55268 -10.52106 -10.51540  -8.98364
 Alpha  occ. eigenvalues --   -6.81225  -6.79093  -6.79013  -2.91084  -2.90538
 Alpha  occ. eigenvalues --   -2.90475  -2.88771  -2.88770  -1.49376  -1.32357
 Alpha  occ. eigenvalues --   -1.20898  -1.11534  -1.10544  -1.02310  -0.98506
 Alpha  occ. eigenvalues --   -0.93810  -0.89281  -0.84101  -0.79997  -0.79298
 Alpha  occ. eigenvalues --   -0.78992  -0.76718  -0.75427  -0.74253  -0.70072
 Alpha  occ. eigenvalues --   -0.67160  -0.66232  -0.61074  -0.57963  -0.56841
 Alpha  occ. eigenvalues --   -0.56080  -0.55384  -0.51785  -0.50965
 Alpha virt. eigenvalues --   -0.28277  -0.19589  -0.14385  -0.12927  -0.11391
 Alpha virt. eigenvalues --   -0.09753  -0.09572  -0.06511  -0.05526  -0.04615
 Alpha virt. eigenvalues --   -0.02582  -0.01278   0.00200   0.00523   0.01342

 Mulliken charges:
               1
     1  C   -0.172401
     2  C    0.250742
     3  C   -0.017635
     4  C   -0.343800
     5  H    0.344346
     6  H    0.349570
     7  H    0.327768
     8  N   -0.291357
     9  O    0.089175
    10  O    0.071272
    11  C   -0.256390
    12  H    0.351643
    13  C   -0.450484
    14  H    0.336018
    15  Br   0.411533
 Sum of Mulliken charges =   1.00000

 Dipole moment (field-independent basis, Debye):
    X=              3.1580    Y=             -1.8859    Z=             -5.0070  Tot=              6.2129
 Quadrupole moment (field-independent basis, Debye-Ang):
   XX=            -67.8926   YY=            -49.6636   ZZ=            -57.2345
   XY=             -4.9774   XZ=            -11.3218   YZ=              6.5871

 Normal termination of Gaussian 16 at Thu May  2 14:19:11 2024.
