 Gaussian 16, Revision C.01,
 Gaussian 16:  ES64L-G16RevC.01  3-Jul-2019

 ----------------------------------------
 #P wB97XD/6-311+G* NoSymm #P Field=X+184
 ----------------------------------------

 -------
 TitleMe
 -------
 Symbolic Z-matrix:
 Charge =  1 Multiplicity = 1

                          Input orientation:
 ---------------------------------------------------------------------
 Center     Atomic      Atomic             Coordinates (Angstroms)
 Number     Number       Type             X           Y           Z
 ---------------------------------------------------------------------
      1          6           0        0.029500    1.339700    0.068200
      2          6           0        1.434800    1.286700    0.006400
      3          6           0        2.111800    0.051100   -0.005400
      4          6           0        1.445100   -1.137200    0.031200
      5          6           0       -0.687900    0.168200    0.110000
      6          1           0       -0.471300    2.298400    0.078100
      7          1           0        2.027300    2.196500   -0.032200
      8          1           0        1.989700   -2.076400    0.023200
      9          1           0       -1.771600    0.180400    0.158200
     10          7           0        3.586400    0.051000   -0.067500
     11          8           0        4.147100   -1.059700   -0.088100
     12          8           0        4.145000    1.163900   -0.090100
     13          6           0       -0.023600   -1.145800    0.083500
     14          1           0       -0.436700   -1.872500    0.788900
     15         35           0       -0.535900   -1.869700   -1.740800
 ---------------------------------------------------------------------

 SCF Done:  E(RwB97XD) =  -3010.56146438     A.U. after   19 cycles

 Alpha  occ. eigenvalues -- -483.32571 -62.87563 -56.67282 -56.66679 -56.66669
 Alpha  occ. eigenvalues --  -19.55128 -19.55042 -14.94328 -10.61585 -10.60691
 Alpha  occ. eigenvalues --  -10.60348 -10.59775 -10.58595 -10.54724  -9.03345
 Alpha  occ. eigenvalues --   -6.86090  -6.84121  -6.84082  -2.95977  -2.95462
 Alpha  occ. eigenvalues --   -2.95430  -2.93856  -2.93856  -1.58843  -1.41923
 Alpha  occ. eigenvalues --   -1.25862  -1.17588  -1.14340  -1.06962  -1.05366
 Alpha  occ. eigenvalues --   -0.98028  -0.94849  -0.91686  -0.88710  -0.87185
 Alpha  occ. eigenvalues --   -0.85013  -0.82054  -0.80406  -0.78502  -0.74842
 Alpha  occ. eigenvalues --   -0.71285  -0.69888  -0.66600  -0.66269  -0.66072
 Alpha  occ. eigenvalues --   -0.65136  -0.62229  -0.57194  -0.56609
 Alpha virt. eigenvalues --   -0.31835  -0.28852  -0.18164  -0.16486  -0.14751
 Alpha virt. eigenvalues --   -0.11722  -0.10880  -0.09516  -0.09104  -0.06799
 Alpha virt. eigenvalues --   -0.05801  -0.05207  -0.04448  -0.03416  -0.02931

 Mulliken charges:
               1
     1  C   -0.619293
     2  C    0.569981
     3  C   -0.749416
     4  C    0.177885
     5  C    0.068672
     6  H    0.372023
     7  H    0.332376
     8  H    0.347322
     9  H    0.428339
    10  N   -0.104575
    11  O   -0.051669
    12  O   -0.054763
    13  C   -0.433139
    14  H    0.434792
    15  Br   0.281464
 Sum of Mulliken charges =   1.00000

 Dipole moment (field-independent basis, Debye):
    X=             -6.4482    Y=             -1.2439    Z=             -0.4932  Tot=              6.5856
 Quadrupole moment (field-independent basis, Debye-Ang):
   XX=            -84.9898   YY=            -51.4326   ZZ=            -61.3043
   XY=              2.1261   XZ=              2.5495   YZ=              2.9881

 Normal termination of Gaussian 16 at Wed May  1 14:47:35 2024.
