 Gaussian 16, Revision A.03,
 Gaussian 16:  ES64L-G16RevA.03 25-Dec-2016

 --------------------------------------------------------------------
 #p B3LYP/6-311+G** #p TD=(singlets,nstates=30)IOp(6/8=3) IOp(9/40=4)
 --------------------------------------------------------------------

 --------------------------------
 Scan Step 109, Bond Length 1.045
 --------------------------------
 Symbolic Z-matrix:
 Charge =  0 Multiplicity = 1

                         Standard orientation:
 ---------------------------------------------------------------------
 Center     Atomic      Atomic             Coordinates (Angstroms)
 Number     Number       Type             X           Y           Z
 ---------------------------------------------------------------------
      1          6           0        0.000000    0.000000   -0.448581
      2          1           0        0.000000    0.937260   -1.039931
      3          1           0       -0.000000   -0.937260   -1.039931
      4          8           0        0.000000   -0.000000    0.596419
 ---------------------------------------------------------------------

 SCF Done:  E(RB3LYP) =  -114.486453687     A.U. after    9 cycles

 Excitation energies and oscillator strengths:

 Excited State   1:      Singlet-A2     4.8697 eV  254.61 nm  f=0.0000  <S**2>=0.000
       3 -> 27         0.00293
       3 -> 37         0.00245
       3 -> 45         0.00188
       4 -> 27         0.00276
       4 -> 37        -0.00073
       4 -> 45        -0.00103
       5 ->  9         0.01852
       5 -> 13        -0.00760
       5 -> 17         0.00619
       5 -> 23        -0.00229
       5 -> 28         0.00379
       5 -> 31         0.00290
       5 -> 36         0.00401
       5 -> 44         0.00068
       5 -> 47         0.00012
       5 -> 52         0.00085
       6 -> 27         0.00049
       6 -> 37        -0.00062
       6 -> 45         0.00162
       7 -> 12        -0.00062
       7 -> 16         0.00186
       7 -> 18        -0.00178
       7 -> 22         0.00150
       7 -> 24         0.00118
       7 -> 29        -0.00071
       7 -> 34         0.00036
       7 -> 35         0.00049
       7 -> 40        -0.00037
       7 -> 42        -0.00022
       7 -> 48         0.00060
       7 -> 51        -0.00019
       7 -> 53         0.00040
       8 ->  9         0.70150
       8 -> 13        -0.08346
       8 -> 17         0.02559
       8 -> 23        -0.01181
       8 -> 28         0.00699
       8 -> 31         0.00347
       8 -> 36        -0.00135
       8 -> 44        -0.00024
       8 -> 47        -0.00017
       8 -> 52         0.00134
       3 <- 27         0.00204
       3 <- 37         0.00208
       3 <- 45         0.00196
       4 <- 27         0.00353
       4 <- 37        -0.00020
       4 <- 45        -0.00093
       5 <- 13        -0.00096
       5 <- 17        -0.00063
       5 <- 23         0.00050
       5 <- 28        -0.00041
       5 <- 31        -0.00110
       5 <- 36         0.00180
       5 <- 44         0.00038
       5 <- 47         0.00017
       5 <- 52         0.00022
       6 <- 27         0.00088
       6 <- 37        -0.00060
       6 <- 45         0.00126
       7 <- 12        -0.00096
       7 <- 16        -0.00510
       7 <- 18        -0.00155
       7 <- 22         0.00643
       7 <- 24        -0.00086
       7 <- 29         0.00234
       7 <- 34        -0.00127
       7 <- 35         0.00250
       7 <- 40        -0.00077
       7 <- 42        -0.00073
       7 <- 48         0.00043
       7 <- 53         0.00106
       8 <-  9        -0.01662
       8 <- 13         0.00557
       8 <- 17        -0.00385
       8 <- 23         0.00071
       8 <- 28        -0.00052
       8 <- 31         0.00183
       8 <- 36        -0.00205
       8 <- 52         0.00040
 This state for optimization and/or second-order correction.
 Total Energy, E(TD-HF/TD-DFT) =  -114.307497260
 Copying the excited state density for this state as the 1-particle RhoCI density.

 Excited State   2:      Singlet-B2     6.5084 eV  190.50 nm  f=0.0578  <S**2>=0.000
       3 -> 12         0.00116
       3 -> 16         0.00053
       3 -> 18         0.00111
       3 -> 22        -0.00021
       3 -> 24         0.00128
       3 -> 29        -0.00013
       3 -> 35        -0.00023
       3 -> 51        -0.00010
       4 -> 12        -0.00467
       4 -> 16         0.00078
       4 -> 18         0.00237
       4 -> 22        -0.00325
       4 -> 24         0.00386
       4 -> 34        -0.00082
       4 -> 35         0.00084
       4 -> 40        -0.00045
       4 -> 42        -0.00023
       5 -> 10        -0.00213
       5 -> 11        -0.00902
       5 -> 14         0.00659
       5 -> 15        -0.00133
       5 -> 19         0.00307
       5 -> 21         0.00437
       5 -> 25         0.00040
       5 -> 26        -0.00217
       5 -> 30         0.00236
       5 -> 32        -0.00031
       5 -> 33        -0.00060
       5 -> 38        -0.00046
       5 -> 39        -0.00028
       5 -> 43        -0.00054
       5 -> 46        -0.00055
       5 -> 49         0.00022
       6 -> 12         0.00140
       6 -> 16         0.00067
       6 -> 18         0.00386
       6 -> 22        -0.00270
       6 -> 24         0.00179
       6 -> 29        -0.00027
       6 -> 34        -0.00012
       6 -> 40         0.00010
       6 -> 42         0.00035
       6 -> 48         0.00037
       6 -> 51         0.00051
       7 -> 27         0.00054
       7 -> 37        -0.00021
       7 -> 45         0.00073
       8 -> 10         0.70522
       8 -> 11        -0.04507
       8 -> 14        -0.00119
       8 -> 15        -0.00992
       8 -> 19         0.01783
       8 -> 20         0.01026
       8 -> 21        -0.00538
       8 -> 25         0.00081
       8 -> 26        -0.00121
       8 -> 30         0.00049
       8 -> 32         0.00139
       8 -> 33         0.00209
       8 -> 38         0.00057
       8 -> 39         0.00054
       8 -> 41        -0.00016
       8 -> 43         0.00069
       8 -> 46        -0.00089
       8 -> 54         0.00017
       3 <- 12         0.00033
       3 <- 16         0.00047
       3 <- 18         0.00050
       3 <- 22        -0.00030
       3 <- 24         0.00085
       3 <- 29        -0.00012
       3 <- 35        -0.00022
       4 <- 12         0.00049
       4 <- 16         0.00126
       4 <- 18         0.00257
       4 <- 22        -0.00198
       4 <- 24         0.00277
       4 <- 34        -0.00057
       4 <- 35         0.00057
       4 <- 40        -0.00028
       5 <- 10         0.00242
       5 <- 11        -0.00016
       5 <- 14         0.00487
       5 <- 15        -0.00125
       5 <- 19         0.00075
       5 <- 20         0.00023
       5 <- 21         0.00223
       5 <- 25         0.00167
       5 <- 26        -0.00146
       5 <- 30         0.00074
       5 <- 32        -0.00053
       5 <- 33        -0.00059
       5 <- 38        -0.00041
       5 <- 39        -0.00017
       5 <- 41         0.00014
       5 <- 43        -0.00037
       5 <- 46        -0.00047
       5 <- 49         0.00020
       6 <- 12         0.00041
       6 <- 16        -0.00037
       6 <- 18         0.00175
       6 <- 22        -0.00098
       6 <- 24         0.00071
       6 <- 29         0.00043
       6 <- 34        -0.00019
       6 <- 35         0.00024
       6 <- 42         0.00033
       6 <- 48         0.00031
       6 <- 51         0.00052
       6 <- 53         0.00010
       7 <- 27         0.00042
       7 <- 37        -0.00016
       7 <- 45         0.00062
       8 <- 10        -0.00291
       8 <- 11        -0.00090
       8 <- 14        -0.00889
       8 <- 15         0.00035
       8 <- 19        -0.00055
       8 <- 20        -0.00038
       8 <- 21        -0.00323
       8 <- 25        -0.00288
       8 <- 26        -0.00018
       8 <- 30        -0.00068
       8 <- 32         0.00026
       8 <- 33         0.00161
       8 <- 38         0.00058
       8 <- 39         0.00044
       8 <- 43         0.00054
       8 <- 46        -0.00061
       8 <- 49         0.00012
       8 <- 50         0.00013

 Excited State   3:      Singlet-B2     7.3008 eV  169.82 nm  f=0.0209  <S**2>=0.000
       3 -> 12        -0.00019
       3 -> 16        -0.00066
       3 -> 18         0.00049
       3 -> 22         0.00023
       3 -> 24         0.00033
       3 -> 29         0.00145
       3 -> 34         0.00014
       3 -> 35        -0.00034
       3 -> 40         0.00021
       3 -> 42         0.00028
       3 -> 48         0.00025
       3 -> 51         0.00027
       4 -> 12         0.00313
       4 -> 16        -0.00133
       4 -> 18         0.00334
       4 -> 22        -0.00156
       4 -> 24         0.00336
       4 -> 29        -0.00106
       4 -> 34         0.00054
       4 -> 35        -0.00037
       4 -> 40        -0.00010
       4 -> 42         0.00017
       4 -> 48         0.00018
       4 -> 51         0.00016
       5 -> 10        -0.00726
       5 -> 11         0.00033
       5 -> 14         0.00537
       5 -> 15        -0.00634
       5 -> 19        -0.00385
       5 -> 20        -0.00254
       5 -> 21         0.00103
       5 -> 25         0.00137
       5 -> 26         0.00083
       5 -> 30         0.00126
       5 -> 32        -0.00142
       5 -> 33        -0.00112
       5 -> 39         0.00050
       5 -> 41        -0.00086
       5 -> 46         0.00075
       5 -> 49        -0.00035
       5 -> 50        -0.00033
       6 -> 12        -0.00322
       6 -> 16        -0.00175
       6 -> 18        -0.00166
       6 -> 22         0.00147
       6 -> 29         0.00045
       6 -> 34        -0.00041
       6 -> 35         0.00142
       6 -> 40        -0.00073
       6 -> 42        -0.00053
       6 -> 48        -0.00076
       6 -> 51        -0.00068
       6 -> 53         0.00013
       7 -> 27        -0.00052
       7 -> 37        -0.00119
       7 -> 45        -0.00138
       8 -> 10         0.04570
       8 -> 11         0.70468
       8 -> 14        -0.01251
       8 -> 15         0.01781
       8 -> 19        -0.02331
       8 -> 20         0.01263
       8 -> 21        -0.00206
       8 -> 25         0.00043
       8 -> 26         0.00126
       8 -> 30        -0.00106
       8 -> 32        -0.00023
       8 -> 33         0.00034
       8 -> 41        -0.00141
       8 -> 46         0.00114
       8 -> 49        -0.00069
       8 -> 50        -0.00048
       8 -> 54        -0.00017
       3 <- 12         0.00031
       3 <- 16        -0.00032
       3 <- 18         0.00072
       3 <- 24         0.00042
       3 <- 29         0.00089
       3 <- 34         0.00020
       3 <- 35        -0.00039
       3 <- 40         0.00019
       3 <- 42         0.00024
       3 <- 48         0.00020
       3 <- 51         0.00016
       3 <- 53        -0.00023
       4 <- 12         0.00035
       4 <- 16         0.00038
       4 <- 18         0.00102
       4 <- 22        -0.00121
       4 <- 24         0.00141
       4 <- 29        -0.00045
       4 <- 34         0.00051
       4 <- 42         0.00021
       4 <- 48         0.00012
       4 <- 51         0.00021
       5 <- 10         0.00132
       5 <- 11        -0.00073
       5 <- 14         0.00216
       5 <- 15        -0.00046
       5 <- 19         0.00073
       5 <- 21         0.00092
       5 <- 25         0.00108
       5 <- 26         0.00067
       5 <- 30         0.00076
       5 <- 33        -0.00126
       5 <- 38         0.00017
       5 <- 39         0.00025
       5 <- 41        -0.00088
       5 <- 46         0.00070
       5 <- 49        -0.00022
       5 <- 50        -0.00031
       6 <- 12        -0.00035
       6 <- 16        -0.00015
       6 <- 18        -0.00025
       6 <- 22         0.00043
       6 <- 29         0.00010
       6 <- 34        -0.00021
       6 <- 35         0.00105
       6 <- 40        -0.00053
       6 <- 42        -0.00037
       6 <- 48        -0.00064
       6 <- 51        -0.00058
       7 <- 27        -0.00013
       7 <- 37        -0.00096
       7 <- 45        -0.00118
       8 <- 10        -0.00093
       8 <- 11         0.00050
       8 <- 14        -0.00461
       8 <- 15         0.00070
       8 <- 19         0.00278
       8 <- 20        -0.00147
       8 <- 21        -0.00219
       8 <- 26         0.00145
       8 <- 30        -0.00061
       8 <- 32         0.00126
       8 <- 38        -0.00019
       8 <- 39        -0.00017
       8 <- 41        -0.00119
       8 <- 46         0.00093
       8 <- 49        -0.00042
       8 <- 50        -0.00041

 Excited State   4:      Singlet-A1     7.4459 eV  166.51 nm  f=0.0536  <S**2>=0.000
       3 -> 10         0.00159
       3 -> 11        -0.00101
       3 -> 14         0.00046
       3 -> 15        -0.00040
       3 -> 19         0.00099
       3 -> 20         0.00096
       3 -> 21         0.00023
       3 -> 25        -0.00014
       3 -> 26        -0.00063
       3 -> 30         0.00121
       3 -> 32        -0.00033
       3 -> 33        -0.00028
       3 -> 38        -0.00032
       3 -> 39         0.00014
       3 -> 41        -0.00020
       3 -> 50        -0.00037
       3 -> 54        -0.00021
       4 -> 10         0.00541
       4 -> 11         0.00828
       4 -> 14         0.00586
       4 -> 15        -0.00035
       4 -> 19         0.00054
       4 -> 20         0.00566
       4 -> 21         0.00240
       4 -> 25         0.00713
       4 -> 26        -0.00091
       4 -> 30        -0.00051
       4 -> 33        -0.00082
       4 -> 39        -0.00037
       4 -> 41         0.00020
       4 -> 43         0.00014
       4 -> 46        -0.00026
       4 -> 49        -0.00021
       5 -> 12         0.00764
       5 -> 16        -0.00107
       5 -> 18         0.01157
       5 -> 22        -0.00090
       5 -> 24         0.00498
       5 -> 29         0.00023
       5 -> 34        -0.00016
       5 -> 35         0.00085
       5 -> 42         0.00013
       5 -> 51        -0.00034
       5 -> 53        -0.00015
       6 -> 10         0.01334
       6 -> 11        -0.00423
       6 -> 14         0.00408
       6 -> 15         0.00152
       6 -> 19         0.00523
       6 -> 20         0.00437
       6 -> 21         0.00179
       6 -> 25         0.00242
       6 -> 26        -0.00057
       6 -> 30        -0.00084
       6 -> 32         0.00056
       6 -> 33        -0.00062
       6 -> 43         0.00011
       6 -> 49        -0.00025
       6 -> 50         0.00055
       7 ->  9         0.01130
       7 -> 13         0.00708
       7 -> 17         0.00461
       7 -> 23         0.00499
       7 -> 31         0.00085
       7 -> 36         0.00055
       7 -> 44         0.00064
       7 -> 47        -0.00036
       7 -> 52        -0.00010
       8 -> 12         0.70568
       8 -> 16        -0.02427
       8 -> 18         0.02629
       8 -> 22         0.00519
       8 -> 24         0.00206
       8 -> 29         0.00174
       8 -> 34         0.00151
       8 -> 35        -0.00219
       8 -> 40        -0.00053
       8 -> 42        -0.00086
       8 -> 48        -0.00036
       8 -> 51        -0.00027
       8 -> 53        -0.00019
       3 <- 10         0.00058
       3 <- 11        -0.00024
       3 <- 14         0.00029
       3 <- 15        -0.00011
       3 <- 19         0.00045
       3 <- 20         0.00044
       3 <- 21         0.00025
       3 <- 25         0.00014
       3 <- 26        -0.00034
       3 <- 30         0.00075
       3 <- 32        -0.00028
       3 <- 33        -0.00013
       3 <- 38        -0.00025
       3 <- 39         0.00013
       3 <- 41        -0.00017
       3 <- 46         0.00015
       3 <- 50        -0.00032
       3 <- 54        -0.00019
       4 <- 10         0.00505
       4 <- 11         0.00239
       4 <- 14         0.00429
       4 <- 15        -0.00075
       4 <- 19         0.00040
       4 <- 20         0.00320
       4 <- 21         0.00098
       4 <- 25         0.00406
       4 <- 26        -0.00052
       4 <- 32        -0.00028
       4 <- 33        -0.00102
       4 <- 38        -0.00012
       4 <- 39        -0.00038
       4 <- 46        -0.00024
       4 <- 49        -0.00018
       5 <- 12         0.00277
       5 <- 16         0.00113
       5 <- 18         0.00434
       5 <- 22        -0.00011
       5 <- 24         0.00270
       5 <- 34        -0.00033
       5 <- 35         0.00077
       5 <- 42         0.00011
       5 <- 51        -0.00024
       5 <- 53        -0.00014
       6 <- 10         0.00386
       6 <- 11        -0.00061
       6 <- 14         0.00176
       6 <- 15         0.00050
       6 <- 19         0.00192
       6 <- 20         0.00225
       6 <- 21         0.00070
       6 <- 25         0.00131
       6 <- 26        -0.00058
       6 <- 30        -0.00043
       6 <- 32         0.00033
       6 <- 33        -0.00053
       6 <- 39        -0.00016
       6 <- 41         0.00014
       6 <- 49        -0.00014
       6 <- 50         0.00051
       7 <-  9         0.00211
       7 <- 13         0.00211
       7 <- 17         0.00164
       7 <- 23         0.00269
       7 <- 31         0.00061
       7 <- 36         0.00044
       7 <- 44         0.00053
       7 <- 47        -0.00031
       8 <- 12        -0.00199
       8 <- 16        -0.00811
       8 <- 18        -0.00386
       8 <- 22         0.00063
       8 <- 24        -0.00231
       8 <- 29         0.00039
       8 <- 34         0.00088
       8 <- 35        -0.00128
       8 <- 40        -0.00049
       8 <- 42        -0.00072
       8 <- 48        -0.00042
       8 <- 51        -0.00023
       8 <- 53        -0.00020

 Excited State   5:      Singlet-A2     7.9634 eV  155.69 nm  f=0.0000  <S**2>=0.000
       3 -> 27        -0.00081
       3 -> 37        -0.00072
       3 -> 45        -0.00042
       4 -> 37         0.00058
       4 -> 45         0.00013
       5 ->  9        -0.00967
       5 -> 13         0.00039
       5 -> 17         0.00537
       5 -> 23        -0.00095
       5 -> 31        -0.00188
       5 -> 36        -0.00143
       5 -> 44        -0.00025
       5 -> 52        -0.00018
       6 -> 27         0.00017
       6 -> 37         0.00028
       6 -> 45        -0.00044
       7 -> 12        -0.00051
       7 -> 16        -0.00184
       7 -> 18         0.00167
       7 -> 22        -0.00078
       7 -> 24        -0.00021
       7 -> 29         0.00018
       7 -> 35        -0.00020
       7 -> 40         0.00013
       7 -> 42         0.00011
       7 -> 48        -0.00015
       7 -> 53        -0.00010
       8 ->  9         0.08356
       8 -> 13         0.70171
       8 -> 17         0.01116
       8 -> 23         0.01962
       8 -> 28        -0.00030
       8 -> 31        -0.00126
       8 -> 47         0.00018
       8 -> 52        -0.00024
       3 <- 27        -0.00036
       3 <- 37        -0.00054
       3 <- 45        -0.00051
       4 <- 27        -0.00039
       4 <- 45         0.00013
       5 <-  9        -0.00025
       5 <- 13        -0.00022
       5 <- 17         0.00063
       5 <- 36        -0.00036
       6 <- 27        -0.00011
       6 <- 37         0.00022
       6 <- 45        -0.00015
       7 <- 12        -0.00065
       7 <- 16        -0.00069
       7 <- 18         0.00063
       7 <- 22        -0.00148
       7 <- 24        -0.00027
       7 <- 29         0.00016
       7 <- 34         0.00050
       7 <- 35        -0.00085
       7 <- 40         0.00032
       7 <- 42         0.00037
       7 <- 53        -0.00019
       8 <-  9         0.00369
       8 <- 13         0.00130
       8 <- 17         0.00026
       8 <- 23        -0.00031
       8 <- 28         0.00011
       8 <- 31        -0.00024
       8 <- 36         0.00033
       8 <- 52        -0.00011

 Excited State   6:      Singlet-B2    10.2458 eV  121.01 nm  f=0.2115  <S**2>=0.000
       3 -> 12        -0.00036
       3 -> 16        -0.00197
       3 -> 18         0.00048
       3 -> 22         0.00145
       3 -> 24         0.00093

 The electronic state is 1-A1.
 Alpha  occ. eigenvalues --  -19.14150 -10.25287  -1.17105  -0.62040  -0.54309
 Alpha  occ. eigenvalues --   -0.48945  -0.47495  -0.26612
 Alpha virt. eigenvalues --   -0.02082   0.01205   0.04207   0.04356   0.07083
 Alpha virt. eigenvalues --    0.13638   0.18148   0.19653   0.22009   0.22627
 Alpha virt. eigenvalues --    0.27056   0.35399   0.48803   0.49867   0.51316

 Mulliken charges:
               1
     1  C    0.082433
     2  H    0.062831
     3  H    0.062831
     4  O   -0.208095
 Sum of Mulliken charges =   0.00000

 Dipole moment (field-independent basis, Debye):
    X=             -0.0000    Y=              0.0000    Z=             -1.6177  Tot=              1.6177
 Quadrupole moment (field-independent basis, Debye-Ang):
   XX=            -11.2616   YY=            -11.9032   ZZ=            -12.8428
   XY=              0.0000   XZ=              0.0000   YZ=              0.0000

 Normal termination of Gaussian 16 at Fri Sep 17 10:52:37 2021.
