 Gaussian 16, Revision A.03,
 Gaussian 16:  ES64L-G16RevA.03 25-Dec-2016

 --------------------------------------------------------------------
 #p B3LYP/6-311+G** #p TD=(singlets,nstates=30)IOp(6/8=3) IOp(9/40=4)
 --------------------------------------------------------------------

 -------------------------------
 Scan Step 108, Bond Length 1.04
 -------------------------------
 Symbolic Z-matrix:
 Charge =  0 Multiplicity = 1

                         Standard orientation:
 ---------------------------------------------------------------------
 Center     Atomic      Atomic             Coordinates (Angstroms)
 Number     Number       Type             X           Y           Z
 ---------------------------------------------------------------------
      1          6           0        0.000000    0.000000   -0.446081
      2          1           0        0.000000    0.937260   -1.037431
      3          1           0       -0.000000   -0.937260   -1.037431
      4          8           0        0.000000   -0.000000    0.593919
 ---------------------------------------------------------------------

 SCF Done:  E(RB3LYP) =  -114.482134096     A.U. after    9 cycles

 Excitation energies and oscillator strengths:

 Excited State   1:      Singlet-A2     4.8968 eV  253.19 nm  f=0.0000  <S**2>=0.000
       3 -> 27         0.00294
       3 -> 37         0.00246
       3 -> 45         0.00186
       4 -> 27         0.00279
       4 -> 37        -0.00073
       4 -> 45        -0.00102
       5 ->  9         0.01829
       5 -> 13        -0.00773
       5 -> 17         0.00619
       5 -> 23        -0.00235
       5 -> 28         0.00377
       5 -> 31         0.00289
       5 -> 36         0.00401
       5 -> 44         0.00068
       5 -> 47         0.00012
       5 -> 52         0.00085
       6 -> 27         0.00051
       6 -> 37        -0.00061
       6 -> 45         0.00161
       7 -> 12        -0.00062
       7 -> 16         0.00184
       7 -> 18         0.00173
       7 -> 22         0.00152
       7 -> 24         0.00116
       7 -> 29        -0.00070
       7 -> 34         0.00035
       7 -> 35         0.00049
       7 -> 40        -0.00036
       7 -> 42        -0.00025
       7 -> 48         0.00061
       7 -> 51        -0.00019
       7 -> 53         0.00039
       8 ->  9         0.70129
       8 -> 13        -0.08517
       8 -> 17         0.02571
       8 -> 23        -0.01179
       8 -> 28         0.00693
       8 -> 31         0.00348
       8 -> 36        -0.00139
       8 -> 44        -0.00025
       8 -> 47        -0.00016
       8 -> 52         0.00133
       3 <- 27         0.00205
       3 <- 37         0.00209
       3 <- 45         0.00194
       4 <- 27         0.00355
       4 <- 37        -0.00021
       4 <- 45        -0.00092
       5 <- 13        -0.00097
       5 <- 17        -0.00061
       5 <- 23         0.00049
       5 <- 28        -0.00040
       5 <- 31        -0.00110
       5 <- 36         0.00180
       5 <- 44         0.00039
       5 <- 47         0.00017
       5 <- 52         0.00022
       6 <- 27         0.00090
       6 <- 37        -0.00059
       6 <- 45         0.00125
       7 <- 12        -0.00096
       7 <- 16        -0.00502
       7 <- 18         0.00162
       7 <- 22         0.00639
       7 <- 24        -0.00089
       7 <- 29         0.00231
       7 <- 34        -0.00126
       7 <- 35         0.00249
       7 <- 40        -0.00072
       7 <- 42        -0.00077
       7 <- 48         0.00044
       7 <- 53         0.00105
       8 <-  9        -0.01640
       8 <- 13         0.00567
       8 <- 17        -0.00385
       8 <- 23         0.00071
       8 <- 28        -0.00051
       8 <- 31         0.00186
       8 <- 36        -0.00206
       8 <- 52         0.00040
 This state for optimization and/or second-order correction.
 Total Energy, E(TD-HF/TD-DFT) =  -114.302180182
 Copying the excited state density for this state as the 1-particle RhoCI density.

 Excited State   2:      Singlet-B2     6.4929 eV  190.95 nm  f=0.0587  <S**2>=0.000
       3 -> 12         0.00115
       3 -> 16         0.00051
       3 -> 18        -0.00111
       3 -> 22        -0.00021
       3 -> 24         0.00128
       3 -> 29        -0.00013
       3 -> 35        -0.00023
       3 -> 51        -0.00010
       4 -> 12        -0.00472
       4 -> 16         0.00073
       4 -> 18        -0.00237
       4 -> 22        -0.00323
       4 -> 24         0.00387
       4 -> 34        -0.00083
       4 -> 35         0.00084
       4 -> 40        -0.00043
       4 -> 42        -0.00026
       5 -> 10        -0.00200
       5 -> 11        -0.00898
       5 -> 14         0.00656
       5 -> 15        -0.00134
       5 -> 19         0.00311
       5 -> 20        -0.00012
       5 -> 21         0.00432
       5 -> 25         0.00043
       5 -> 26        -0.00213
       5 -> 30         0.00239
       5 -> 32        -0.00032
       5 -> 33        -0.00056
       5 -> 38        -0.00047
       5 -> 39        -0.00027
       5 -> 43        -0.00053
       5 -> 46        -0.00055
       5 -> 49         0.00022
       6 -> 12         0.00143
       6 -> 16         0.00060
       6 -> 18        -0.00391
       6 -> 22        -0.00269
       6 -> 24         0.00181
       6 -> 29        -0.00026
       6 -> 34        -0.00012
       6 -> 42         0.00036
       6 -> 48         0.00036
       6 -> 51         0.00051
       7 -> 27         0.00056
       7 -> 37        -0.00020
       7 -> 45         0.00074
       8 -> 10         0.70528
       8 -> 11        -0.04410
       8 -> 14        -0.00171
       8 -> 15        -0.01001
       8 -> 19         0.01794
       8 -> 20         0.01018
       8 -> 21        -0.00546
       8 -> 25         0.00081
       8 -> 26        -0.00118
       8 -> 30         0.00048
       8 -> 32         0.00147
       8 -> 33         0.00206
       8 -> 38         0.00057
       8 -> 39         0.00055
       8 -> 41        -0.00017
       8 -> 43         0.00069
       8 -> 46        -0.00090
       8 -> 54         0.00017
       3 <- 12         0.00033
       3 <- 16         0.00046
       3 <- 18        -0.00050
       3 <- 22        -0.00030
       3 <- 24         0.00085
       3 <- 29        -0.00012
       3 <- 35        -0.00022
       4 <- 12         0.00047
       4 <- 16         0.00122
       4 <- 18        -0.00259
       4 <- 22        -0.00197
       4 <- 24         0.00278
       4 <- 34        -0.00058
       4 <- 35         0.00058
       4 <- 40        -0.00028
       5 <- 10         0.00242
       5 <- 11        -0.00015
       5 <- 14         0.00485
       5 <- 15        -0.00127
       5 <- 19         0.00076
       5 <- 20         0.00021
       5 <- 21         0.00222
       5 <- 25         0.00167
       5 <- 26        -0.00145
       5 <- 30         0.00075
       5 <- 32        -0.00054
       5 <- 33        -0.00056
       5 <- 38        -0.00041
       5 <- 39        -0.00017
       5 <- 41         0.00015
       5 <- 43        -0.00037
       5 <- 46        -0.00047
       5 <- 49         0.00021
       6 <- 12         0.00041
       6 <- 16        -0.00040
       6 <- 18        -0.00177
       6 <- 22        -0.00098
       6 <- 24         0.00072
       6 <- 29         0.00043
       6 <- 34        -0.00019
       6 <- 35         0.00023
       6 <- 42         0.00034
       6 <- 48         0.00031
       6 <- 51         0.00052
       7 <- 27         0.00043
       7 <- 37        -0.00015
       7 <- 45         0.00063
       8 <- 10        -0.00295
       8 <- 11        -0.00092
       8 <- 14        -0.00901
       8 <- 15         0.00039
       8 <- 19        -0.00056
       8 <- 20        -0.00037
       8 <- 21        -0.00327
       8 <- 25        -0.00289
       8 <- 26        -0.00020
       8 <- 30        -0.00067
       8 <- 32         0.00032
       8 <- 33         0.00162
       8 <- 38         0.00058
       8 <- 39         0.00045
       8 <- 43         0.00054
       8 <- 46        -0.00061
       8 <- 49         0.00013
       8 <- 50         0.00013

 Excited State   3:      Singlet-B2     7.2849 eV  170.19 nm  f=0.0208  <S**2>=0.000
       3 -> 12        -0.00019
       3 -> 16        -0.00066
       3 -> 18        -0.00048
       3 -> 22         0.00023
       3 -> 24         0.00033
       3 -> 29         0.00143
       3 -> 34         0.00014
       3 -> 35        -0.00033
       3 -> 40         0.00019
       3 -> 42         0.00029
       3 -> 48         0.00025
       3 -> 51         0.00027
       4 -> 12         0.00313
       4 -> 16        -0.00140
       4 -> 18        -0.00335
       4 -> 22        -0.00156
       4 -> 24         0.00337
       4 -> 29        -0.00106
       4 -> 34         0.00054
       4 -> 35        -0.00037
       4 -> 40        -0.00012
       4 -> 42         0.00017
       4 -> 48         0.00018
       4 -> 51         0.00016
       5 -> 10        -0.00721
       5 -> 11         0.00034
       5 -> 14         0.00528
       5 -> 15        -0.00629
       5 -> 19        -0.00386
       5 -> 20        -0.00248
       5 -> 21         0.00104
       5 -> 25         0.00136
       5 -> 26         0.00087
       5 -> 30         0.00123
       5 -> 32        -0.00147
       5 -> 33        -0.00109
       5 -> 39         0.00050
       5 -> 41        -0.00086
       5 -> 46         0.00074
       5 -> 49        -0.00036
       5 -> 50        -0.00032
       6 -> 12        -0.00322
       6 -> 16        -0.00172
       6 -> 18         0.00169
       6 -> 22         0.00147
       6 -> 29         0.00044
       6 -> 34        -0.00040
       6 -> 35         0.00142
       6 -> 40        -0.00069
       6 -> 42        -0.00056
       6 -> 48        -0.00075
       6 -> 51        -0.00068
       6 -> 53         0.00013
       7 -> 27        -0.00054
       7 -> 37        -0.00119
       7 -> 45        -0.00137
       8 -> 10         0.04473
       8 -> 11         0.70474
       8 -> 14        -0.01266
       8 -> 15         0.01802
       8 -> 19        -0.02314
       8 -> 20         0.01273
       8 -> 21        -0.00205
       8 -> 25         0.00042
       8 -> 26         0.00121
       8 -> 30        -0.00111
       8 -> 32        -0.00022
       8 -> 33         0.00035
       8 -> 41        -0.00142
       8 -> 46         0.00111
       8 -> 49        -0.00070
       8 -> 50        -0.00046
       8 -> 54        -0.00017
       3 <- 12         0.00031
       3 <- 16        -0.00033
       3 <- 18        -0.00071
       3 <- 24         0.00043
       3 <- 29         0.00088
       3 <- 34         0.00020
       3 <- 35        -0.00038
       3 <- 40         0.00018
       3 <- 42         0.00025
       3 <- 48         0.00020
       3 <- 51         0.00016
       3 <- 53        -0.00023
       4 <- 12         0.00035
       4 <- 16         0.00036
       4 <- 18        -0.00103
       4 <- 22        -0.00122
       4 <- 24         0.00142
       4 <- 29        -0.00044
       4 <- 34         0.00051
       4 <- 42         0.00020
       4 <- 48         0.00011
       4 <- 51         0.00021
       5 <- 10         0.00132
       5 <- 11        -0.00071
       5 <- 14         0.00215
       5 <- 15        -0.00046
       5 <- 19         0.00073
       5 <- 21         0.00092
       5 <- 25         0.00107
       5 <- 26         0.00068
       5 <- 30         0.00076
       5 <- 33        -0.00126
       5 <- 38         0.00016
       5 <- 39         0.00026
       5 <- 41        -0.00088
       5 <- 46         0.00070
       5 <- 49        -0.00023
       5 <- 50        -0.00031
       6 <- 12        -0.00035
       6 <- 16        -0.00014
       6 <- 18         0.00025
       6 <- 22         0.00042
       6 <- 34        -0.00020
       6 <- 35         0.00104
       6 <- 40        -0.00051
       6 <- 42        -0.00039
       6 <- 48        -0.00064
       6 <- 51        -0.00058
       7 <- 27        -0.00014
       7 <- 37        -0.00096
       7 <- 45        -0.00117
       8 <- 10        -0.00095
       8 <- 11         0.00053
       8 <- 14        -0.00466
       8 <- 15         0.00072
       8 <- 19         0.00275
       8 <- 20        -0.00148
       8 <- 21        -0.00220
       8 <- 26         0.00144
       8 <- 30        -0.00064
       8 <- 32         0.00125
       8 <- 38        -0.00019
       8 <- 39        -0.00015
       8 <- 41        -0.00120
       8 <- 46         0.00091
       8 <- 49        -0.00043
       8 <- 50        -0.00039

 Excited State   4:      Singlet-A1     7.4293 eV  166.89 nm  f=0.0535  <S**2>=0.000
       3 -> 10         0.00157
       3 -> 11        -0.00100
       3 -> 14         0.00045
       3 -> 15        -0.00041
       3 -> 19         0.00101
       3 -> 20         0.00094
       3 -> 21         0.00021
       3 -> 25        -0.00012
       3 -> 26        -0.00061
       3 -> 30         0.00121
       3 -> 32        -0.00033
       3 -> 33        -0.00027
       3 -> 38        -0.00032
       3 -> 39         0.00015
       3 -> 41        -0.00020
       3 -> 50        -0.00037
       3 -> 54        -0.00021
       4 -> 10         0.00542
       4 -> 11         0.00836
       4 -> 14         0.00589
       4 -> 15        -0.00039
       4 -> 19         0.00055
       4 -> 20         0.00570
       4 -> 21         0.00243
       4 -> 25         0.00712
       4 -> 26        -0.00090
       4 -> 30        -0.00052
       4 -> 33        -0.00083
       4 -> 39        -0.00038
       4 -> 41         0.00021
       4 -> 43         0.00013
       4 -> 46        -0.00026
       4 -> 49        -0.00022
       5 -> 12         0.00766
       5 -> 16        -0.00126
       5 -> 18        -0.01155
       5 -> 22        -0.00085
       5 -> 24         0.00496
       5 -> 29         0.00024
       5 -> 34        -0.00016
       5 -> 35         0.00085
       5 -> 42         0.00014
       5 -> 51        -0.00034
       5 -> 53        -0.00015
       6 -> 10         0.01335
       6 -> 11        -0.00427
       6 -> 14         0.00405
       6 -> 15         0.00151
       6 -> 19         0.00533
       6 -> 20         0.00435
       6 -> 21         0.00179
       6 -> 25         0.00240
       6 -> 26        -0.00057
       6 -> 30        -0.00080
       6 -> 32         0.00056
       6 -> 33        -0.00064
       6 -> 43         0.00011
       6 -> 49        -0.00024
       6 -> 50         0.00055
       7 ->  9         0.01114
       7 -> 13         0.00695
       7 -> 17         0.00465
       7 -> 23         0.00497
       7 -> 31         0.00085
       7 -> 36         0.00055
       7 -> 44         0.00063
       7 -> 47        -0.00036
       7 -> 52        -0.00010
       8 -> 12         0.70568
       8 -> 16        -0.02494
       8 -> 18        -0.02590
       8 -> 22         0.00518
       8 -> 24         0.00201
       8 -> 29         0.00179
       8 -> 34         0.00151
       8 -> 35        -0.00220
       8 -> 40        -0.00049
       8 -> 42        -0.00090
       8 -> 48        -0.00036
       8 -> 51        -0.00027
       8 -> 53        -0.00019
       3 <- 10         0.00058
       3 <- 11        -0.00025
       3 <- 14         0.00028
       3 <- 15        -0.00012
       3 <- 19         0.00046
       3 <- 20         0.00043
       3 <- 21         0.00024
       3 <- 25         0.00015
       3 <- 26        -0.00032
       3 <- 30         0.00075
       3 <- 32        -0.00027
       3 <- 33        -0.00012
       3 <- 38        -0.00025
       3 <- 39         0.00013
       3 <- 41        -0.00017
       3 <- 46         0.00015
       3 <- 50        -0.00032
       3 <- 54        -0.00019
       4 <- 10         0.00508
       4 <- 11         0.00243
       4 <- 14         0.00431
       4 <- 15        -0.00077
       4 <- 19         0.00041
       4 <- 20         0.00323
       4 <- 21         0.00099
       4 <- 25         0.00407
       4 <- 26        -0.00051
       4 <- 32        -0.00031
       4 <- 33        -0.00101
       4 <- 38        -0.00013
       4 <- 39        -0.00039
       4 <- 46        -0.00024
       4 <- 49        -0.00018
       5 <- 12         0.00277
       5 <- 16         0.00105
       5 <- 18        -0.00436
       5 <- 24         0.00269
       5 <- 34        -0.00033
       5 <- 35         0.00077
       5 <- 42         0.00012
       5 <- 51        -0.00024
       5 <- 53        -0.00014
       6 <- 10         0.00389
       6 <- 11        -0.00063
       6 <- 14         0.00175
       6 <- 15         0.00050
       6 <- 19         0.00197
       6 <- 20         0.00225
       6 <- 21         0.00070
       6 <- 25         0.00130
       6 <- 26        -0.00058
       6 <- 30        -0.00040
       6 <- 32         0.00032
       6 <- 33        -0.00054
       6 <- 39        -0.00017
       6 <- 41         0.00014
       6 <- 49        -0.00013
       6 <- 50         0.00051
       7 <-  9         0.00214
       7 <- 13         0.00210
       7 <- 17         0.00167
       7 <- 23         0.00269
       7 <- 31         0.00061
       7 <- 36         0.00044
       7 <- 44         0.00053
       7 <- 47        -0.00031
       8 <- 12        -0.00204
       8 <- 16        -0.00816
       8 <- 18         0.00400
       8 <- 22         0.00061
       8 <- 24        -0.00232
       8 <- 29         0.00043
       8 <- 34         0.00089
       8 <- 35        -0.00130
       8 <- 40        -0.00045
       8 <- 42        -0.00076
       8 <- 48        -0.00042
       8 <- 51        -0.00023
       8 <- 53        -0.00020

 Excited State   5:      Singlet-A2     7.9492 eV  155.97 nm  f=0.0000  <S**2>=0.000
       3 -> 27        -0.00083
       3 -> 37        -0.00074
       3 -> 45        -0.00043
       4 -> 37         0.00059
       4 -> 45         0.00013
       5 ->  9        -0.00971
       5 -> 13         0.00061
       5 -> 17         0.00530
       5 -> 23        -0.00090
       5 -> 31        -0.00190
       5 -> 36        -0.00145
       5 -> 44        -0.00025
       5 -> 52        -0.00019
       6 -> 27         0.00017
       6 -> 37         0.00028
       6 -> 45        -0.00044
       7 -> 12        -0.00050
       7 -> 16        -0.00185
       7 -> 18        -0.00165
       7 -> 22        -0.00078
       7 -> 24        -0.00022
       7 -> 29         0.00018
       7 -> 35        -0.00020
       7 -> 40         0.00013
       7 -> 42         0.00012
       7 -> 48        -0.00016
       7 -> 53        -0.00010
       8 ->  9         0.08529
       8 -> 13         0.70150
       8 -> 17         0.01079
       8 -> 23         0.01972
       8 -> 28        -0.00033
       8 -> 31        -0.00126
       8 -> 47         0.00018
       8 -> 52        -0.00024
       3 <- 27        -0.00038
       3 <- 37        -0.00056
       3 <- 45        -0.00052
       4 <- 27        -0.00041
       4 <- 45         0.00013
       5 <-  9        -0.00025
       5 <- 13        -0.00021
       5 <- 17         0.00063
       5 <- 36        -0.00036
       6 <- 27        -0.00012
       6 <- 37         0.00022
       6 <- 45        -0.00015
       7 <- 12        -0.00065
       7 <- 16        -0.00068
       7 <- 18        -0.00062
       7 <- 22        -0.00151
       7 <- 24        -0.00026
       7 <- 29         0.00015
       7 <- 34         0.00051
       7 <- 35        -0.00086
       7 <- 40         0.00030
       7 <- 42         0.00039
       7 <- 53        -0.00019
       8 <-  9         0.00378
       8 <- 13         0.00127
       8 <- 17         0.00026
       8 <- 23        -0.00032
       8 <- 28         0.00011
       8 <- 31        -0.00026
       8 <- 36         0.00035
       8 <- 52        -0.00011

 Excited State   6:      Singlet-B2    10.2392 eV  121.09 nm  f=0.2148  <S**2>=0.000
       3 -> 12        -0.00037
       3 -> 16        -0.00197
       3 -> 18        -0.00044
       3 -> 22         0.00145
       3 -> 24         0.00092
       3 -> 29         0.00138
       3 -> 34        -0.00078
       3 -> 42        -0.00061

 The electronic state is 1-A1.
 Alpha  occ. eigenvalues --  -19.14125 -10.25209  -1.17430  -0.61959  -0.54471
 Alpha  occ. eigenvalues --   -0.49034  -0.47728  -0.26545
 Alpha virt. eigenvalues --   -0.01943   0.01216   0.04214   0.04359   0.07116
 Alpha virt. eigenvalues --    0.13659   0.18133   0.19708   0.22007   0.22613
 Alpha virt. eigenvalues --    0.27038   0.35449   0.48867   0.49984   0.51341

 Mulliken charges:
               1
     1  C    0.085511
     2  H    0.061050
     3  H    0.061050
     4  O   -0.207611
 Sum of Mulliken charges =   0.00000

 Dipole moment (field-independent basis, Debye):
    X=             -0.0000    Y=             -0.0000    Z=             -1.5861  Tot=              1.5861
 Quadrupole moment (field-independent basis, Debye-Ang):
   XX=            -11.2459   YY=            -11.9124   ZZ=            -12.8552
   XY=              0.0000   XZ=              0.0000   YZ=              0.0000

 Normal termination of Gaussian 16 at Fri Sep 17 10:52:37 2021.
