 Gaussian 16, Revision C.01,
 Gaussian 16:  ES64L-G16RevC.01  3-Jul-2019

 ---------------------------------------
 #P wB97XD/6-311+G* NoSymm #P Field=Y+68
 ---------------------------------------

 -------
 TitleMe
 -------
 Symbolic Z-matrix:
 Charge =  1 Multiplicity = 1

                          Input orientation:
 ---------------------------------------------------------------------
 Center     Atomic      Atomic             Coordinates (Angstroms)
 Number     Number       Type             X           Y           Z
 ---------------------------------------------------------------------
      1          6           0        0.029500    1.339700    0.068200
      2          6           0        1.434800    1.286700    0.006400
      3          6           0        2.111800    0.051100   -0.005400
      4          6           0        1.445100   -1.137200    0.031200
      5          6           0       -0.687900    0.168200    0.110000
      6          1           0       -0.471300    2.298400    0.078100
      7          1           0        2.027300    2.196500   -0.032200
      8          1           0        1.989700   -2.076400    0.023200
      9          1           0       -1.771600    0.180400    0.158200
     10          7           0        3.586400    0.051000   -0.067500
     11          8           0        4.147100   -1.059700   -0.088100
     12          8           0        4.145000    1.163900   -0.090100
     13          6           0       -0.023600   -1.145800    0.083500
     14          1           0       -0.436700   -1.872500    0.788900
     15         35           0       -0.535900   -1.869700   -1.740800
 ---------------------------------------------------------------------

 SCF Done:  E(RwB97XD) =  -3010.53953005     A.U. after   19 cycles

 Alpha  occ. eigenvalues -- -483.30053 -62.85066 -56.64770 -56.64182 -56.64179
 Alpha  occ. eigenvalues --  -19.45502 -19.45458 -14.85006 -10.57357 -10.57184
 Alpha  occ. eigenvalues --  -10.56663 -10.56453 -10.56325 -10.53012  -9.00862
 Alpha  occ. eigenvalues --   -6.83571  -6.81649  -6.81633  -2.93468  -2.92959
 Alpha  occ. eigenvalues --   -2.92944  -2.91407  -2.91406  -1.49276  -1.32257
 Alpha  occ. eigenvalues --   -1.22114  -1.13368  -1.11401  -1.03395  -1.00654
 Alpha  occ. eigenvalues --   -0.94914  -0.90514  -0.84953  -0.80402  -0.80202
 Alpha  occ. eigenvalues --   -0.79589  -0.77766  -0.75709  -0.75488  -0.71703
 Alpha  occ. eigenvalues --   -0.68900  -0.67181  -0.63158  -0.59443  -0.56768
 Alpha  occ. eigenvalues --   -0.55815  -0.55259  -0.54947  -0.54139
 Alpha virt. eigenvalues --   -0.29028  -0.20849  -0.15022  -0.12719  -0.09908
 Alpha virt. eigenvalues --   -0.06732  -0.06203  -0.04708  -0.04447  -0.02991
 Alpha virt. eigenvalues --   -0.01876  -0.01640  -0.00748  -0.00211   0.00733

 Mulliken charges:
               1
     1  C   -0.589247
     2  C    0.553985
     3  C   -0.755088
     4  C    0.313125
     5  C   -0.020144
     6  H    0.304853
     7  H    0.340793
     8  H    0.395805
     9  H    0.348939
    10  N   -0.105366
    11  O    0.065811
    12  O   -0.010761
    13  C   -0.485390
    14  H    0.421223
    15  Br   0.221462
 Sum of Mulliken charges =   1.00000

 Dipole moment (field-independent basis, Debye):
    X=             -1.0528    Y=             -2.5450    Z=             -0.2802  Tot=              2.7683
 Quadrupole moment (field-independent basis, Debye-Ang):
   XX=            -71.6080   YY=            -51.1808   ZZ=            -62.0616
   XY=             -0.8810   XZ=              1.3320   YZ=              2.5588

 Normal termination of Gaussian 16 at Wed May  1 15:07:47 2024.
