 Gaussian 16, Revision A.03,
 Gaussian 16:  ES64L-G16RevA.03 25-Dec-2016

 --------------------------------------------------------------------
 #p B3LYP/6-311+G** #p TD=(singlets,nstates=30)IOp(6/8=3) IOp(9/40=4)
 --------------------------------------------------------------------

 ------------------------------
 Scan Step 90, Bond Length 0.95
 ------------------------------
 Symbolic Z-matrix:
 Charge =  0 Multiplicity = 1

                         Standard orientation:
 ---------------------------------------------------------------------
 Center     Atomic      Atomic             Coordinates (Angstroms)
 Number     Number       Type             X           Y           Z
 ---------------------------------------------------------------------
      1          6           0        0.000000    0.000000   -0.401081
      2          1           0        0.000000    0.937260   -0.992431
      3          1           0       -0.000000   -0.937260   -0.992431
      4          8           0        0.000000    0.000000    0.548919
 ---------------------------------------------------------------------

 SCF Done:  E(RB3LYP) =  -114.359965852     A.U. after    9 cycles

 Excitation energies and oscillator strengths:

 Excited State   1:      Singlet-A2     5.3302 eV  232.61 nm  f=0.0000  <S**2>=0.000
       3 -> 27         0.00298
       3 -> 36         0.00241
       3 -> 46         0.00148
       4 -> 27         0.00326
       4 -> 36        -0.00075
       4 -> 46        -0.00082
       5 ->  9         0.01269
       5 -> 13        -0.00943
       5 -> 17         0.00619
       5 -> 22        -0.00328
       5 -> 28         0.00332
       5 -> 31         0.00244
       5 -> 37         0.00388
       5 -> 43         0.00061
       5 -> 52         0.00080
       6 -> 12        -0.00060
       6 -> 16        -0.00145
       6 -> 18        -0.00087
       6 -> 23         0.00175
       6 -> 24         0.00080
       6 -> 29        -0.00054
       6 -> 33         0.00030
       6 -> 35         0.00055
       6 -> 40        -0.00017
       6 -> 42         0.00047
       6 -> 47         0.00066
       6 -> 50        -0.00017
       6 -> 53         0.00033
       7 -> 27         0.00085
       7 -> 36        -0.00042
       7 -> 46         0.00138
       8 ->  9         0.69674
       8 -> 13        -0.11639
       8 -> 17         0.02842
       8 -> 22        -0.01023
       8 -> 28         0.00591
       8 -> 31         0.00350
       8 -> 37        -0.00205
       8 -> 43        -0.00025
       8 -> 52         0.00110
       3 <- 27         0.00216
       3 <- 36         0.00206
       3 <- 46         0.00154
       4 <- 27         0.00388
       4 <- 36        -0.00036
       4 <- 46        -0.00078
       5 <-  9         0.00025
       5 <- 13        -0.00109
       5 <- 17        -0.00024
       5 <- 22         0.00036
       5 <- 28        -0.00021
       5 <- 31        -0.00111
       5 <- 37         0.00174
       5 <- 43         0.00044
       5 <- 49         0.00013
       5 <- 52         0.00020
       6 <- 12        -0.00096
       6 <- 16         0.00314
       6 <- 18        -0.00292
       6 <- 23         0.00543
       6 <- 24        -0.00137
       6 <- 29         0.00189
       6 <- 33        -0.00107
       6 <- 35         0.00224
       6 <- 40        -0.00025
       6 <- 42         0.00096
       6 <- 47         0.00050
       6 <- 53         0.00087
       7 <- 27         0.00109
       7 <- 36        -0.00045
       7 <- 46         0.00108
       8 <-  9        -0.01201
       8 <- 13         0.00763
       8 <- 17        -0.00398
       8 <- 22         0.00058
       8 <- 28        -0.00042
       8 <- 31         0.00248
       8 <- 37        -0.00226
       8 <- 52         0.00034
 This state for optimization and/or second-order correction.
 Total Energy, E(TD-HF/TD-DFT) =  -114.164083539
 Copying the excited state density for this state as the 1-particle RhoCI density.

 Excited State   2:      Singlet-B2     6.1658 eV  201.08 nm  f=0.0753  <S**2>=0.000
       3 -> 12         0.00099
       3 -> 18         0.00112
       3 -> 23        -0.00011
       3 -> 24         0.00121
       3 -> 29        -0.00016
       3 -> 35        -0.00015
       3 -> 42         0.00011
       3 -> 50        -0.00014
       4 -> 12        -0.00562
       4 -> 16         0.00052
       4 -> 18         0.00203
       4 -> 23        -0.00289
       4 -> 24         0.00402
       4 -> 29        -0.00036
       4 -> 33        -0.00095
       4 -> 35         0.00089
       4 -> 40        -0.00023
       4 -> 42         0.00044
       5 -> 10         0.00030
       5 -> 11        -0.00782
       5 -> 14         0.00589
       5 -> 15         0.00152
       5 -> 19         0.00363
       5 -> 20        -0.00083
       5 -> 21         0.00343
       5 -> 25         0.00093
       5 -> 26        -0.00149
       5 -> 30         0.00247
       5 -> 32        -0.00012
       5 -> 38        -0.00069
       5 -> 39         0.00020
       5 -> 41         0.00025
       5 -> 44         0.00046
       5 -> 45        -0.00058
       5 -> 48         0.00033
       6 -> 27         0.00081
       6 -> 46         0.00083
       7 -> 12         0.00198
       7 -> 16         0.00146
       7 -> 18         0.00427
       7 -> 23        -0.00249
       7 -> 24         0.00219
       7 -> 35        -0.00010
       7 -> 42        -0.00038
       7 -> 47         0.00037
       7 -> 50         0.00051
       8 -> 10         0.70607
       8 -> 11        -0.02623
       8 -> 14        -0.01173
       8 -> 15         0.01127
       8 -> 19         0.01946
       8 -> 20         0.00890
       8 -> 21        -0.00687
       8 -> 25         0.00080
       8 -> 26        -0.00077
       8 -> 30         0.00020
       8 -> 32         0.00240
       8 -> 34         0.00174
       8 -> 38         0.00071
       8 -> 39        -0.00058
       8 -> 41        -0.00025
       8 -> 44        -0.00060
       8 -> 45        -0.00100
       8 -> 48         0.00025
       8 -> 54        -0.00016
       3 <- 12         0.00031
       3 <- 16        -0.00024
       3 <- 18         0.00060
       3 <- 23        -0.00019
       3 <- 24         0.00085
       3 <- 29        -0.00015
       3 <- 35        -0.00015
       4 <- 12         0.00019
       4 <- 18         0.00276
       4 <- 23        -0.00175
       4 <- 24         0.00300
       4 <- 29        -0.00028
       4 <- 33        -0.00069
       4 <- 35         0.00065
       4 <- 40        -0.00024
       4 <- 42         0.00015
       5 <- 10         0.00226
       5 <- 14         0.00452
       5 <- 15         0.00155
       5 <- 19         0.00091
       5 <- 20        -0.00014
       5 <- 21         0.00198
       5 <- 25         0.00167
       5 <- 26        -0.00130
       5 <- 30         0.00088
       5 <- 32        -0.00045
       5 <- 38        -0.00049
       5 <- 39         0.00016
       5 <- 41         0.00032
       5 <- 44         0.00031
       5 <- 45        -0.00050
       5 <- 48         0.00029
       6 <- 27         0.00063
       6 <- 46         0.00070
       7 <- 12         0.00056
       7 <- 16         0.00129
       7 <- 18         0.00172
       7 <- 23        -0.00097
       7 <- 24         0.00096
       7 <- 29         0.00058
       7 <- 33        -0.00013
       7 <- 35         0.00013
       7 <- 42        -0.00034
       7 <- 47         0.00033
       7 <- 50         0.00055
       8 <- 10        -0.00376
       8 <- 11        -0.00149
       8 <- 14        -0.01125
       8 <- 15        -0.00122
       8 <- 19        -0.00083
       8 <- 20        -0.00033
       8 <- 21        -0.00386
       8 <- 25        -0.00305
       8 <- 26        -0.00054
       8 <- 30        -0.00057
       8 <- 32         0.00109
       8 <- 34         0.00160
       8 <- 38         0.00073
       8 <- 39        -0.00047
       8 <- 41        -0.00011
       8 <- 44        -0.00051
       8 <- 45        -0.00069
       8 <- 48         0.00025

 Excited State   3:      Singlet-B2     6.9527 eV  178.33 nm  f=0.0208  <S**2>=0.000
       3 -> 12        -0.00014
       3 -> 16         0.00070
       3 -> 18         0.00017
       3 -> 23         0.00019
       3 -> 24         0.00040
       3 -> 29         0.00114
       3 -> 33         0.00014
       3 -> 35        -0.00031
       3 -> 42        -0.00032
       3 -> 47         0.00021
       3 -> 50         0.00024
       4 -> 12         0.00302
       4 -> 16         0.00322
       4 -> 18         0.00278
       4 -> 23        -0.00153
       4 -> 24         0.00356
       4 -> 29        -0.00110
       4 -> 33         0.00056
       4 -> 35        -0.00024
       4 -> 40        -0.00022
       4 -> 47         0.00015
       4 -> 50         0.00015
       5 -> 10        -0.00606
       5 -> 11         0.00020
       5 -> 14         0.00380
       5 -> 15         0.00534
       5 -> 19        -0.00369
       5 -> 20        -0.00137
       5 -> 21         0.00124
       5 -> 25         0.00112
       5 -> 26         0.00124
       5 -> 30         0.00083
       5 -> 32        -0.00198
       5 -> 34        -0.00067
       5 -> 39        -0.00065
       5 -> 41        -0.00081
       5 -> 44         0.00010
       5 -> 45         0.00063
       5 -> 48        -0.00045
       5 -> 51        -0.00025
       6 -> 27        -0.00075
       6 -> 36        -0.00130
       6 -> 46        -0.00119
       7 -> 12        -0.00305
       7 -> 16         0.00083
       7 -> 18        -0.00231
       7 -> 23         0.00140
       7 -> 24        -0.00017
       7 -> 29         0.00013
       7 -> 33        -0.00031
       7 -> 35         0.00131
       7 -> 40        -0.00036
       7 -> 42         0.00072
       7 -> 47        -0.00068
       7 -> 50        -0.00064
       7 -> 53         0.00015
       8 -> 10         0.02678
       8 -> 11         0.70560
       8 -> 14        -0.01539
       8 -> 15        -0.02153
       8 -> 19        -0.01987
       8 -> 20         0.01425
       8 -> 21        -0.00237
       8 -> 25         0.00032
       8 -> 26         0.00029
       8 -> 30        -0.00164
       8 -> 32         0.00014
       8 -> 34         0.00042
       8 -> 38        -0.00012
       8 -> 39        -0.00043
       8 -> 41        -0.00140
       8 -> 45         0.00078
       8 -> 48        -0.00073
       8 -> 51        -0.00022
       8 -> 54         0.00017
       3 <- 12         0.00027
       3 <- 16         0.00053
       3 <- 18         0.00047
       3 <- 24         0.00047
       3 <- 29         0.00074
       3 <- 33         0.00019
       3 <- 35        -0.00034
       3 <- 42        -0.00028
       3 <- 47         0.00016
       3 <- 50         0.00014
       3 <- 53        -0.00022
       4 <- 12         0.00032
       4 <- 16         0.00025
       4 <- 18         0.00122
       4 <- 23        -0.00127
       4 <- 24         0.00161
       4 <- 29        -0.00046
       4 <- 33         0.00055
       4 <- 35         0.00010
       4 <- 40        -0.00021
       4 <- 42        -0.00012
       4 <- 50         0.00022
       5 <- 10         0.00135
       5 <- 11        -0.00045
       5 <- 14         0.00194
       5 <- 15         0.00051
       5 <- 19         0.00065
       5 <- 20         0.00016
       5 <- 21         0.00100
       5 <- 25         0.00096
       5 <- 26         0.00089
       5 <- 30         0.00080
       5 <- 32        -0.00055
       5 <- 34        -0.00116
       5 <- 38         0.00012
       5 <- 39        -0.00043
       5 <- 41        -0.00082
       5 <- 44         0.00014
       5 <- 45         0.00063
       5 <- 48        -0.00031
       5 <- 51        -0.00024
       6 <- 27        -0.00030
       6 <- 36        -0.00106
       6 <- 46        -0.00102
       7 <- 12        -0.00036
       7 <- 16        -0.00019
       7 <- 18        -0.00029
       7 <- 23         0.00030
       7 <- 29        -0.00020
       7 <- 33        -0.00010
       7 <- 35         0.00093
       7 <- 40        -0.00028
       7 <- 42         0.00051
       7 <- 47        -0.00059
       7 <- 50        -0.00058
       8 <- 10        -0.00142
       8 <- 11         0.00105
       8 <- 14        -0.00568
       8 <- 15        -0.00109
       8 <- 19         0.00224
       8 <- 20        -0.00176
       8 <- 21        -0.00246
       8 <- 25        -0.00027
       8 <- 26         0.00107
       8 <- 30        -0.00100
       8 <- 32         0.00113
       8 <- 34        -0.00012
       8 <- 38        -0.00028
       8 <- 39        -0.00019
       8 <- 41        -0.00117
       8 <- 45         0.00067
       8 <- 48        -0.00047
       8 <- 51        -0.00022

 Excited State   4:      Singlet-A1     7.0910 eV  174.85 nm  f=0.0483  <S**2>=0.000
       3 -> 10         0.00141
       3 -> 11        -0.00091
       3 -> 14         0.00024
       3 -> 15         0.00053
       3 -> 19         0.00124
       3 -> 20         0.00055
       3 -> 21        -0.00011
       3 -> 25         0.00013
       3 -> 26        -0.00021
       3 -> 30         0.00113
       3 -> 32        -0.00029
       3 -> 34        -0.00021
       3 -> 38        -0.00035
       3 -> 39        -0.00021
       3 -> 41        -0.00016
       3 -> 48        -0.00015
       3 -> 51        -0.00032
       3 -> 54         0.00021
       4 -> 10         0.00555
       4 -> 11         0.00974
       4 -> 14         0.00622
       4 -> 15         0.00122
       4 -> 19         0.00079
       4 -> 20         0.00638
       4 -> 21         0.00245
       4 -> 25         0.00697
       4 -> 26        -0.00080
       4 -> 30        -0.00067
       4 -> 32        -0.00047
       4 -> 34        -0.00094
       4 -> 38        -0.00016
       4 -> 39         0.00066
       4 -> 41         0.00020
       4 -> 45        -0.00032
       4 -> 48        -0.00025
       5 -> 12         0.00772
       5 -> 16         0.00574
       5 -> 18         0.00965
       5 -> 23         0.00011
       5 -> 24         0.00451
       5 -> 29         0.00050
       5 -> 33        -0.00016
       5 -> 35         0.00091
       5 -> 42        -0.00020
       5 -> 50        -0.00036
       5 -> 53        -0.00015
       6 ->  9         0.00883
       6 -> 13         0.00467
       6 -> 17         0.00514
       6 -> 22         0.00449
       6 -> 28         0.00046
       6 -> 31         0.00087
       6 -> 37         0.00053
       6 -> 43         0.00056
       6 -> 49        -0.00037
       7 -> 10         0.01332
       7 -> 11        -0.00489
       7 -> 14         0.00343
       7 -> 15        -0.00130
       7 -> 19         0.00698
       7 -> 20         0.00369
       7 -> 21         0.00145
       7 -> 25         0.00213
       7 -> 26        -0.00039
       7 -> 30        -0.00011
       7 -> 32         0.00058
       7 -> 34        -0.00088
       7 -> 39         0.00019
       7 -> 44        -0.00010
       7 -> 48        -0.00019
       7 -> 51         0.00050
       8 -> 12         0.70556
       8 -> 16         0.03764
       8 -> 18         0.01204
       8 -> 23         0.00448
       8 -> 24         0.00147
       8 -> 29         0.00272
       8 -> 33         0.00152
       8 -> 35        -0.00240
       8 -> 42         0.00127
       8 -> 47        -0.00040
       8 -> 50        -0.00017
       8 -> 53        -0.00015
       3 <- 10         0.00057
       3 <- 11        -0.00030
       3 <- 14         0.00017
       3 <- 15         0.00023
       3 <- 19         0.00065
       3 <- 20         0.00024
       3 <- 25         0.00026
       3 <- 30         0.00067
       3 <- 32        -0.00023
       3 <- 34        -0.00013
       3 <- 38        -0.00027
       3 <- 39        -0.00018
       3 <- 41        -0.00016
       3 <- 48        -0.00017
       3 <- 51        -0.00027
       3 <- 54         0.00019
       4 <- 10         0.00552
       4 <- 11         0.00320
       4 <- 14         0.00460
       4 <- 15         0.00139
       4 <- 19         0.00061
       4 <- 20         0.00360
       4 <- 21         0.00091
       4 <- 25         0.00413
       4 <- 26        -0.00037
       4 <- 32        -0.00075
       4 <- 34        -0.00092
       4 <- 38        -0.00025
       4 <- 39         0.00058
       4 <- 45        -0.00030
       4 <- 48        -0.00021
       5 <- 12         0.00270
       5 <- 16         0.00106
       5 <- 18         0.00420
       5 <- 23         0.00043
       5 <- 24         0.00244
       5 <- 29         0.00012
       5 <- 33        -0.00031
       5 <- 35         0.00080
       5 <- 42        -0.00018
       5 <- 50        -0.00028
       5 <- 53        -0.00013
       6 <-  9         0.00259
       6 <- 13         0.00169
       6 <- 17         0.00216
       6 <- 22         0.00257
       6 <- 28         0.00025
       6 <- 31         0.00065
       6 <- 37         0.00043
       6 <- 43         0.00047
       6 <- 49        -0.00032
       7 <- 10         0.00432
       7 <- 11        -0.00099
       7 <- 14         0.00160
       7 <- 15        -0.00044
       7 <- 19         0.00284
       7 <- 20         0.00204
       7 <- 21         0.00054
       7 <- 25         0.00123
       7 <- 26        -0.00042
       7 <- 32         0.00031
       7 <- 34        -0.00064
       7 <- 39         0.00026
       7 <- 41         0.00012
       7 <- 51         0.00046
       8 <- 12        -0.00296
       8 <- 16         0.00745
       8 <- 18        -0.00789
       8 <- 24        -0.00234
       8 <- 29         0.00116
       8 <- 33         0.00105
       8 <- 35        -0.00160
       8 <- 42         0.00104
       8 <- 47        -0.00047
       8 <- 50        -0.00015
       8 <- 53        -0.00016

 Excited State   5:      Singlet-A2     7.7057 eV  160.90 nm  f=0.0000  <S**2>=0.000
       3 -> 27        -0.00129
       3 -> 36        -0.00111
       3 -> 46        -0.00059
       4 -> 27        -0.00040
       4 -> 36         0.00067
       4 -> 46         0.00020
       5 ->  9        -0.00960
       5 -> 13         0.00495
       5 -> 17         0.00370
       5 -> 22         0.00028
       5 -> 28        -0.00011
       5 -> 31        -0.00213
       5 -> 37        -0.00201
       5 -> 43        -0.00030
       5 -> 52        -0.00031
       6 -> 12        -0.00035
       6 -> 16         0.00206
       6 -> 18         0.00092
       6 -> 23        -0.00104
       6 -> 24        -0.00026
       6 -> 29         0.00031
       6 -> 35        -0.00029
       6 -> 42        -0.00026
       6 -> 47        -0.00026
       6 -> 53        -0.00015
       7 -> 36         0.00026
       7 -> 46        -0.00062
       8 ->  9         0.11678
       8 -> 13         0.69697
       8 -> 17         0.00248
       8 -> 22         0.02182
       8 -> 28        -0.00116
       8 -> 31        -0.00134
       8 -> 37         0.00055
       8 -> 43         0.00012
       8 -> 49         0.00018
       8 -> 52        -0.00036
       3 <- 27        -0.00072
       3 <- 36        -0.00088
       3 <- 46        -0.00069
       4 <- 27        -0.00093
       4 <- 46         0.00022
       5 <-  9        -0.00028
       5 <- 17         0.00061
       5 <- 22        -0.00011
       5 <- 31         0.00014
       5 <- 37        -0.00059
       5 <- 43        -0.00016
       5 <- 52        -0.00010
       6 <- 12        -0.00055
       6 <- 16         0.00051
       6 <- 18         0.00062
       6 <- 23        -0.00211
       6 <- 33         0.00063
       6 <- 35        -0.00112
       6 <- 40         0.00012
       6 <- 42        -0.00061
       6 <- 53        -0.00030
       7 <- 27        -0.00029
       7 <- 36         0.00025
       7 <- 46        -0.00029
       8 <-  9         0.00563
       8 <- 13         0.00023
       8 <- 17         0.00051
       8 <- 22        -0.00045
       8 <- 28         0.00019
       8 <- 31        -0.00065
       8 <- 37         0.00067
       8 <- 52        -0.00015

 Excited State   6:      Singlet-B2    10.0776 eV  123.03 nm  f=0.2685  <S**2>=0.000
       3 -> 12        -0.00041

 The electronic state is 1-A1.
 Alpha  occ. eigenvalues --  -19.13808 -10.24015  -1.23323  -0.60509  -0.58010
 Alpha  occ. eigenvalues --   -0.52446  -0.50766  -0.25194
 Alpha virt. eigenvalues --    0.00364   0.01365   0.04327   0.04402   0.08012
 Alpha virt. eigenvalues --    0.14013   0.17887   0.20418   0.21944   0.22686
 Alpha virt. eigenvalues --    0.26565   0.36109   0.49754   0.51992   0.52153

 Mulliken charges:
               1
     1  C    0.155015
     2  H    0.026583
     3  H    0.026583
     4  O   -0.208182
 Sum of Mulliken charges =   0.00000

 Dipole moment (field-independent basis, Debye):
    X=              0.0000    Y=              0.0000    Z=             -0.9771  Tot=              0.9771
 Quadrupole moment (field-independent basis, Debye-Ang):
   XX=            -10.9668   YY=            -12.1349   ZZ=            -13.0736
   XY=             -0.0000   XZ=             -0.0000   YZ=             -0.0000

 Normal termination of Gaussian 16 at Fri Sep 17 10:52:33 2021.
