 Gaussian 16, Revision C.01,
 Gaussian 16:  ES64L-G16RevC.01  3-Jul-2019

 ----------------------------------------
 #P wB97XD/6-311+G* NoSymm #P Field=Y+116
 ----------------------------------------

 -------
 TitleMe
 -------
 Symbolic Z-matrix:
 Charge =  1 Multiplicity = 1

                          Input orientation:
 ---------------------------------------------------------------------
 Center     Atomic      Atomic             Coordinates (Angstroms)
 Number     Number       Type             X           Y           Z
 ---------------------------------------------------------------------
      1          6           0        0.029500    1.339700    0.068200
      2          6           0        1.434800    1.286700    0.006400
      3          6           0        2.111800    0.051100   -0.005400
      4          6           0        1.445100   -1.137200    0.031200
      5          6           0       -0.687900    0.168200    0.110000
      6          1           0       -0.471300    2.298400    0.078100
      7          1           0        2.027300    2.196500   -0.032200
      8          1           0        1.989700   -2.076400    0.023200
      9          1           0       -1.771600    0.180400    0.158200
     10          7           0        3.586400    0.051000   -0.067500
     11          8           0        4.147100   -1.059700   -0.088100
     12          8           0        4.145000    1.163900   -0.090100
     13          6           0       -0.023600   -1.145800    0.083500
     14          1           0       -0.436700   -1.872500    0.788900
     15         35           0       -0.535900   -1.869700   -1.740800
 ---------------------------------------------------------------------

 SCF Done:  E(RwB97XD) =  -3010.54564705     A.U. after   20 cycles

 Alpha  occ. eigenvalues -- -483.29379 -62.84380 -56.64094 -56.63493 -56.63489
 Alpha  occ. eigenvalues --  -19.45473 -19.45352 -14.84909 -10.57417 -10.56568
 Alpha  occ. eigenvalues --  -10.56481 -10.56406 -10.56015 -10.53230  -9.00167
 Alpha  occ. eigenvalues --   -6.82903  -6.80939  -6.80921  -2.92793  -2.92274
 Alpha  occ. eigenvalues --   -2.92258  -2.90688  -2.90687  -1.49195  -1.32180
 Alpha  occ. eigenvalues --   -1.21936  -1.13075  -1.11316  -1.02856  -1.00558
 Alpha  occ. eigenvalues --   -0.94715  -0.90386  -0.84929  -0.80357  -0.80055
 Alpha  occ. eigenvalues --   -0.79490  -0.77647  -0.75602  -0.75302  -0.71501
 Alpha  occ. eigenvalues --   -0.68726  -0.67051  -0.62940  -0.59174  -0.56721
 Alpha  occ. eigenvalues --   -0.55743  -0.55127  -0.54110  -0.53472
 Alpha virt. eigenvalues --   -0.28790  -0.20690  -0.14890  -0.12660  -0.11801
 Alpha virt. eigenvalues --   -0.08481  -0.06597  -0.05574  -0.04834  -0.03369
 Alpha virt. eigenvalues --   -0.01759  -0.01290  -0.00986  -0.00098   0.00485

 Mulliken charges:
               1
     1  C   -0.596770
     2  C    0.583004
     3  C   -0.784111
     4  C    0.336212
     5  C   -0.040309
     6  H    0.283512
     7  H    0.322082
     8  H    0.410806
     9  H    0.347734
    10  N   -0.103985
    11  O    0.090486
    12  O   -0.037625
    13  C   -0.499293
    14  H    0.433232
    15  Br   0.255027
 Sum of Mulliken charges =   1.00000

 Dipole moment (field-independent basis, Debye):
    X=             -1.2052    Y=             -3.9346    Z=             -0.4689  Tot=              4.1417
 Quadrupole moment (field-independent basis, Debye-Ang):
   XX=            -71.8490   YY=            -50.6779   ZZ=            -61.6781
   XY=             -2.4185   XZ=              1.4896   YZ=              3.1980

 Normal termination of Gaussian 16 at Wed May  1 15:08:50 2024.
