 Gaussian 16, Revision A.03,
 Gaussian 16:  ES64L-G16RevA.03 25-Dec-2016

 --------------------------------------------------------------------
 #p B3LYP/6-311+G** #p TD=(singlets,nstates=30)IOp(6/8=3) IOp(9/40=4)
 --------------------------------------------------------------------

 ---------------------------------------------
 Scan Step 253, Bond Length 1.7650000000000001
 ---------------------------------------------
 Symbolic Z-matrix:
 Charge =  0 Multiplicity = 1

                         Standard orientation:
 ---------------------------------------------------------------------
 Center     Atomic      Atomic             Coordinates (Angstroms)
 Number     Number       Type             X           Y           Z
 ---------------------------------------------------------------------
      1          6           0        0.000000    0.000000   -0.808581
      2          1           0        0.000000    0.937260   -1.399931
      3          1           0       -0.000000   -0.937260   -1.399931
      4          8           0        0.000000   -0.000000    0.956419
 ---------------------------------------------------------------------

 SCF Done:  E(RB3LYP) =  -114.368370043     A.U. after   11 cycles

 Excitation energies and oscillator strengths:

 Excited State   1:      Singlet-A2     1.4575 eV  850.65 nm  f=0.0000  <S**2>=0.000
       3 -> 27         0.00083
       3 -> 38         0.00055
       3 -> 46         0.00336
       4 -> 27         0.00046
       4 -> 46        -0.00107
       5 ->  9         0.00301
       5 -> 13         0.00111
       5 -> 18         0.00199
       5 -> 23         0.00147
       5 -> 28         0.00160
       5 -> 37         0.00089
       5 -> 44         0.00024
       5 -> 52         0.00022
       6 -> 27        -0.00060
       6 -> 38        -0.00062
       6 -> 46         0.00105
       7 -> 12        -0.00117
       7 -> 16         0.00518
       7 -> 19        -0.00450
       7 -> 22        -0.00106
       7 -> 25        -0.00067
       7 -> 29        -0.00181
       7 -> 33         0.00030
       7 -> 49         0.00013
       7 -> 51         0.00010
       7 -> 53         0.00040
       8 ->  9         0.71008
       8 -> 13        -0.00829
       8 -> 18         0.02108
       8 -> 23        -0.00153
       8 -> 28         0.01058
       8 -> 31         0.00154
       8 -> 37         0.00053
       8 -> 48        -0.00030
       8 -> 52         0.00189
       3 <- 27         0.00028
       3 <- 38         0.00031
       3 <- 46         0.00339
       4 <- 27         0.00084
       4 <- 38         0.00021
       4 <- 46        -0.00084
       5 <-  9         0.00018
       5 <- 13        -0.00039
       5 <- 18        -0.00046
       5 <- 23         0.00019
       5 <- 28        -0.00033
       5 <- 31         0.00025
       5 <- 37         0.00051
       6 <- 38        -0.00049
       6 <- 46         0.00078
       7 <- 12         0.00147
       7 <- 16        -0.01049
       7 <- 19         0.00508
       7 <- 22         0.00612
       7 <- 25        -0.00062
       7 <- 29         0.00555
       7 <- 33        -0.00037
       7 <- 35         0.00030
       7 <- 40        -0.00020
       7 <- 42         0.00015
       7 <- 49        -0.00048
       7 <- 53         0.00146
       8 <-  9        -0.06818
       8 <- 13        -0.00020
       8 <- 18        -0.00744
       8 <- 23        -0.00021
       8 <- 28        -0.00268
       8 <- 31        -0.00077
       8 <- 37        -0.00026
       8 <- 48         0.00013
       8 <- 52         0.00046
 This state for optimization and/or second-order correction.
 Total Energy, E(TD-HF/TD-DFT) =  -114.314807075
 Copying the excited state density for this state as the 1-particle RhoCI density.

 Excited State   2:      Singlet-A1     3.8244 eV  324.19 nm  f=0.0410  <S**2>=0.000
       3 -> 10        -0.01670
       3 -> 11        -0.00469
       3 -> 14         0.00323
       3 -> 15         0.00109
       3 -> 17        -0.00322
       3 -> 20        -0.00379
       3 -> 21         0.00014
       3 -> 24         0.00098
       3 -> 26         0.00197
       3 -> 30        -0.00107
       3 -> 32         0.00277
       3 -> 34        -0.00131
       3 -> 36        -0.00110
       3 -> 39         0.00053
       3 -> 43         0.00053
       3 -> 45         0.00075
       3 -> 47         0.00230
       3 -> 50         0.00143
       4 -> 10        -0.00335
       4 -> 11         0.01171
       4 -> 14         0.00256
       4 -> 15        -0.00849
       4 -> 17         0.00252
       4 -> 20         0.00288
       4 -> 21         0.00033
       4 -> 24        -0.00408
       4 -> 26         0.00384
       4 -> 30         0.00064
       4 -> 32        -0.00132
       4 -> 34         0.00098
       4 -> 36         0.00026
       4 -> 39         0.00012
       4 -> 41         0.00010
       4 -> 43        -0.00050
       4 -> 45        -0.00080
       4 -> 47        -0.00088
       4 -> 50        -0.00030
       4 -> 54         0.00015
       5 -> 12         0.01155
       5 -> 16         0.00449
       5 -> 19         0.00128
       5 -> 22         0.00724
       5 -> 25        -0.00559
       5 -> 29         0.00028
       5 -> 33        -0.00260
       5 -> 35         0.00277
       5 -> 40        -0.00116
       5 -> 42         0.00090
       5 -> 49         0.00024
       5 -> 51        -0.00081
       6 -> 10         0.23317
       6 -> 11         0.05059
       6 -> 14        -0.05687
       6 -> 15        -0.02980
       6 -> 17        -0.01711
       6 -> 20        -0.00353
       6 -> 21         0.00743
       6 -> 24        -0.00948
       6 -> 26        -0.00411
       6 -> 30        -0.00563
       6 -> 32         0.00290
       6 -> 34        -0.00140
       6 -> 36         0.00021
       6 -> 39         0.00120
       6 -> 41        -0.00018
       6 -> 43         0.00085
       6 -> 45         0.00084
       6 -> 47         0.00090
       6 -> 50         0.00066
       6 -> 54        -0.00091
       7 ->  9         0.67851
       7 -> 13        -0.00538
       7 -> 18        -0.01251
       7 -> 23        -0.00206
       7 -> 28         0.00062
       7 -> 31        -0.00325
       7 -> 37         0.00124
       7 -> 44        -0.00099
       7 -> 48         0.00016
       7 -> 52         0.00106
       8 -> 12        -0.00783
       8 -> 16         0.04453
       8 -> 19        -0.02025
       8 -> 22        -0.01604
       8 -> 29        -0.00911
       8 -> 33         0.00123
       8 -> 35        -0.00112
       8 -> 40         0.00049
       8 -> 42        -0.00033
       8 -> 49         0.00026
       8 -> 51         0.00017
       8 -> 53        -0.00055
       3 <- 10        -0.01259
       3 <- 11        -0.00390
       3 <- 14         0.00264
       3 <- 15         0.00045
       3 <- 17        -0.00179
       3 <- 20        -0.00312
       3 <- 21        -0.00032
       3 <- 24         0.00039
       3 <- 26         0.00090
       3 <- 30        -0.00057
       3 <- 32         0.00247
       3 <- 34        -0.00072
       3 <- 36        -0.00104
       3 <- 39         0.00050
       3 <- 43         0.00060
       3 <- 45         0.00091
       3 <- 47         0.00233
       3 <- 50         0.00143
       3 <- 54         0.00011
       4 <- 10        -0.00099
       4 <- 11         0.00818
       4 <- 14         0.00172
       4 <- 15        -0.00559
       4 <- 17         0.00145
       4 <- 20         0.00310
       4 <- 21         0.00017
       4 <- 24        -0.00302
       4 <- 26         0.00329
       4 <- 32        -0.00149
       4 <- 34         0.00083
       4 <- 36         0.00055
       4 <- 39         0.00012
       4 <- 43        -0.00046
       4 <- 45        -0.00078
       4 <- 47        -0.00055
       4 <- 50        -0.00017
       4 <- 54         0.00011
       5 <- 12         0.00643
       5 <- 16         0.00277
       5 <- 19         0.00099
       5 <- 22         0.00501
       5 <- 25        -0.00420
       5 <- 29         0.00032
       5 <- 33        -0.00213
       5 <- 35         0.00235
       5 <- 40        -0.00104
       5 <- 42         0.00078
       5 <- 49         0.00022
       5 <- 51        -0.00075
       6 <- 10         0.07749
       6 <- 11         0.01952
       6 <- 14        -0.02592
       6 <- 15        -0.01497
       6 <- 17        -0.00975
       6 <- 20        -0.00339
       6 <- 21         0.00490
       6 <- 24        -0.00615
       6 <- 26        -0.00224
       6 <- 30        -0.00392
       6 <- 32         0.00304
       6 <- 34        -0.00159
       6 <- 36        -0.00028
       6 <- 39         0.00112
       6 <- 41        -0.00015
       6 <- 43         0.00070
       6 <- 45         0.00064
       6 <- 47         0.00052
       6 <- 50         0.00051
       6 <- 54        -0.00081
       7 <-  9        -0.13045
       7 <- 13         0.00449
       7 <- 18        -0.01215
       7 <- 23         0.00150
       7 <- 28        -0.00229
       7 <- 31        -0.00159
       7 <- 37         0.00057
       7 <- 44        -0.00073
       7 <- 48        -0.00036
       7 <- 52         0.00096
       8 <- 12        -0.00281
       8 <- 16         0.02042
       8 <- 19        -0.01085
       8 <- 22        -0.01008
       8 <- 29        -0.00711
       8 <- 33         0.00096
       8 <- 35        -0.00088
       8 <- 40         0.00040
       8 <- 42        -0.00026
       8 <- 49         0.00012
       8 <- 51         0.00014
       8 <- 53        -0.00052

 Excited State   3:      Singlet-B1     4.2909 eV  288.95 nm  f=0.0008  <S**2>=0.000
       3 ->  9        -0.02481
       3 -> 13         0.00106
       3 -> 18        -0.00389
       3 -> 23         0.00133
       3 -> 28        -0.00080
       3 -> 31        -0.00060
       3 -> 37         0.00011
       3 -> 44         0.00030
       3 -> 48         0.00077
       3 -> 52         0.00080
       4 ->  9         0.00993
       4 -> 13        -0.00219
       4 -> 18         0.00013
       4 -> 23        -0.00196
       4 -> 28         0.00042
       4 -> 31        -0.00130
       4 -> 37        -0.00031
       4 -> 48        -0.00071
       4 -> 52        -0.00038
       5 -> 38         0.00181
       5 -> 46         0.00054
       6 ->  9         0.68865
       6 -> 13        -0.01759
       6 -> 18         0.01474
       6 -> 23        -0.01035
       6 -> 28         0.00361
       6 -> 31         0.00254
       6 -> 37        -0.00171
       6 -> 44        -0.00210
       6 -> 48         0.00359
       6 -> 52         0.00112
       7 -> 10         0.16197
       7 -> 11         0.02572
       7 -> 14        -0.02345
       7 -> 15        -0.00710
       7 -> 17        -0.00932
       7 -> 20         0.00358
       7 -> 21         0.00131
       7 -> 24        -0.00205
       7 -> 26        -0.00249
       7 -> 30        -0.00427
       7 -> 34        -0.00078
       7 -> 36         0.00152
       7 -> 39         0.00018
       7 -> 41        -0.00025
       7 -> 43         0.00048
       7 -> 45         0.00041
       7 -> 47         0.00373
       7 -> 50         0.00122
       8 -> 27         0.00016
       8 -> 46         0.00459
       3 <-  9        -0.00837
       3 <- 13        -0.00084
       3 <- 18        -0.00260
       3 <- 23        -0.00059
       3 <- 28        -0.00044
       3 <- 31        -0.00075
       3 <- 37         0.00016
       3 <- 48         0.00088
       3 <- 52         0.00071
       4 <-  9         0.00591
       4 <- 13        -0.00041
       4 <- 18         0.00155
       4 <- 23        -0.00073
       4 <- 28         0.00143
       4 <- 31        -0.00089
       4 <- 37        -0.00020
       4 <- 48        -0.00062
       4 <- 52        -0.00021
       5 <- 27        -0.00043
       5 <- 38         0.00155
       5 <- 46         0.00048
       6 <-  9        -0.03452
       6 <- 13         0.00197
       6 <- 18        -0.00425
       6 <- 28        -0.00383
       6 <- 31         0.00044
       6 <- 37        -0.00142
       6 <- 44        -0.00080
       6 <- 48         0.00322
       6 <- 52         0.00018
       7 <- 10        -0.03875
       7 <- 11        -0.00966
       7 <- 14         0.01391
       7 <- 15         0.00903
       7 <- 17         0.00262
       7 <- 20         0.00353
       7 <- 21        -0.00354
       7 <- 24         0.00423
       7 <- 26         0.00173
       7 <- 30         0.00181
       7 <- 32         0.00036
       7 <- 34        -0.00107
       7 <- 36         0.00174
       7 <- 39         0.00057
       7 <- 43         0.00028
       7 <- 45         0.00019
       7 <- 47         0.00346
       7 <- 50         0.00128
       7 <- 54         0.00091
       8 <- 27         0.00063
       8 <- 38         0.00014
       8 <- 46         0.00430

 Excited State   4:      Singlet-B2     4.3695 eV  283.75 nm  f=0.0041  <S**2>=0.000
       3 -> 12        -0.00135
       3 -> 16         0.00162
       3 -> 19        -0.00431
       3 -> 22         0.00095
       3 -> 25        -0.00082
       3 -> 29        -0.00293
       3 -> 35         0.00173
       3 -> 40        -0.00154
       3 -> 42         0.00051
       3 -> 49        -0.00361
       3 -> 51         0.00019
       3 -> 53         0.00030
       4 -> 12         0.00044
       4 -> 16        -0.00184
       4 -> 19         0.00042
       4 -> 22         0.00215
       4 -> 25         0.00092
       4 -> 29         0.00113
       4 -> 33        -0.00039
       4 -> 35         0.00047
       4 -> 40         0.00037
       4 -> 42        -0.00011
       4 -> 49         0.00069
       4 -> 51        -0.00011
       5 -> 10         0.01087
       5 -> 11         0.00213
       5 -> 14        -0.00527
       5 -> 15         0.00383
       5 -> 17        -0.00039
       5 -> 20         0.00209
       5 -> 21         0.00397
       5 -> 24         0.00160
       5 -> 26        -0.00087
       5 -> 30        -0.00200
       5 -> 32        -0.00179
       5 -> 34         0.00050
       5 -> 39        -0.00082
       5 -> 41         0.00051
       5 -> 47        -0.00054
       5 -> 50         0.00034
       5 -> 54        -0.00022
       6 -> 12         0.00264
       6 -> 16        -0.00253
       6 -> 19         0.00393
       6 -> 22        -0.00053
       6 -> 25         0.00107
       6 -> 29        -0.00011
       6 -> 35        -0.00154
       6 -> 40         0.00115
       6 -> 42        -0.00067
       6 -> 49         0.00144
       6 -> 53        -0.00044
       7 -> 27        -0.00061
       7 -> 38         0.00047
       7 -> 46         0.00342
       8 -> 10         0.69694
       8 -> 11         0.09071
       8 -> 14        -0.07625
       8 -> 15        -0.02977
       8 -> 17        -0.01639
       8 -> 20         0.00298
       8 -> 21         0.00700
       8 -> 24        -0.00648
       8 -> 26        -0.00503
       8 -> 30        -0.01211
       8 -> 32        -0.00329
       8 -> 34         0.00154
       8 -> 36         0.00094
       8 -> 39        -0.00070
       8 -> 41        -0.00010
       8 -> 45         0.00099
       8 -> 47        -0.00423
       8 -> 50         0.00179
       8 -> 54        -0.00229
       3 <- 12        -0.00048
       3 <- 16         0.00052
       3 <- 19        -0.00209
       3 <- 22         0.00096
       3 <- 25        -0.00073
       3 <- 29        -0.00117
       3 <- 33         0.00011
       3 <- 35         0.00123
       3 <- 40        -0.00134
       3 <- 42         0.00039
       3 <- 49        -0.00368
       3 <- 51         0.00018
       3 <- 53         0.00081
       4 <- 16        -0.00191
       4 <- 19         0.00015
       4 <- 22         0.00233
       4 <- 25         0.00056
       4 <- 29         0.00125
       4 <- 33        -0.00043
       4 <- 35         0.00069
       4 <- 40         0.00015
       4 <- 49         0.00049
       5 <- 10        -0.00082
       5 <- 11        -0.00093
       5 <- 14        -0.00062
       5 <- 15         0.00297
       5 <- 17         0.00020
       5 <- 20         0.00076
       5 <- 21         0.00185
       5 <- 24         0.00190
       5 <- 26        -0.00022
       5 <- 30        -0.00043
       5 <- 32        -0.00032
       5 <- 39        -0.00033
       5 <- 41         0.00054
       5 <- 45         0.00028
       5 <- 47        -0.00052
       5 <- 50         0.00018
       6 <- 12        -0.00048
       6 <- 16         0.00716
       6 <- 19        -0.00358
       6 <- 22        -0.00499
       6 <- 25         0.00102
       6 <- 29        -0.00581
       6 <- 33         0.00032
       6 <- 35        -0.00144
       6 <- 40         0.00117
       6 <- 42        -0.00073
       6 <- 49         0.00184
       6 <- 53        -0.00134
       7 <- 27        -0.00060
       7 <- 38         0.00038
       7 <- 46         0.00291
       8 <- 10        -0.03383
       8 <- 11        -0.00850
       8 <- 14         0.00905
       8 <- 15         0.00250
       8 <- 17         0.00135
       8 <- 20        -0.00298
       8 <- 21        -0.00170
       8 <- 24         0.00161
       8 <- 26         0.00151
       8 <- 30         0.00046
       8 <- 32         0.00307
       8 <- 34        -0.00099
       8 <- 36        -0.00064
       8 <- 39         0.00133
       8 <- 41         0.00031
       8 <- 43         0.00049
       8 <- 45         0.00177
       8 <- 47        -0.00341
       8 <- 50         0.00130
       8 <- 54        -0.00062

 Excited State   5:      Singlet-B1     5.2280 eV  237.16 nm  f=0.0075  <S**2>=0.000
       3 ->  9        -0.00893
       3 -> 13         0.00042
       3 -> 18        -0.00258
       3 -> 23         0.00065
       3 -> 28        -0.00291
       3 -> 31        -0.00155
       3 -> 37         0.00011
       3 -> 44         0.00033
       3 -> 48        -0.00280
       3 -> 52        -0.00012
       4 ->  9        -0.03151
       4 -> 13         0.00610
       4 -> 18         0.00110
       4 -> 23         0.00461
       4 -> 28         0.00142
       4 -> 31         0.00012
       4 -> 37         0.00033
       4 -> 44        -0.00046
       4 -> 48         0.00075
       4 -> 52         0.00014
       5 -> 27        -0.00675
       5 -> 38        -0.00328
       5 -> 46         0.00032
       6 ->  9        -0.16287
       6 -> 13        -0.00021
       6 -> 18         0.00136
       6 -> 23         0.00048
       6 -> 28         0.00315
       6 -> 31        -0.00374
       6 -> 37         0.00218
       6 -> 44         0.00049
       6 -> 48         0.00021
       6 -> 52        -0.00069
       7 -> 10         0.67944
       7 -> 11         0.07678
       7 -> 14        -0.06791
       7 -> 15        -0.03573
       7 -> 17        -0.00964
       7 -> 20        -0.00318
       7 -> 21         0.00369
       7 -> 24        -0.00979
       7 -> 26        -0.00653
       7 -> 30        -0.00718
       7 -> 32        -0.00196
       7 -> 34         0.00384
       7 -> 36        -0.00149
       7 -> 39        -0.00063
       7 -> 43         0.00060
       7 -> 45         0.00097
       7 -> 47         0.00136
       7 -> 50         0.00066
       7 -> 54        -0.00159
       8 -> 27         0.00079
       8 -> 38         0.00023
       8 -> 46         0.00163
       3 <-  9        -0.00192
       3 <- 13         0.00066
       3 <- 18        -0.00101
       3 <- 23         0.00059
       3 <- 28        -0.00191
       3 <- 31        -0.00025
       3 <- 37        -0.00021
       3 <- 48        -0.00295
       3 <- 52         0.00034
       4 <-  9        -0.01255
       4 <- 13         0.00268
       4 <- 18         0.00036
       4 <- 23         0.00259
       4 <- 28         0.00136
       4 <- 37         0.00038
       4 <- 44        -0.00066
       4 <- 48         0.00034
       4 <- 52         0.00012
       5 <- 27        -0.00473
       5 <- 38        -0.00262
       5 <- 46         0.00031
       6 <-  9        -0.02807
       6 <- 18        -0.00371
       6 <- 23         0.00053
       6 <- 28        -0.00046
       6 <- 31        -0.00450
       6 <- 37         0.00200

 The electronic state is 1-A1.
 Alpha  occ. eigenvalues --  -19.17636 -10.33648  -0.90027  -0.71005  -0.49108
 Alpha  occ. eigenvalues --   -0.39648  -0.31281  -0.28790
 Alpha virt. eigenvalues --   -0.16530  -0.05418   0.00145   0.04056   0.06099
 Alpha virt. eigenvalues --    0.06792   0.11977   0.13602   0.18803   0.21118
 Alpha virt. eigenvalues --    0.23975   0.30360   0.38610   0.39941   0.50737

 Mulliken charges:
               1
     1  C   -0.088559
     2  H    0.189762
     3  H    0.189762
     4  O   -0.290965
 Sum of Mulliken charges =  -0.00000

 Dipole moment (field-independent basis, Debye):
    X=             -0.0000    Y=             -0.0000    Z=             -4.0703  Tot=              4.0703
 Quadrupole moment (field-independent basis, Debye-Ang):
   XX=            -12.9721   YY=            -11.9989   ZZ=            -10.8261
   XY=              0.0000   XZ=              0.0000   YZ=              0.0000

 Normal termination of Gaussian 16 at Fri Sep 17 10:53:07 2021.
