 Gaussian 16, Revision A.03,
 Gaussian 16:  ES64L-G16RevA.03 25-Dec-2016

 --------------------------------------------------------------------
 #p B3LYP/6-311+G** #p TD=(singlets,nstates=30)IOp(6/8=3) IOp(9/40=4)
 --------------------------------------------------------------------

 --------------------------------
 Scan Step 167, Bond Length 1.335
 --------------------------------
 Symbolic Z-matrix:
 Charge =  0 Multiplicity = 1

                         Standard orientation:
 ---------------------------------------------------------------------
 Center     Atomic      Atomic             Coordinates (Angstroms)
 Number     Number       Type             X           Y           Z
 ---------------------------------------------------------------------
      1          6           0        0.000000   -0.000000   -0.593581
      2          1           0        0.000000    0.937260   -1.184931
      3          1           0       -0.000000   -0.937260   -1.184931
      4          8           0        0.000000    0.000000    0.741419
 ---------------------------------------------------------------------

 SCF Done:  E(RB3LYP) =  -114.520687481     A.U. after    9 cycles

 Excitation energies and oscillator strengths:

 Excited State   1:      Singlet-A2     3.2033 eV  387.05 nm  f=0.0000  <S**2>=0.000
       3 -> 27         0.00203
       3 -> 38         0.00168
       3 -> 45         0.00285
       4 -> 27         0.00141
       4 -> 38        -0.00039
       4 -> 45        -0.00140
       5 ->  9         0.01766
       5 -> 13        -0.00096
       5 -> 17         0.00481
       5 -> 23         0.00087
       5 -> 29         0.00415
       5 -> 31        -0.00128
       5 -> 37         0.00271
       5 -> 44         0.00052
       5 -> 48         0.00013
       5 -> 52         0.00063
       6 -> 27        -0.00040
       6 -> 38        -0.00088
       6 -> 45         0.00172
       7 -> 12        -0.00064
       7 -> 15         0.00357
       7 -> 19        -0.00325
       7 -> 22         0.00012
       7 -> 25         0.00136
       7 -> 30        -0.00109
       7 -> 33         0.00045
       7 -> 35         0.00013
       7 -> 40         0.00013
       7 -> 42        -0.00012
       7 -> 49         0.00021
       7 -> 50         0.00030
       7 -> 53         0.00048
       8 ->  9         0.70657
       8 -> 13        -0.02893
       8 -> 17         0.02243
       8 -> 23        -0.00803
       8 -> 29         0.01033
       8 -> 31        -0.00117
       8 -> 37         0.00040
       8 -> 48        -0.00028
       8 -> 52         0.00183
       3 <- 27         0.00123
       3 <- 38         0.00135
       3 <- 45         0.00293
       4 <- 27         0.00216
       4 <- 38         0.00015
       4 <- 45        -0.00116
       5 <-  9        -0.00057
       5 <- 13        -0.00074
       5 <- 17        -0.00099
       5 <- 23         0.00047
       5 <- 29        -0.00070
       5 <- 31         0.00067
       5 <- 37         0.00137
       5 <- 44         0.00019
       5 <- 48         0.00012
       5 <- 52         0.00017
       6 <- 27         0.00021
       6 <- 38        -0.00077
       6 <- 45         0.00135
       7 <- 12        -0.00048
       7 <- 15        -0.00838
       7 <- 19         0.00139
       7 <- 22         0.00748
       7 <- 25         0.00017
       7 <- 30         0.00419
       7 <- 33        -0.00111
       7 <- 35         0.00198
       7 <- 40         0.00086
       7 <- 50         0.00020
       7 <- 53         0.00138
       8 <-  9        -0.03106
       8 <- 13         0.00200
       8 <- 17        -0.00501
       8 <- 23         0.00070
       8 <- 29        -0.00146
       8 <- 31        -0.00056
       8 <- 37        -0.00105
       8 <- 52         0.00052
 This state for optimization and/or second-order correction.
 Total Energy, E(TD-HF/TD-DFT) =  -114.402966987
 Copying the excited state density for this state as the 1-particle RhoCI density.

 Excited State   2:      Singlet-B2     6.9518 eV  178.35 nm  f=0.0165  <S**2>=0.000
       3 -> 12         0.00172
       3 -> 15         0.00058
       3 -> 19         0.00137
       3 -> 22        -0.00034
       3 -> 25         0.00116
       3 -> 33         0.00027
       3 -> 35        -0.00057
       3 -> 40        -0.00027
       3 -> 49         0.00021
       4 -> 12        -0.00226
       4 -> 15         0.00211
       4 -> 19         0.00174
       4 -> 22        -0.00318
       4 -> 25         0.00299
       4 -> 30         0.00032
       4 -> 33        -0.00023
       4 -> 35         0.00036
       4 -> 40         0.00042
       4 -> 42        -0.00013
       5 -> 10        -0.00852
       5 -> 11        -0.00599
       5 -> 14         0.00729
       5 -> 16        -0.00057
       5 -> 18        -0.00378
       5 -> 20         0.00238
       5 -> 21         0.00563
       5 -> 24        -0.00084
       5 -> 26         0.00196
       5 -> 28         0.00096
       5 -> 32        -0.00107
       5 -> 34        -0.00098
       5 -> 36        -0.00019
       5 -> 39        -0.00019
       5 -> 41        -0.00053
       5 -> 43        -0.00044
       5 -> 46        -0.00014
       5 -> 54         0.00013
       6 -> 12        -0.00117
       6 -> 15         0.00132
       6 -> 19         0.00086
       6 -> 22        -0.00208
       6 -> 25         0.00087
       6 -> 30        -0.00049
       6 -> 33        -0.00031
       6 -> 35         0.00072
       6 -> 42        -0.00015
       6 -> 49         0.00037
       6 -> 50        -0.00018
       7 -> 38        -0.00072
       8 -> 10         0.70289
       8 -> 11        -0.06989
       8 -> 14         0.02268
       8 -> 16        -0.00280
       8 -> 18        -0.00463
       8 -> 20         0.01752
       8 -> 21        -0.00210
       8 -> 24         0.00012
       8 -> 26         0.00317
       8 -> 28         0.00131
       8 -> 32         0.00090
       8 -> 34         0.00055
       8 -> 36         0.00024
       8 -> 39         0.00030
       8 -> 41        -0.00027
       8 -> 43         0.00059
       8 -> 46        -0.00019
       8 -> 47         0.00018
       8 -> 51        -0.00022
       8 -> 54         0.00024
       3 <- 12         0.00038
       3 <- 15         0.00049
       3 <- 19         0.00052
       3 <- 22        -0.00055
       3 <- 25         0.00061
       3 <- 33         0.00023
       3 <- 35        -0.00051
       3 <- 40        -0.00027
       3 <- 49         0.00026
       4 <- 12         0.00078
       4 <- 15         0.00198
       4 <- 19         0.00165
       4 <- 22        -0.00203
       4 <- 25         0.00200
       4 <- 30         0.00022
       4 <- 35         0.00013
       4 <- 40         0.00010
       4 <- 42        -0.00022
       4 <- 50        -0.00014
       5 <- 10         0.00220
       5 <- 11        -0.00023
       5 <- 14         0.00451
       5 <- 16        -0.00046
       5 <- 18        -0.00043
       5 <- 20         0.00062
       5 <- 21         0.00153
       5 <- 24        -0.00222
       5 <- 26         0.00136
       5 <- 28         0.00012
       5 <- 32        -0.00082
       5 <- 34        -0.00084
       5 <- 36        -0.00022
       5 <- 39        -0.00012
       5 <- 41        -0.00035
       5 <- 43        -0.00035
       5 <- 46        -0.00012
       6 <- 15        -0.00040
       6 <- 19         0.00089
       6 <- 22        -0.00029
       6 <- 25         0.00029
       6 <- 30         0.00046
       6 <- 33        -0.00036
       6 <- 35         0.00073
       6 <- 42        -0.00013
       6 <- 49         0.00029
       6 <- 50        -0.00020
       6 <- 53         0.00019
       7 <- 38        -0.00053
       8 <- 10        -0.00136
       8 <- 11        -0.00078
       8 <- 14        -0.00395
       8 <- 16        -0.00063
       8 <- 18         0.00075
       8 <- 20        -0.00070
       8 <- 21        -0.00136
       8 <- 24         0.00154
       8 <- 26        -0.00092
       8 <- 28        -0.00034
       8 <- 32         0.00078
       8 <- 34        -0.00010
       8 <- 36         0.00031
       8 <- 39         0.00014
       8 <- 43         0.00034

 Excited State   3:      Singlet-B2     7.6546 eV  161.97 nm  f=0.0286  <S**2>=0.000
       3 -> 12        -0.00036
       3 -> 15        -0.00120
       3 -> 19         0.00139
       3 -> 22         0.00055
       3 -> 30         0.00284
       3 -> 33         0.00017
       3 -> 35        -0.00080
       3 -> 40        -0.00065
       3 -> 49         0.00076
       3 -> 50        -0.00017
       4 -> 12         0.00221
       4 -> 15         0.00066
       4 -> 19         0.00139
       4 -> 22        -0.00149
       4 -> 25         0.00258
       4 -> 30        -0.00154
       4 -> 33         0.00048
       4 -> 35        -0.00061
       4 -> 49         0.00020
       5 -> 10        -0.00380
       5 -> 14         0.01069
       5 -> 16        -0.00632
       5 -> 18         0.00046
       5 -> 20        -0.00442
       5 -> 21         0.00325
       5 -> 24        -0.00066
       5 -> 26         0.00187
       5 -> 28         0.00151
       5 -> 32         0.00012
       5 -> 34        -0.00068
       5 -> 36        -0.00052
       5 -> 39         0.00054
       5 -> 41        -0.00062
       5 -> 43         0.00023
       5 -> 46         0.00093
       5 -> 47         0.00015
       5 -> 51        -0.00045
       6 -> 12        -0.00258
       6 -> 15        -0.00110
       6 -> 19        -0.00073
       6 -> 22         0.00096
       6 -> 25         0.00017
       6 -> 30         0.00126
       6 -> 33        -0.00054
       6 -> 35         0.00150
       6 -> 40         0.00122
       6 -> 49        -0.00142
       6 -> 50         0.00023
       6 -> 53         0.00013
       7 -> 27         0.00041
       7 -> 38        -0.00075
       7 -> 45        -0.00228
       8 -> 10         0.06950
       8 -> 11         0.70226
       8 -> 14         0.00362
       8 -> 16         0.00856
       8 -> 18        -0.04136
       8 -> 20        -0.00632
       8 -> 21        -0.00208
       8 -> 24         0.00130
       8 -> 28         0.00299
       8 -> 32         0.00011
       8 -> 34        -0.00023
       8 -> 36        -0.00040
       8 -> 39        -0.00027
       8 -> 41        -0.00098
       8 -> 43         0.00041
       8 -> 46         0.00277
       8 -> 51        -0.00126
       3 <- 12         0.00034
       3 <- 15        -0.00039
       3 <- 19         0.00112
       3 <- 25         0.00013
       3 <- 30         0.00148
       3 <- 33         0.00028
       3 <- 35        -0.00077
       3 <- 40        -0.00060
       3 <- 49         0.00071
       3 <- 50        -0.00011
       3 <- 53        -0.00039
       4 <- 12         0.00025
       4 <- 15         0.00093
       4 <- 19         0.00025
       4 <- 22        -0.00120
       4 <- 25         0.00113
       4 <- 30        -0.00086
       4 <- 33         0.00046
       4 <- 35        -0.00037
       4 <- 49         0.00015
       5 <- 10         0.00109
       5 <- 11        -0.00150
       5 <- 14         0.00275
       5 <- 16        -0.00043
       5 <- 18         0.00178
       5 <- 20        -0.00025
       5 <- 21         0.00095
       5 <- 24        -0.00143
       5 <- 26         0.00020
       5 <- 28         0.00061
       5 <- 32        -0.00071
       5 <- 34         0.00017
       5 <- 39         0.00014
       5 <- 41        -0.00066
       5 <- 43         0.00013
       5 <- 46         0.00091
       5 <- 51        -0.00030
       6 <- 12        -0.00024
       6 <- 15        -0.00141
       6 <- 19         0.00056
       6 <- 22         0.00115
       6 <- 25        -0.00016
       6 <- 30         0.00149
       6 <- 33        -0.00052
       6 <- 35         0.00138
       6 <- 40         0.00102
       6 <- 49        -0.00117
       6 <- 50         0.00016
       6 <- 53         0.00014
       7 <- 27         0.00047
       7 <- 38        -0.00060
       7 <- 45        -0.00189
       8 <- 10        -0.00107
       8 <- 11        -0.00278
       8 <- 14        -0.00375
       8 <- 16         0.00033
       8 <- 18         0.00612
       8 <- 20         0.00126
       8 <- 21        -0.00188
       8 <- 24        -0.00058
       8 <- 26        -0.00165
       8 <- 28         0.00079
       8 <- 32        -0.00145
       8 <- 34         0.00180
       8 <- 39        -0.00086
       8 <- 41        -0.00097
       8 <- 43         0.00017
       8 <- 46         0.00225
       8 <- 47        -0.00025
       8 <- 51        -0.00082

 Excited State   4:      Singlet-B1     7.6645 eV  161.76 nm  f=0.0014  <S**2>=0.000
       3 ->  9        -0.03348
       3 -> 13         0.00408
       3 -> 17        -0.00659
       3 -> 23         0.00344
       3 -> 29        -0.00217
       3 -> 31        -0.00041
       3 -> 44         0.00056
       3 -> 48         0.00035
       3 -> 52         0.00112
       4 ->  9         0.01648
       4 -> 13        -0.00273
       4 -> 17         0.00085
       4 -> 23        -0.00249
       4 -> 29         0.00013
       4 -> 31        -0.00224
       4 -> 37        -0.00044
       4 -> 48        -0.00155
       4 -> 52        -0.00091
       5 -> 27        -0.00148
       5 -> 38         0.00203
       5 -> 45         0.00237
       6 ->  9         0.70546
       6 -> 13        -0.03026
       6 -> 17         0.02138
       6 -> 23        -0.01223
       6 -> 29         0.00702
       6 -> 31         0.00393
       6 -> 37        -0.00260
       6 -> 44        -0.00350
       6 -> 48         0.00531
       6 -> 52         0.00189
       7 -> 10         0.00122
       7 -> 11         0.00370
       7 -> 14        -0.00076
       7 -> 16        -0.01190
       7 -> 18        -0.00198
       7 -> 20         0.00198
       7 -> 21         0.00285
       7 -> 24         0.00183
       7 -> 26         0.00110
       7 -> 28        -0.00474
       7 -> 32        -0.00126
       7 -> 34         0.00020
       7 -> 36        -0.00157
       7 -> 39         0.00021
       7 -> 41        -0.00178
       7 -> 43         0.00095
       7 -> 46         0.00470
       7 -> 47         0.00249
       7 -> 51         0.00112
       7 -> 54         0.00056
       8 -> 27         0.00231
       8 -> 38         0.00078
       8 -> 45         0.00668
       3 <-  9        -0.01057
       3 <- 13         0.00044
       3 <- 17        -0.00334
       3 <- 23         0.00025
       3 <- 29        -0.00135
       3 <- 31        -0.00031
       3 <- 37        -0.00013
       3 <- 44        -0.00016
       3 <- 48         0.00062
       3 <- 52         0.00090
       4 <-  9         0.00577
       4 <- 17         0.00247
       4 <- 23        -0.00029
       4 <- 29         0.00224
       4 <- 31        -0.00204
       4 <- 44         0.00020
       4 <- 48        -0.00133
       4 <- 52        -0.00050
       5 <- 27        -0.00160
       5 <- 38         0.00155
       5 <- 45         0.00210
       6 <-  9        -0.02173
       6 <- 13         0.00268
       6 <- 17        -0.00302
       6 <- 23         0.00035
       6 <- 29        -0.00236
       6 <- 31         0.00281
       6 <- 37        -0.00257
       6 <- 44        -0.00216
       6 <- 48         0.00466
       6 <- 52         0.00069
       7 <- 10         0.00212
       7 <- 11         0.00358
       7 <- 14         0.00127
       7 <- 16         0.00086
       7 <- 18        -0.01124
       7 <- 20         0.00789
       7 <- 21         0.00688
       7 <- 24         0.00625
       7 <- 26         0.00360
       7 <- 28         0.00056
       7 <- 32        -0.00115
       7 <- 34         0.00152
       7 <- 36        -0.00251
       7 <- 39         0.00044
       7 <- 41        -0.00123
       7 <- 43         0.00090
       7 <- 46         0.00424
       7 <- 47         0.00205
       7 <- 51         0.00079
       7 <- 54         0.00104
       8 <- 27         0.00221
       8 <- 38         0.00084
       8 <- 45         0.00592

 Excited State   5:      Singlet-A1     7.8269 eV  158.41 nm  f=0.1179  <S**2>=0.000
       3 -> 10         0.00537
       3 -> 11         0.01378
       3 -> 14         0.00709
       3 -> 16        -0.00142
       3 -> 18        -0.02389
       3 -> 20         0.00360
       3 -> 21         0.00692
       3 -> 24         0.00714
       3 -> 26         0.00941
       3 -> 28         0.00174
       3 -> 32         0.00318
       3 -> 34        -0.00395
       3 -> 36        -0.00214
       3 -> 39         0.00152
       3 -> 41         0.00021
       3 -> 43         0.00074
       3 -> 46         0.00183
       3 -> 47         0.00065
       3 -> 54         0.00026
       4 -> 10         0.02901
       4 -> 11        -0.01105
       4 -> 14         0.01720
       4 -> 16         0.00165
       4 -> 18         0.00837
       4 -> 20         0.01016
       4 -> 21         0.00033
       4 -> 24        -0.00912
       4 -> 26         0.00644
       4 -> 28         0.00079
       4 -> 32        -0.00138
       4 -> 34         0.00326
       4 -> 36         0.00080
       4 -> 39        -0.00019
       4 -> 46        -0.00082
       4 -> 47        -0.00150
       5 -> 12         0.03477
       5 -> 15         0.03546
       5 -> 19         0.00388
       5 -> 22         0.00011
       5 -> 25         0.01501
       5 -> 30        -0.00367
       5 -> 33        -0.00306
       5 -> 35         0.00140
       5 -> 40         0.00163
       5 -> 42         0.00075
       5 -> 49         0.00058
       5 -> 50        -0.00040
       5 -> 53        -0.00040
       6 -> 10        -0.02938
       6 -> 11        -0.04890
       6 -> 14        -0.01658
       6 -> 16        -0.03097
       6 -> 18         0.08481
       6 -> 20        -0.04484
       6 -> 21        -0.03190
       6 -> 24        -0.02844
       6 -> 26        -0.01480
       6 -> 28        -0.01198
       6 -> 32        -0.00021
       6 -> 34        -0.00344
       6 -> 36         0.00259
       6 -> 41        -0.00111
       6 -> 43         0.00033
       6 -> 46         0.00076
       6 -> 47         0.00179
       6 -> 51         0.00071
       6 -> 54        -0.00022
       7 ->  9         0.67355
       7 -> 13         0.03138
       7 -> 17        -0.02820
       7 -> 23         0.00889
       7 -> 29        -0.00569
       7 -> 31        -0.00123
       7 -> 44        -0.00068
       7 -> 48         0.00054
       7 -> 52         0.00096
       8 -> 12         0.09942
       8 -> 15         0.15185
       8 -> 19        -0.02228
       8 -> 22        -0.05063
       8 -> 25         0.00502
       8 -> 30        -0.01528
       8 -> 33         0.00648
       8 -> 35        -0.00793
       8 -> 40        -0.00292
       8 -> 42        -0.00038
       8 -> 49         0.00054
       8 -> 50         0.00045
       8 -> 53        -0.00108
       3 <- 10         0.00261
       3 <- 11         0.00793
       3 <- 14         0.00479
       3 <- 16        -0.00021
       3 <- 18        -0.01494
       3 <- 20         0.00251
       3 <- 21         0.00554
       3 <- 24         0.00488
       3 <- 26         0.00611
       3 <- 28         0.00128
       3 <- 32         0.00281
       3 <- 34        -0.00249
       3 <- 36        -0.00148
       3 <- 39         0.00113
       3 <- 41         0.00015
       3 <- 43         0.00071
       3 <- 46         0.00192
       3 <- 47         0.00091
       3 <- 54         0.00028
       4 <- 10         0.01078
       4 <- 11        -0.00467
       4 <- 14         0.00705
       4 <- 16         0.00037
       4 <- 18         0.00455
       4 <- 20         0.00570
       4 <- 24        -0.00515
       4 <- 26         0.00432
       4 <- 32        -0.00179
       4 <- 34         0.00242
       4 <- 36         0.00046
       4 <- 39        -0.00019
       4 <- 41        -0.00017
       4 <- 46        -0.00029
       4 <- 47        -0.00138
       4 <- 51         0.00013
       5 <- 12         0.00941
       5 <- 15         0.01263
       5 <- 19         0.00190
       5 <- 25         0.00809

 The electronic state is 1-A1.
 Alpha  occ. eigenvalues --  -19.15943 -10.29881  -1.01264  -0.66503  -0.49331
 Alpha  occ. eigenvalues --   -0.44781  -0.37774  -0.28814
 Alpha virt. eigenvalues --   -0.09690   0.00360   0.03510   0.04188   0.06273
 Alpha virt. eigenvalues --    0.12273   0.16460   0.18821   0.21841   0.23420
 Alpha virt. eigenvalues --    0.23600   0.30504   0.42137   0.44272   0.50937

 Mulliken charges:
               1
     1  C   -0.009781
     2  H    0.142203
     3  H    0.142203
     4  O   -0.274624
 Sum of Mulliken charges =  -0.00000

 Dipole moment (field-independent basis, Debye):
    X=             -0.0000    Y=             -0.0000    Z=             -3.0248  Tot=              3.0248
 Quadrupole moment (field-independent basis, Debye-Ang):
   XX=            -12.1320   YY=            -11.7404   ZZ=            -12.0796
   XY=              0.0000   XZ=              0.0000   YZ=             -0.0000

 Normal termination of Gaussian 16 at Fri Sep 17 10:52:46 2021.
