 Gaussian 16, Revision A.03,
 Gaussian 16:  ES64L-G16RevA.03 25-Dec-2016

 --------------------------------------------------------------------
 #p B3LYP/6-311+G** #p TD=(singlets,nstates=30)IOp(6/8=3) IOp(9/40=4)
 --------------------------------------------------------------------

 --------------------------------
 Scan Step 275, Bond Length 1.875
 --------------------------------
 Symbolic Z-matrix:
 Charge =  0 Multiplicity = 1

                         Standard orientation:
 ---------------------------------------------------------------------
 Center     Atomic      Atomic             Coordinates (Angstroms)
 Number     Number       Type             X           Y           Z
 ---------------------------------------------------------------------
      1          6           0        0.000000    0.000000   -0.863581
      2          1           0        0.000000    0.937260   -1.454931
      3          1           0       -0.000000   -0.937260   -1.454931
      4          8           0        0.000000   -0.000000    1.011419
 ---------------------------------------------------------------------

 SCF Done:  E(RB3LYP) =  -114.332554637     A.U. after   13 cycles

 Excitation energies and oscillator strengths:

 Excited State   1:      Singlet-A2     1.1967 eV 1036.06 nm  f=0.0000  <S**2>=0.000
       3 -> 27         0.00066
       3 -> 38         0.00040
       3 -> 46         0.00332
       4 -> 27         0.00034
       4 -> 46        -0.00090
       5 ->  9         0.00104
       5 -> 13         0.00108
       5 -> 18         0.00154
       5 -> 23         0.00130
       5 -> 28         0.00116
       5 -> 37         0.00067
       5 -> 44         0.00019
       5 -> 52         0.00016
       6 -> 27        -0.00055
       6 -> 38        -0.00053
       6 -> 46         0.00088
       7 -> 12        -0.00134
       7 -> 16         0.00535
       7 -> 19        -0.00479
       7 -> 22        -0.00113
       7 -> 25        -0.00051
       7 -> 29        -0.00197
       7 -> 33         0.00027
       7 -> 49         0.00013
       7 -> 53         0.00037
       8 ->  9         0.71130
       8 -> 13        -0.00607
       8 -> 18         0.02062
       8 -> 23        -0.00069
       8 -> 28         0.01009
       8 -> 31         0.00161
       8 -> 37         0.00047
       8 -> 48        -0.00029
       8 -> 52         0.00183
       3 <- 27         0.00016
       3 <- 38         0.00018
       3 <- 46         0.00335
       4 <- 27         0.00065
       4 <- 38         0.00018
       4 <- 46        -0.00069
       5 <-  9         0.00046
       5 <- 13        -0.00031
       5 <- 18        -0.00034
       5 <- 23         0.00015
       5 <- 28        -0.00026
       5 <- 31         0.00021
       5 <- 37         0.00039
       6 <- 38        -0.00040
       6 <- 46         0.00064
       7 <- 12         0.00198
       7 <- 16        -0.01053
       7 <- 19         0.00585
       7 <- 22         0.00548
       7 <- 25        -0.00064
       7 <- 29         0.00564
       7 <- 33        -0.00034
       7 <- 49        -0.00048
       7 <- 53         0.00144
       8 <-  9        -0.07940
       8 <- 13        -0.00056
       8 <- 18        -0.00786
       8 <- 23        -0.00039
       8 <- 28        -0.00279
       8 <- 31        -0.00083
       8 <- 37        -0.00018
       8 <- 48         0.00013
       8 <- 52         0.00043
 This state for optimization and/or second-order correction.
 Total Energy, E(TD-HF/TD-DFT) =  -114.288577161
 Copying the excited state density for this state as the 1-particle RhoCI density.

 Excited State   2:      Singlet-A1     3.1462 eV  394.08 nm  f=0.0264  <S**2>=0.000
       3 -> 10        -0.01342
       3 -> 11        -0.00258
       3 -> 14         0.00077
       3 -> 15         0.00024
       3 -> 17        -0.00298
       3 -> 20        -0.00338
       3 -> 21         0.00056
       3 -> 24         0.00033
       3 -> 26         0.00105
       3 -> 30        -0.00026
       3 -> 32         0.00272
       3 -> 34         0.00100
       3 -> 36        -0.00093
       3 -> 39        -0.00036
       3 -> 43         0.00049
       3 -> 45        -0.00111
       3 -> 47         0.00231
       3 -> 50         0.00160
       3 -> 54        -0.00011
       4 -> 10        -0.00089
       4 -> 11         0.00979
       4 -> 14         0.00160
       4 -> 15        -0.00738
       4 -> 17         0.00208
       4 -> 20         0.00182
       4 -> 21         0.00024
       4 -> 24        -0.00368
       4 -> 26         0.00303
       4 -> 30         0.00019
       4 -> 32        -0.00114
       4 -> 34        -0.00071
       4 -> 39        -0.00024
       4 -> 43        -0.00044
       4 -> 45         0.00076
       4 -> 47        -0.00072
       4 -> 50        -0.00025
       4 -> 54         0.00014
       5 -> 12         0.00880
       5 -> 16         0.00198
       5 -> 19         0.00107
       5 -> 22         0.00654
       5 -> 25        -0.00415
       5 -> 29         0.00034
       5 -> 33        -0.00233
       5 -> 35         0.00271
       5 -> 40        -0.00093
       5 -> 42        -0.00099
       5 -> 51        -0.00088
       6 -> 10         0.25705
       6 -> 11         0.03295
       6 -> 14        -0.03655
       6 -> 15        -0.02075
       6 -> 17        -0.01510
       6 -> 20        -0.00086
       6 -> 21         0.00466
       6 -> 24        -0.00726
       6 -> 26        -0.00279
       6 -> 30        -0.00319
       6 -> 32         0.00448
       6 -> 34         0.00137
       6 -> 36         0.00061
       6 -> 39        -0.00143
       6 -> 43         0.00080
       6 -> 45        -0.00092
       6 -> 47         0.00074
       6 -> 50         0.00050
       6 -> 54        -0.00098
       7 ->  9         0.67467
       7 -> 13        -0.00747
       7 -> 18        -0.00944
       7 -> 23        -0.00284
       7 -> 28         0.00148
       7 -> 31        -0.00329
       7 -> 37         0.00134
       7 -> 44        -0.00096
       7 -> 52         0.00105
       8 -> 12        -0.00728
       8 -> 16         0.03323
       8 -> 19        -0.01763
       8 -> 22        -0.01114
       8 -> 29        -0.00748
       8 -> 33         0.00087
       8 -> 35        -0.00057
       8 -> 40         0.00020
       8 -> 42         0.00021
       8 -> 51         0.00013
       8 -> 53        -0.00049
       3 <- 10        -0.01081
       3 <- 11        -0.00242
       3 <- 14         0.00064
       3 <- 15        -0.00021
       3 <- 17        -0.00174
       3 <- 20        -0.00299
       3 <- 21         0.00012
       3 <- 24        -0.00014
       3 <- 26         0.00019
       3 <- 30         0.00011
       3 <- 32         0.00232
       3 <- 34         0.00051
       3 <- 36        -0.00097
       3 <- 39        -0.00031
       3 <- 43         0.00053
       3 <- 45        -0.00122
       3 <- 47         0.00232
       3 <- 50         0.00161
       4 <- 10         0.00055
       4 <- 11         0.00736
       4 <- 14         0.00134
       4 <- 15        -0.00518
       4 <- 17         0.00129
       4 <- 20         0.00236
       4 <- 24        -0.00286
       4 <- 26         0.00272
       4 <- 30        -0.00036
       4 <- 32        -0.00115
       4 <- 34        -0.00060
       4 <- 36         0.00033
       4 <- 39        -0.00028
       4 <- 43        -0.00039
       4 <- 45         0.00069
       4 <- 47        -0.00043
       4 <- 50        -0.00013
       4 <- 54         0.00012
       5 <- 12         0.00550
       5 <- 16         0.00138
       5 <- 19         0.00089
       5 <- 22         0.00482
       5 <- 25        -0.00331
       5 <- 29         0.00035
       5 <- 33        -0.00197
       5 <- 35         0.00237
       5 <- 40        -0.00085
       5 <- 42        -0.00089
       5 <- 49         0.00010
       5 <- 51        -0.00083
       6 <- 10         0.08924
       6 <- 11         0.01431
       6 <- 14        -0.01839
       6 <- 15        -0.01149
       6 <- 17        -0.00941
       6 <- 20        -0.00186
       6 <- 21         0.00337
       6 <- 24        -0.00488
       6 <- 26        -0.00134
       6 <- 30        -0.00191
       6 <- 32         0.00424
       6 <- 34         0.00153
       6 <- 36         0.00011
       6 <- 39        -0.00128
       6 <- 43         0.00066
       6 <- 45        -0.00067
       6 <- 47         0.00042
       6 <- 50         0.00037
       6 <- 54        -0.00090
       7 <-  9        -0.13058
       7 <- 13         0.00283
       7 <- 18        -0.01090
       7 <- 23         0.00046
       7 <- 28        -0.00144
       7 <- 31        -0.00159
       7 <- 37         0.00065
       7 <- 44        -0.00082
       7 <- 48        -0.00044
       7 <- 52         0.00097
       8 <- 12        -0.00321
       8 <- 16         0.01749
       8 <- 19        -0.01061
       8 <- 22        -0.00760
       8 <- 25         0.00013
       8 <- 29        -0.00609
       8 <- 33         0.00070
       8 <- 35        -0.00044
       8 <- 40         0.00015
       8 <- 42         0.00016
       8 <- 51         0.00011
       8 <- 53        -0.00046

 Excited State   3:      Singlet-B2     3.3524 eV  369.83 nm  f=0.0020  <S**2>=0.000
       3 -> 12        -0.00115
       3 -> 16         0.00114
       3 -> 19        -0.00374
       3 -> 22         0.00109
       3 -> 25        -0.00088
       3 -> 29        -0.00246
       3 -> 33         0.00027
       3 -> 35         0.00128
       3 -> 40        -0.00121
       3 -> 42        -0.00045
       3 -> 49        -0.00394
       3 -> 51         0.00016
       3 -> 53         0.00026
       4 -> 12         0.00037
       4 -> 16        -0.00136
       4 -> 19         0.00034
       4 -> 22         0.00165
       4 -> 25         0.00056
       4 -> 29         0.00082
       4 -> 33        -0.00031
       4 -> 35         0.00042
       4 -> 40         0.00025
       4 -> 42         0.00011
       4 -> 49         0.00073
       5 -> 10         0.00967
       5 -> 11         0.00111
       5 -> 14        -0.00294
       5 -> 15         0.00294
       5 -> 17        -0.00052
       5 -> 20         0.00192
       5 -> 21         0.00282
       5 -> 24         0.00136
       5 -> 26        -0.00043
       5 -> 30        -0.00212
       5 -> 32        -0.00104
       5 -> 34        -0.00020
       5 -> 39         0.00061
       5 -> 41         0.00039
       5 -> 47        -0.00036
       5 -> 50         0.00023
       5 -> 54        -0.00018
       6 -> 12         0.00243
       6 -> 16        -0.00280
       6 -> 19         0.00421
       6 -> 22        -0.00065
       6 -> 25         0.00114
       6 -> 29         0.00024
       6 -> 33        -0.00016
       6 -> 35        -0.00116
       6 -> 40         0.00074
       6 -> 42         0.00062
       6 -> 49         0.00114
       6 -> 53        -0.00045
       7 -> 27        -0.00051
       7 -> 38         0.00030
       7 -> 46         0.00292
       8 -> 10         0.70439
       8 -> 11         0.05255
       8 -> 14        -0.04973
       8 -> 15        -0.02054
       8 -> 17        -0.01647
       8 -> 20         0.00557
       8 -> 21         0.00558
       8 -> 24        -0.00554
       8 -> 26        -0.00420
       8 -> 30        -0.01333
       8 -> 32        -0.00027
       8 -> 34        -0.00109
       8 -> 36         0.00158
       8 -> 39         0.00043
       8 -> 41        -0.00017
       8 -> 45        -0.00079
       8 -> 47        -0.00360
       8 -> 50         0.00133
       8 -> 54        -0.00247
       3 <- 12        -0.00040
       3 <- 16         0.00041
       3 <- 19        -0.00186
       3 <- 22         0.00091
       3 <- 25        -0.00079
       3 <- 29        -0.00100
       3 <- 33         0.00026
       3 <- 35         0.00083
       3 <- 40        -0.00104
       3 <- 42        -0.00029
       3 <- 49        -0.00399
       3 <- 51         0.00015
       3 <- 53         0.00070
       4 <- 12         0.00011
       4 <- 16        -0.00163
       4 <- 19         0.00019
       4 <- 22         0.00200
       4 <- 25         0.00030
       4 <- 29         0.00107
       4 <- 33        -0.00032
       4 <- 35         0.00060
       4 <- 40         0.00011
       4 <- 49         0.00051
       5 <- 10        -0.00094
       5 <- 11        -0.00058
       5 <- 14        -0.00043
       5 <- 15         0.00234
       5 <- 17         0.00019
       5 <- 20         0.00077
       5 <- 21         0.00156
       5 <- 24         0.00153
       5 <- 30        -0.00045
       5 <- 32        -0.00026
       5 <- 39         0.00029
       5 <- 41         0.00041
       5 <- 45        -0.00020
       5 <- 47        -0.00037
       5 <- 50         0.00012
       6 <- 12        -0.00089
       6 <- 16         0.00794
       6 <- 19        -0.00438
       6 <- 22        -0.00519
       6 <- 25         0.00128
       6 <- 29        -0.00616
       6 <- 33         0.00019
       6 <- 35        -0.00097
       6 <- 40         0.00073
       6 <- 42         0.00062
       6 <- 49         0.00165
       6 <- 53        -0.00143
       7 <- 27        -0.00051
       7 <- 38         0.00025
       7 <- 46         0.00253
       8 <- 10        -0.04758
       8 <- 11        -0.00720
       8 <- 14         0.00730
       8 <- 15         0.00221
       8 <- 17         0.00222
       8 <- 20        -0.00337
       8 <- 21        -0.00121
       8 <- 24         0.00148
       8 <- 26         0.00110
       8 <- 30         0.00213
       8 <- 32         0.00260
       8 <- 34         0.00081
       8 <- 36        -0.00084
       8 <- 39        -0.00099
       8 <- 41         0.00019
       8 <- 43         0.00037
       8 <- 45        -0.00151
       8 <- 47        -0.00299
       8 <- 50         0.00114
       8 <- 54        -0.00066

 Excited State   4:      Singlet-B1     3.5742 eV  346.89 nm  f=0.0000  <S**2>=0.000
       3 ->  9        -0.02154
       3 -> 13         0.00073
       3 -> 18        -0.00367
       3 -> 23         0.00118
       3 -> 28        -0.00119
       3 -> 31        -0.00094
       3 -> 37         0.00017
       3 -> 44         0.00032
       3 -> 48        -0.00033
       3 -> 52         0.00063
       4 ->  9         0.00221
       4 -> 13        -0.00071
       4 -> 18         0.00021
       4 -> 23        -0.00068
       4 -> 28         0.00064
       4 -> 31        -0.00104
       4 -> 37        -0.00017
       4 -> 48        -0.00024
       4 -> 52        -0.00023
       5 -> 27        -0.00102
       5 -> 38         0.00090
       5 -> 46         0.00040
       6 ->  9         0.59582
       6 -> 13        -0.01523
       6 -> 18         0.01315
       6 -> 23        -0.00925
       6 -> 28         0.00374
       6 -> 31         0.00139
       6 -> 37        -0.00094
       6 -> 44        -0.00139
       6 -> 48         0.00294
       6 -> 52         0.00070
       7 -> 10         0.38496
       7 -> 11         0.03098
       7 -> 14        -0.03044
       7 -> 15        -0.01248
       7 -> 17        -0.01147
       7 -> 20         0.00407
       7 -> 21         0.00228
       7 -> 24        -0.00451
       7 -> 26        -0.00383
       7 -> 30        -0.00643
       7 -> 32         0.00077
       7 -> 36         0.00120
       7 -> 39        -0.00011
       7 -> 41        -0.00015
       7 -> 43         0.00048
       7 -> 45        -0.00086
       7 -> 47         0.00337
       7 -> 50         0.00114
       7 -> 54        -0.00062
       8 -> 27         0.00012
       8 -> 46         0.00411
       3 <-  9        -0.00717
       3 <- 13        -0.00070
       3 <- 18        -0.00241
       3 <- 23        -0.00036
       3 <- 28        -0.00071
       3 <- 31        -0.00075
       3 <- 37         0.00013
       3 <- 48        -0.00026
       3 <- 52         0.00068
       4 <-  9         0.00220
       4 <- 13         0.00012
       4 <- 18         0.00129
       4 <- 23        -0.00015
       4 <- 28         0.00145
       4 <- 31        -0.00077
       4 <- 44        -0.00026
       4 <- 48        -0.00027
       4 <- 52        -0.00010
       5 <- 27        -0.00121
       5 <- 38         0.00082
       5 <- 46         0.00036
       6 <-  9        -0.05088
       6 <- 13         0.00230
       6 <- 18        -0.00584
       6 <- 23         0.00049
       6 <- 28        -0.00419
       6 <- 31        -0.00099
       6 <- 37        -0.00064
       6 <- 48         0.00274
       6 <- 52        -0.00034
       7 <- 10        -0.05850
       7 <- 11        -0.00900
       7 <- 14         0.01247
       7 <- 15         0.00714
       7 <- 17         0.00348
       7 <- 20         0.00139
       7 <- 21        -0.00315
       7 <- 24         0.00356
       7 <- 26         0.00178
       7 <- 30         0.00230
       7 <- 32         0.00017
       7 <- 34         0.00054
       7 <- 36         0.00063
       7 <- 39        -0.00054
       7 <- 41         0.00023
       7 <- 43         0.00027
       7 <- 45        -0.00058
       7 <- 47         0.00312
       7 <- 50         0.00133
       7 <- 54         0.00057
       8 <- 27         0.00051
       8 <- 46         0.00380

 Excited State   5:      Singlet-B1     4.1262 eV  300.48 nm  f=0.0064  <S**2>=0.000
       3 ->  9         0.00066
       3 -> 18        -0.00116
       3 -> 23         0.00013
       3 -> 28        -0.00214
       3 -> 31        -0.00117
       3 -> 48        -0.00327
       3 -> 52        -0.00032
       4 ->  9        -0.02980
       4 -> 13         0.00597
       4 -> 18         0.00074
       4 -> 23         0.00471
       4 -> 28         0.00073
       4 -> 31         0.00059
       4 -> 37         0.00035
       4 -> 44        -0.00040
       4 -> 48         0.00094
       4 -> 52         0.00020
       5 -> 27        -0.00602
       5 -> 38        -0.00366
       6 ->  9        -0.38350
       6 -> 13         0.00592
       6 -> 18        -0.00221
       6 -> 23         0.00404
       6 -> 28         0.00210
       6 -> 31        -0.00420
       6 -> 37         0.00264
       6 -> 44         0.00112
       6 -> 48        -0.00111
       6 -> 52        -0.00097
       7 -> 10         0.59092
       7 -> 11         0.03706
       7 -> 14        -0.03755
       7 -> 15        -0.02424
       7 -> 17        -0.00690
       7 -> 20        -0.00214
       7 -> 21         0.00239
       7 -> 24        -0.00794
       7 -> 26        -0.00453
       7 -> 30        -0.00673
       7 -> 32        -0.00063
       7 -> 34        -0.00346
       7 -> 36        -0.00140
       7 -> 39         0.00062
       7 -> 43         0.00039
       7 -> 45        -0.00077
       7 -> 54        -0.00164
       8 -> 27         0.00051
       8 -> 38         0.00018
       3 <-  9         0.00061
       3 <- 13         0.00084
       3 <- 18        -0.00021
       3 <- 23         0.00066
       3 <- 28        -0.00155
       3 <- 37        -0.00028
       3 <- 44        -0.00019
       3 <- 48        -0.00338
       4 <-  9        -0.01468
       4 <- 13         0.00293
       4 <- 23         0.00294
       4 <- 28         0.00062
       4 <- 31         0.00038
       4 <- 37         0.00035
       4 <- 44        -0.00055
       4 <- 48         0.00055
       4 <- 52         0.00015
       5 <- 27        -0.00438
       5 <- 38        -0.00307
       5 <- 46         0.00011
       6 <-  9        -0.02157
       6 <- 13        -0.00070
       6 <- 18        -0.00248
       6 <- 23         0.00059
       6 <- 28         0.00060
       6 <- 31        -0.00476
       6 <- 37         0.00252
       6 <- 44         0.00094
       6 <- 48        -0.00042
       6 <- 52        -0.00127
       7 <- 10        -0.00854
       7 <- 11        -0.00075
       7 <- 14        -0.00062
       7 <- 15        -0.00587
       7 <- 17         0.00014
       7 <- 20        -0.00494
       7 <- 21        -0.00049
       7 <- 24        -0.00298
       7 <- 26        -0.00044
       7 <- 30        -0.00038
       7 <- 32         0.00116
       7 <- 34        -0.00213

 The electronic state is 1-A1.
 Alpha  occ. eigenvalues --  -19.17782 -10.34115  -0.88760  -0.71689  -0.49335
 Alpha  occ. eigenvalues --   -0.38388  -0.30378  -0.28641
 Alpha virt. eigenvalues --   -0.17570  -0.08527  -0.00160   0.04038   0.06088
 Alpha virt. eigenvalues --    0.06261   0.11647   0.13142   0.18672   0.20940
 Alpha virt. eigenvalues --    0.23921   0.30422   0.38490   0.39372   0.50535

 Mulliken charges:
               1
     1  C   -0.103183
     2  H    0.193564
     3  H    0.193564
     4  O   -0.283946
 Sum of Mulliken charges =  -0.00000

 Dipole moment (field-independent basis, Debye):
    X=             -0.0000    Y=              0.0000    Z=             -4.2533  Tot=              4.2533
 Quadrupole moment (field-independent basis, Debye-Ang):
   XX=            -13.0779   YY=            -12.0687   ZZ=            -10.5038
   XY=              0.0000   XZ=              0.0000   YZ=             -0.0000

 Normal termination of Gaussian 16 at Fri Sep 17 10:53:11 2021.
