 Gaussian 16, Revision C.01,
 Gaussian 16:  ES64L-G16RevC.01  3-Jul-2019

 ---------------------------------------
 #P wB97XD/6-311+G* NoSymm #P Field=X+19
 ---------------------------------------

 -------
 TitleMe
 -------
 Symbolic Z-matrix:
 Charge =  1 Multiplicity = 1

                          Input orientation:
 ---------------------------------------------------------------------
 Center     Atomic      Atomic             Coordinates (Angstroms)
 Number     Number       Type             X           Y           Z
 ---------------------------------------------------------------------
      1          6           0        0.029500    1.339700    0.068200
      2          6           0        1.434800    1.286700    0.006400
      3          6           0        2.111800    0.051100   -0.005400
      4          6           0        1.445100   -1.137200    0.031200
      5          6           0       -0.687900    0.168200    0.110000
      6          1           0       -0.471300    2.298400    0.078100
      7          1           0        2.027300    2.196500   -0.032200
      8          1           0        1.989700   -2.076400    0.023200
      9          1           0       -1.771600    0.180400    0.158200
     10          7           0        3.586400    0.051000   -0.067500
     11          8           0        4.147100   -1.059700   -0.088100
     12          8           0        4.145000    1.163900   -0.090100
     13          6           0       -0.023600   -1.145800    0.083500
     14          1           0       -0.436700   -1.872500    0.788900
     15         35           0       -0.535900   -1.869700   -1.740800
 ---------------------------------------------------------------------

 SCF Done:  E(RwB97XD) =  -3010.53617456     A.U. after   18 cycles

 Alpha  occ. eigenvalues -- -483.31200 -62.86224 -56.65917 -56.65345 -56.65342
 Alpha  occ. eigenvalues --  -19.46640 -19.46566 -14.86117 -10.58248 -10.57614
 Alpha  occ. eigenvalues --  -10.57429 -10.57160 -10.56717 -10.52904  -9.02029
 Alpha  occ. eigenvalues --   -6.84707  -6.82834  -6.82819  -2.94612  -2.94115
 Alpha  occ. eigenvalues --   -2.94101  -2.92602  -2.92602  -1.50400  -1.33387
 Alpha  occ. eigenvalues --   -1.22731  -1.14189  -1.11811  -1.04410  -1.01334
 Alpha  occ. eigenvalues --   -0.95508  -0.91091  -0.85615  -0.81125  -0.80873
 Alpha  occ. eigenvalues --   -0.80627  -0.78338  -0.76761  -0.75961  -0.72342
 Alpha  occ. eigenvalues --   -0.69336  -0.67591  -0.63748  -0.60157  -0.57879
 Alpha  occ. eigenvalues --   -0.56998  -0.56479  -0.56246  -0.55216
 Alpha virt. eigenvalues --   -0.29639  -0.21802  -0.15628  -0.13581  -0.08590
 Alpha virt. eigenvalues --   -0.06036  -0.05558  -0.04886  -0.04587  -0.03249
 Alpha virt. eigenvalues --   -0.02558  -0.02302  -0.01304  -0.00848   0.00479

 Mulliken charges:
               1
     1  C   -0.582413
     2  C    0.524372
     3  C   -0.722321
     4  C    0.278463
     5  C    0.009771
     6  H    0.337862
     7  H    0.362861
     8  H    0.370940
     9  H    0.359274
    10  N   -0.106216
    11  O    0.022540
    12  O    0.019343
    13  C   -0.467014
    14  H    0.407084
    15  Br   0.185453
 Sum of Mulliken charges =   1.00000

 Dipole moment (field-independent basis, Debye):
    X=             -1.3960    Y=             -0.6509    Z=             -0.0664  Tot=              1.5417
 Quadrupole moment (field-independent basis, Debye-Ang):
   XX=            -72.5776   YY=            -51.9297   ZZ=            -62.4812
   XY=              1.3900   XZ=              1.2564   YZ=              1.7929

 Normal termination of Gaussian 16 at Wed May  1 14:45:49 2024.
