 Gaussian 16, Revision C.01,
 Gaussian 16:  ES64L-G16RevC.01  3-Jul-2019

 ----------------------------------------
 #P wB97XD/6-311+G* NoSymm #P Field=Y+184
 ----------------------------------------

 -------
 TitleMe
 -------
 Symbolic Z-matrix:
 Charge =  1 Multiplicity = 1

                          Input orientation:
 ---------------------------------------------------------------------
 Center     Atomic      Atomic             Coordinates (Angstroms)
 Number     Number       Type             X           Y           Z
 ---------------------------------------------------------------------
      1          6           0        0.029500    1.339700    0.068200
      2          6           0        1.434800    1.286700    0.006400
      3          6           0        2.111800    0.051100   -0.005400
      4          6           0        1.445100   -1.137200    0.031200
      5          6           0       -0.687900    0.168200    0.110000
      6          1           0       -0.471300    2.298400    0.078100
      7          1           0        2.027300    2.196500   -0.032200
      8          1           0        1.989700   -2.076400    0.023200
      9          1           0       -1.771600    0.180400    0.158200
     10          7           0        3.586400    0.051000   -0.067500
     11          8           0        4.147100   -1.059700   -0.088100
     12          8           0        4.145000    1.163900   -0.090100
     13          6           0       -0.023600   -1.145800    0.083500
     14          1           0       -0.436700   -1.872500    0.788900
     15         35           0       -0.535900   -1.869700   -1.740800
 ---------------------------------------------------------------------

 SCF Done:  E(RwB97XD) =  -3010.55882354     A.U. after   20 cycles

 Alpha  occ. eigenvalues -- -483.28496 -62.83478 -56.63207 -56.62589 -56.62583
 Alpha  occ. eigenvalues --  -19.45477 -19.45259 -14.84796 -10.57520 -10.56345
 Alpha  occ. eigenvalues --  -10.56269 -10.55730 -10.55581 -10.53561  -8.99253
 Alpha  occ. eigenvalues --   -6.82024  -6.80005  -6.79982  -2.91905  -2.91373
 Alpha  occ. eigenvalues --   -2.91353  -2.89740  -2.89739  -1.49116  -1.32108
 Alpha  occ. eigenvalues --   -1.21732  -1.12733  -1.11186  -1.02157  -1.00435
 Alpha  occ. eigenvalues --   -0.94471  -0.90227  -0.84956  -0.80342  -0.79864
 Alpha  occ. eigenvalues --   -0.79386  -0.77609  -0.75464  -0.74984  -0.71271
 Alpha  occ. eigenvalues --   -0.68462  -0.66831  -0.62613  -0.58875  -0.56725
 Alpha  occ. eigenvalues --   -0.55684  -0.54968  -0.52942  -0.52515
 Alpha virt. eigenvalues --   -0.28489  -0.20476  -0.15963  -0.14819  -0.11847
 Alpha virt. eigenvalues --   -0.11586  -0.07711  -0.07320  -0.06040  -0.03763
 Alpha virt. eigenvalues --   -0.02815  -0.01853  -0.01041  -0.00190   0.00030

 Mulliken charges:
               1
     1  C   -0.606783
     2  C    0.629177
     3  C   -0.827336
     4  C    0.374491
     5  C   -0.073988
     6  H    0.252114
     7  H    0.294583
     8  H    0.431249
     9  H    0.346184
    10  N   -0.101816
    11  O    0.125551
    12  O   -0.074902
    13  C   -0.522526
    14  H    0.449945
    15  Br   0.304058
 Sum of Mulliken charges =   1.00000

 Dipole moment (field-independent basis, Debye):
    X=             -1.4144    Y=             -5.9195    Z=             -0.7449  Tot=              6.1316
 Quadrupole moment (field-independent basis, Debye-Ang):
   XX=            -72.1757   YY=            -50.0592   ZZ=            -61.1482
   XY=             -4.5946   XZ=              1.7156   YZ=              4.1171

 Normal termination of Gaussian 16 at Wed May  1 15:10:33 2024.
