 Gaussian 16, Revision C.01,
 Gaussian 16:  ES64L-G16RevC.01  3-Jul-2019

 ----------------------------------------
 #P wB97XD/6-311+G* NoSymm #P Field=Z-126
 ----------------------------------------

 -------
 TitleMe
 -------
 Symbolic Z-matrix:
 Charge =  1 Multiplicity = 1

                          Input orientation:
 ---------------------------------------------------------------------
 Center     Atomic      Atomic             Coordinates (Angstroms)
 Number     Number       Type             X           Y           Z
 ---------------------------------------------------------------------
      1          6           0        0.029500    1.339700    0.068200
      2          6           0        1.434800    1.286700    0.006400
      3          6           0        2.111800    0.051100   -0.005400
      4          6           0        1.445100   -1.137200    0.031200
      5          6           0       -0.687900    0.168200    0.110000
      6          1           0       -0.471300    2.298400    0.078100
      7          1           0        2.027300    2.196500   -0.032200
      8          1           0        1.989700   -2.076400    0.023200
      9          1           0       -1.771600    0.180400    0.158200
     10          7           0        3.586400    0.051000   -0.067500
     11          8           0        4.147100   -1.059700   -0.088100
     12          8           0        4.145000    1.163900   -0.090100
     13          6           0       -0.023600   -1.145800    0.083500
     14          1           0       -0.436700   -1.872500    0.788900
     15         35           0       -0.535900   -1.869700   -1.740800
 ---------------------------------------------------------------------

 SCF Done:  E(RwB97XD) =  -3010.54064605     A.U. after   18 cycles

 Alpha  occ. eigenvalues -- -483.33129 -62.88183 -56.67836 -56.67319 -56.67318
 Alpha  occ. eigenvalues --  -19.46213 -19.46128 -14.85710 -10.59155 -10.58041
 Alpha  occ. eigenvalues --  -10.57616 -10.57434 -10.57141 -10.53299  -9.04010
 Alpha  occ. eigenvalues --   -6.86579  -6.84876  -6.84863  -2.96510  -2.96054
 Alpha  occ. eigenvalues --   -2.96043  -2.94679  -2.94679  -1.49963  -1.32935
 Alpha  occ. eigenvalues --   -1.23170  -1.14873  -1.12227  -1.05836  -1.01410
 Alpha  occ. eigenvalues --   -0.95981  -0.91360  -0.85600  -0.81131  -0.80999
 Alpha  occ. eigenvalues --   -0.80329  -0.78629  -0.76441  -0.76303  -0.73169
 Alpha  occ. eigenvalues --   -0.69773  -0.67970  -0.64516  -0.61286  -0.58717
 Alpha  occ. eigenvalues --   -0.57387  -0.56773  -0.56365  -0.55918
 Alpha virt. eigenvalues --   -0.30355  -0.21652  -0.16977  -0.13997  -0.12060
 Alpha virt. eigenvalues --   -0.08671  -0.07955  -0.07181  -0.05609  -0.04551
 Alpha virt. eigenvalues --   -0.03768  -0.03092  -0.02614  -0.02352  -0.01718

 Mulliken charges:
               1
     1  C   -0.602670
     2  C    0.556719
     3  C   -0.727928
     4  C    0.301996
     5  C    0.042453
     6  H    0.339119
     7  H    0.368129
     8  H    0.378033
     9  H    0.356506
    10  N   -0.106690
    11  O    0.032627
    12  O    0.028808
    13  C   -0.472601
    14  H    0.447506
    15  Br   0.057992
 Sum of Mulliken charges =   1.00000

 Dipole moment (field-independent basis, Debye):
    X=             -0.5228    Y=             -0.1190    Z=              2.1601  Tot=              2.2257
 Quadrupole moment (field-independent basis, Debye-Ang):
   XX=            -70.8308   YY=            -52.6523   ZZ=            -65.1061
   XY=              0.9608   XZ=              2.1122   YZ=             -0.2032

 Normal termination of Gaussian 16 at Wed May  1 15:22:47 2024.
