 Gaussian 16, Revision A.03,
 Gaussian 16:  ES64L-G16RevA.03 25-Dec-2016

 --------------------------------------------------------------------
 #p B3LYP/6-311+G** #p TD=(singlets,nstates=30)IOp(6/8=3) IOp(9/40=4)
 --------------------------------------------------------------------

 ---------------------------------------------
 Scan Step 178, Bond Length 1.3900000000000001
 ---------------------------------------------
 Symbolic Z-matrix:
 Charge =  0 Multiplicity = 1

                         Standard orientation:
 ---------------------------------------------------------------------
 Center     Atomic      Atomic             Coordinates (Angstroms)
 Number     Number       Type             X           Y           Z
 ---------------------------------------------------------------------
      1          6           0        0.000000    0.000000   -0.621081
      2          1           0        0.000000    0.937260   -1.212431
      3          1           0       -0.000000   -0.937260   -1.212431
      4          8           0        0.000000   -0.000000    0.768919
 ---------------------------------------------------------------------

 SCF Done:  E(RB3LYP) =  -114.504154015     A.U. after    9 cycles

 Excitation energies and oscillator strengths:

 Excited State   1:      Singlet-A2     2.9132 eV  425.59 nm  f=0.0000  <S**2>=0.000
       3 -> 27         0.00183
       3 -> 38         0.00149
       3 -> 46         0.00298
       4 -> 27         0.00122
       4 -> 38        -0.00032
       4 -> 46        -0.00142
       5 ->  9         0.01550
       5 -> 13        -0.00030
       5 -> 18         0.00439
       5 -> 23         0.00119
       5 -> 29         0.00387
       5 -> 31        -0.00090
       5 -> 37         0.00239
       5 -> 44         0.00048
       5 -> 48         0.00011
       5 -> 52         0.00057
       6 -> 27        -0.00049
       6 -> 38        -0.00088
       6 -> 46         0.00166
       7 -> 12        -0.00068
       7 -> 15         0.00387
       7 -> 19        -0.00343
       7 -> 22        -0.00011
       7 -> 25         0.00129
       7 -> 30        -0.00118
       7 -> 33         0.00044
       7 -> 42        -0.00011
       7 -> 49         0.00017
       7 -> 50         0.00027
       7 -> 53         0.00048
       8 ->  9         0.70699
       8 -> 13        -0.02439
       8 -> 18         0.02224
       8 -> 23        -0.00696
       8 -> 29         0.01069
       8 -> 31        -0.00054
       8 -> 37         0.00054
       8 -> 48        -0.00029
       8 -> 52         0.00188
       3 <- 27         0.00106
       3 <- 38         0.00117
       3 <- 46         0.00305
       4 <- 27         0.00193
       4 <- 38         0.00018
       4 <- 46        -0.00116
       5 <-  9        -0.00057
       5 <- 13        -0.00070
       5 <- 18        -0.00095
       5 <- 23         0.00042
       5 <- 29        -0.00067
       5 <- 31         0.00057
       5 <- 37         0.00124
       5 <- 44         0.00017
       5 <- 48         0.00011
       5 <- 52         0.00015
       6 <- 27         0.00013
       6 <- 38        -0.00075
       6 <- 46         0.00130
       7 <- 12        -0.00029
       7 <- 15        -0.00883
       7 <- 19         0.00189
       7 <- 22         0.00745
       7 <- 25         0.00028
       7 <- 30         0.00449
       7 <- 33        -0.00097
       7 <- 35         0.00174
       7 <- 40         0.00080
       7 <- 49        -0.00016
       7 <- 50         0.00018
       7 <- 53         0.00141
       8 <-  9        -0.03468
       8 <- 13         0.00161
       8 <- 18        -0.00535
       8 <- 23         0.00062
       8 <- 29        -0.00169
       8 <- 31        -0.00053
       8 <- 37        -0.00089
       8 <- 52         0.00052
 This state for optimization and/or second-order correction.
 Total Energy, E(TD-HF/TD-DFT) =  -114.397095361
 Copying the excited state density for this state as the 1-particle RhoCI density.

 Excited State   2:      Singlet-B2     6.9482 eV  178.44 nm  f=0.0135  <S**2>=0.000
       3 -> 12         0.00180
       3 -> 15         0.00040
       3 -> 19         0.00157
       3 -> 22        -0.00033
       3 -> 25         0.00105
       3 -> 30         0.00022
       3 -> 33         0.00030
       3 -> 35        -0.00071
       3 -> 40        -0.00040
       3 -> 49         0.00038
       3 -> 53        -0.00012
       4 -> 12        -0.00187
       4 -> 15         0.00223
       4 -> 19         0.00157
       4 -> 22        -0.00316
       4 -> 25         0.00288
       4 -> 30         0.00022
       4 -> 35         0.00023
       4 -> 40         0.00042
       4 -> 42        -0.00013
       5 -> 10        -0.00856
       5 -> 11        -0.00409
       5 -> 14         0.00805
       5 -> 16        -0.00029
       5 -> 17         0.00513
       5 -> 20         0.00160
       5 -> 21        -0.00546
       5 -> 24        -0.00114
       5 -> 26         0.00182
       5 -> 28         0.00099
       5 -> 32        -0.00099
       5 -> 34        -0.00099
       5 -> 36        -0.00025
       5 -> 41        -0.00060
       5 -> 43        -0.00037
       5 -> 47         0.00011
       5 -> 54         0.00013
       6 -> 12        -0.00179
       6 -> 15         0.00115
       6 -> 19         0.00029
       6 -> 22        -0.00179
       6 -> 25         0.00077
       6 -> 30        -0.00039
       6 -> 33        -0.00035
       6 -> 35         0.00095
       6 -> 40         0.00028
       6 -> 42        -0.00011
       6 -> 49         0.00023
       6 -> 50        -0.00014
       7 -> 38        -0.00079
       7 -> 46        -0.00028
       8 -> 10         0.70410
       8 -> 11        -0.05223
       8 -> 14         0.02850
       8 -> 16         0.00024
       8 -> 17         0.01496
       8 -> 20         0.01631
       8 -> 21         0.00164
       8 -> 24         0.00037
       8 -> 26         0.00355
       8 -> 28         0.00189
       8 -> 32         0.00086
       8 -> 34         0.00028
       8 -> 36         0.00012
       8 -> 39         0.00028
       8 -> 41        -0.00033
       8 -> 43         0.00060
       8 -> 45         0.00018
       8 -> 47         0.00025
       8 -> 51        -0.00037
       8 -> 54         0.00030
       3 <- 12         0.00040
       3 <- 15         0.00042
       3 <- 19         0.00062
       3 <- 22        -0.00059
       3 <- 25         0.00053
       3 <- 33         0.00026
       3 <- 35        -0.00062
       3 <- 40        -0.00039
       3 <- 49         0.00043
       3 <- 53        -0.00015
       4 <- 12         0.00076
       4 <- 15         0.00203
       4 <- 19         0.00150
       4 <- 22        -0.00208
       4 <- 25         0.00190
       4 <- 30         0.00014
       4 <- 42        -0.00022
       4 <- 50        -0.00013
       5 <- 10         0.00212
       5 <- 11        -0.00026
       5 <- 14         0.00438
       5 <- 16        -0.00038
       5 <- 17         0.00023
       5 <- 20         0.00041
       5 <- 21        -0.00136
       5 <- 24        -0.00234
       5 <- 26         0.00126
       5 <- 28         0.00015
       5 <- 32        -0.00084
       5 <- 34        -0.00078
       5 <- 36        -0.00019
       5 <- 41        -0.00044
       5 <- 43        -0.00031
       6 <- 12        -0.00018
       6 <- 15        -0.00074
       6 <- 19         0.00085
       6 <- 25         0.00025
       6 <- 30         0.00070
       6 <- 33        -0.00041
       6 <- 35         0.00092
       6 <- 40         0.00024
       6 <- 49         0.00015
       6 <- 50        -0.00017
       6 <- 53         0.00023
       7 <- 38        -0.00059
       7 <- 46        -0.00019
       8 <- 10        -0.00143
       8 <- 11        -0.00130
       8 <- 14        -0.00376
       8 <- 16        -0.00079
       8 <- 17        -0.00150
       8 <- 20        -0.00058
       8 <- 21         0.00135
       8 <- 24         0.00114
       8 <- 26        -0.00102
       8 <- 28        -0.00020
       8 <- 32         0.00055
       8 <- 36         0.00034
       8 <- 41        -0.00012
       8 <- 43         0.00030
       8 <- 45         0.00028
       8 <- 51        -0.00012

 Excited State   3:      Singlet-B1     7.1365 eV  173.73 nm  f=0.0015  <S**2>=0.000
       3 ->  9        -0.03309
       3 -> 13         0.00343
       3 -> 18        -0.00620
       3 -> 23         0.00302
       3 -> 29        -0.00185
       3 -> 31        -0.00048
       3 -> 44         0.00047
       3 -> 48         0.00051
       3 -> 52         0.00110
       4 ->  9         0.01601
       4 -> 13        -0.00271
       4 -> 18         0.00072
       4 -> 23        -0.00249
       4 -> 29         0.00017
       4 -> 31        -0.00205
       4 -> 37        -0.00046
       4 -> 48        -0.00147
       4 -> 52        -0.00086
       5 -> 27        -0.00121
       5 -> 38         0.00199
       5 -> 46         0.00198
       6 ->  9         0.70575
       6 -> 13        -0.02722
       6 -> 18         0.02031
       6 -> 23        -0.01199
       6 -> 29         0.00628
       6 -> 31         0.00397
       6 -> 37        -0.00256
       6 -> 44        -0.00344
       6 -> 48         0.00507
       6 -> 52         0.00181
       7 -> 10        -0.00108
       7 -> 11        -0.00105
       7 -> 14        -0.00227
       7 -> 16        -0.01142
       7 -> 20         0.00188
       7 -> 21        -0.00199
       7 -> 24         0.00108
       7 -> 26         0.00022
       7 -> 28        -0.00463
       7 -> 32        -0.00119
       7 -> 34         0.00025
       7 -> 36        -0.00163
       7 -> 39         0.00015
       7 -> 41        -0.00146
       7 -> 43         0.00085
       7 -> 45         0.00431
       7 -> 47         0.00280
       7 -> 51         0.00113
       7 -> 54         0.00057
       8 -> 27         0.00179
       8 -> 38         0.00059
       8 -> 46         0.00647
       3 <-  9        -0.01059
       3 <- 13         0.00015
       3 <- 18        -0.00329
       3 <- 29        -0.00119
       3 <- 31        -0.00043
       3 <- 44        -0.00020
       3 <- 48         0.00076
       3 <- 52         0.00088
       4 <-  9         0.00609
       4 <- 18         0.00241
       4 <- 23        -0.00031
       4 <- 29         0.00217
       4 <- 31        -0.00172
       4 <- 44         0.00019
       4 <- 48        -0.00128
       4 <- 52        -0.00048
       5 <- 27        -0.00145
       5 <- 38         0.00153
       5 <- 46         0.00176
       6 <-  9        -0.02213
       6 <- 13         0.00230
       6 <- 18        -0.00301
       6 <- 29        -0.00268
       6 <- 31         0.00244
       6 <- 37        -0.00244
       6 <- 44        -0.00210
       6 <- 48         0.00447
       6 <- 52         0.00067
       7 <- 10         0.00284
       7 <- 11         0.00490
       7 <- 14         0.00235
       7 <- 16         0.00209
       7 <- 17         0.01418
       7 <- 20         0.00702
       7 <- 21        -0.00634
       7 <- 24         0.00567
       7 <- 26         0.00294
       7 <- 28         0.00053
       7 <- 32        -0.00102
       7 <- 34         0.00138
       7 <- 36        -0.00260
       7 <- 39         0.00039
       7 <- 41        -0.00097
       7 <- 43         0.00079
       7 <- 45         0.00394
       7 <- 47         0.00236
       7 <- 51         0.00083
       7 <- 54         0.00108
       8 <- 27         0.00189
       8 <- 38         0.00070
       8 <- 46         0.00581

 Excited State   4:      Singlet-A1     7.1938 eV  172.35 nm  f=0.1303  <S**2>=0.000
       3 -> 10         0.00619
       3 -> 11         0.01517
       3 -> 14         0.00828
       3 -> 16        -0.00033
       3 -> 17         0.02404
       3 -> 20         0.00013
       3 -> 21        -0.00538
       3 -> 24         0.00598
       3 -> 26         0.00810
       3 -> 28         0.00075
       3 -> 32         0.00302
       3 -> 34        -0.00389
       3 -> 36        -0.00159
       3 -> 39         0.00137
       3 -> 41         0.00018
       3 -> 43         0.00061
       3 -> 45         0.00177
       3 -> 47         0.00101
       3 -> 51         0.00028
       3 -> 54         0.00030
       4 -> 10         0.02548
       4 -> 11        -0.01089
       4 -> 14         0.01536
       4 -> 16         0.00183
       4 -> 17        -0.00711
       4 -> 20         0.00958
       4 -> 24        -0.00759
       4 -> 26         0.00622
       4 -> 28         0.00099
       4 -> 32        -0.00124
       4 -> 34         0.00303
       4 -> 36         0.00064
       4 -> 39        -0.00021
       4 -> 41         0.00010
       4 -> 43        -0.00013
       4 -> 45        -0.00062
       4 -> 47        -0.00161
       4 -> 51        -0.00012
       5 -> 12         0.03019
       5 -> 15         0.02912
       5 -> 19         0.00228
       5 -> 22         0.00291
       5 -> 25         0.01316
       5 -> 30        -0.00273
       5 -> 33        -0.00329
       5 -> 35         0.00186
       5 -> 40         0.00165
       5 -> 42         0.00071
       5 -> 49         0.00062
       5 -> 50        -0.00047
       5 -> 53        -0.00032
       6 -> 10        -0.03929
       6 -> 11        -0.06526
       6 -> 14        -0.02824
       6 -> 16        -0.03791
       6 -> 17        -0.10512
       6 -> 20        -0.03539
       6 -> 21         0.02845
       6 -> 24        -0.02482
       6 -> 26        -0.01293
       6 -> 28        -0.01101
       6 -> 32        -0.00017
       6 -> 34        -0.00300
       6 -> 36         0.00218
       6 -> 39         0.00018
       6 -> 41        -0.00095
       6 -> 43         0.00044
       6 -> 45         0.00059
       6 -> 47         0.00177
       6 -> 51         0.00076
       6 -> 54        -0.00028
       7 ->  9         0.68403
       7 -> 13         0.02159
       7 -> 18        -0.02717
       7 -> 23         0.00626
       7 -> 29        -0.00493
       7 -> 31        -0.00175
       7 -> 37         0.00014
       7 -> 44        -0.00089
       7 -> 48         0.00060
       7 -> 52         0.00100
       8 -> 12         0.00978
       8 -> 15         0.13023
       8 -> 19        -0.02678
       8 -> 22        -0.04652
       8 -> 25         0.00328
       8 -> 30        -0.01522
       8 -> 33         0.00540
       8 -> 35        -0.00671
       8 -> 40        -0.00270
       8 -> 42        -0.00037
       8 -> 49         0.00066
       8 -> 50         0.00038
       8 -> 53        -0.00100
       3 <- 10         0.00329
       3 <- 11         0.00901
       3 <- 14         0.00570
       3 <- 16         0.00046
       3 <- 17         0.01541
       3 <- 20         0.00035
       3 <- 21        -0.00454
       3 <- 24         0.00409
       3 <- 26         0.00522
       3 <- 28         0.00062
       3 <- 32         0.00271
       3 <- 34        -0.00251
       3 <- 36        -0.00108
       3 <- 39         0.00104
       3 <- 41         0.00015
       3 <- 43         0.00061
       3 <- 45         0.00180
       3 <- 47         0.00127
       3 <- 51         0.00027
       3 <- 54         0.00033
       4 <- 10         0.01023
       4 <- 11        -0.00508
       4 <- 14         0.00659
       4 <- 16         0.00049
       4 <- 17        -0.00407
       4 <- 20         0.00585
       4 <- 21         0.00013
       4 <- 24        -0.00448
       4 <- 26         0.00433
       4 <- 28         0.00011
       4 <- 32        -0.00164
       4 <- 34         0.00242
       4 <- 36         0.00036
       4 <- 39        -0.00023
       4 <- 43        -0.00012
       4 <- 45        -0.00012
       4 <- 47        -0.00145
       5 <- 12         0.00908
       5 <- 15         0.01110
       5 <- 19         0.00131
       5 <- 22         0.00147
       5 <- 25         0.00748
       5 <- 30        -0.00156
       5 <- 33        -0.00235
       5 <- 35         0.00149
       5 <- 40         0.00138
       5 <- 42         0.00055
       5 <- 49         0.00052
       5 <- 50        -0.00042
       5 <- 53        -0.00028
       6 <- 10        -0.00807
       6 <- 11        -0.01441
       6 <- 14        -0.00836
       6 <- 16        -0.01349
       6 <- 17        -0.03830
       6 <- 20        -0.01574
       6 <- 21         0.01375
       6 <- 24        -0.01333
       6 <- 26        -0.00748
       6 <- 28        -0.00683
       6 <- 32         0.00023
       6 <- 34        -0.00270
       6 <- 36         0.00147
       6 <- 39         0.00035
       6 <- 41        -0.00062
       6 <- 43         0.00038
       6 <- 45         0.00016
       6 <- 47         0.00142
       6 <- 51         0.00056
       6 <- 54        -0.00020
       7 <-  9        -0.10178
       7 <- 13         0.01214
       7 <- 18        -0.01478
       7 <- 23         0.00712
       7 <- 29        -0.00589
       7 <- 31        -0.00026
       7 <- 37        -0.00020
       7 <- 44        -0.00036
       7 <- 52         0.00082
       8 <- 12         0.00037
       8 <- 15         0.02697
       8 <- 19        -0.00741
       8 <- 22        -0.01935
       8 <- 25         0.00100
       8 <- 30        -0.00953
       8 <- 33         0.00363
       8 <- 35        -0.00467
       8 <- 40        -0.00208
       8 <- 42        -0.00029
       8 <- 49         0.00045
       8 <- 50         0.00029
       8 <- 53        -0.00088

 Excited State   5:      Singlet-B2     7.5745 eV  163.69 nm  f=0.0278  <S**2>=0.000
       3 -> 12        -0.00038
       3 -> 15        -0.00149
       3 -> 19         0.00175
       3 -> 22         0.00056
       3 -> 25        -0.00026
       3 -> 30         0.00320
       3 -> 33         0.00019
       3 -> 35        -0.00101
       3 -> 40        -0.00081
       3 -> 49         0.00097
       3 -> 50        -0.00016
       4 -> 12         0.00197
       4 -> 15         0.00088
       4 -> 19         0.00088
       4 -> 22        -0.00147
       4 -> 25         0.00227
       4 -> 30        -0.00170
       4 -> 33         0.00048
       4 -> 35        -0.00064
       4 -> 49         0.00016
       5 -> 10        -0.00125
       5 -> 11         0.00060
       5 -> 14         0.01114
       5 -> 16        -0.00559
       5 -> 17        -0.00087
       5 -> 20        -0.00393
       5 -> 21        -0.00387
       5 -> 24        -0.00062
       5 -> 26         0.00199
       5 -> 28         0.00149
       5 -> 32         0.00047
       5 -> 34        -0.00057
       5 -> 36        -0.00066
       5 -> 39         0.00067
       5 -> 41        -0.00056
       5 -> 43         0.00028
       5 -> 45         0.00093
       5 -> 47         0.00028
       5 -> 51        -0.00049
       6 -> 12        -0.00227
       6 -> 15        -0.00070
       6 -> 19        -0.00085
       6 -> 22         0.00087
       6 -> 25         0.00016
       6 -> 30         0.00131
       6 -> 33        -0.00051
       6 -> 35         0.00151
       6 -> 40         0.00134
       6 -> 42         0.00013
       6 -> 49        -0.00158
       6 -> 50         0.00018
       6 -> 53         0.00015
       7 -> 27         0.00057
       7 -> 38        -0.00068
       7 -> 46        -0.00259
       8 -> 10         0.05071
       8 -> 11         0.70303
       8 -> 14         0.01115
       8 -> 16         0.01233
       8 -> 17         0.05179
       8 -> 20        -0.00980
       8 -> 21         0.00056
       8 -> 24         0.00245
       8 -> 26         0.00051
       8 -> 28         0.00399
       8 -> 32         0.00020
       8 -> 34        -0.00033
       8 -> 36        -0.00064
       8 -> 39        -0.00024
       8 -> 41        -0.00085
       8 -> 43         0.00041
       8 -> 45         0.00321
       8 -> 47         0.00045
       8 -> 51        -0.00147
       8 -> 54         0.00021
       3 <- 12         0.00033
       3 <- 15        -0.00051
       3 <- 19         0.00125
       3 <- 30         0.00161
       3 <- 33         0.00029
       3 <- 35        -0.00092
       3 <- 40        -0.00074
       3 <- 49         0.00093
       3 <- 50        -0.00011
       3 <- 53        -0.00046

 The electronic state is 1-A1.
 Alpha  occ. eigenvalues --  -19.16259 -10.30583  -0.99071  -0.67247  -0.49057
 Alpha  occ. eigenvalues --   -0.44112  -0.36561  -0.28932
 Alpha virt. eigenvalues --   -0.10868   0.00169   0.03244   0.04162   0.06224
 Alpha virt. eigenvalues --    0.11949   0.15972   0.18874   0.20671   0.21762
 Alpha virt. eigenvalues --    0.23720   0.30179   0.41109   0.43482   0.50958

 Mulliken charges:
               1
     1  C   -0.020473
     2  H    0.152291
     3  H    0.152291
     4  O   -0.284109
 Sum of Mulliken charges =   0.00000

 Dipole moment (field-independent basis, Debye):
    X=             -0.0000    Y=              0.0000    Z=             -3.2092  Tot=              3.2092
 Quadrupole moment (field-independent basis, Debye-Ang):
   XX=            -12.2764   YY=            -11.7606   ZZ=            -11.9246
   XY=              0.0000   XZ=              0.0000   YZ=              0.0000

 Normal termination of Gaussian 16 at Fri Sep 17 10:52:48 2021.
