 Gaussian 16, Revision A.03,
 Gaussian 16:  ES64L-G16RevA.03 25-Dec-2016

 --------------------------------------------------------------------
 #p B3LYP/6-311+G** #p TD=(singlets,nstates=30)IOp(6/8=3) IOp(9/40=4)
 --------------------------------------------------------------------

 --------------------------------
 Scan Step 101, Bond Length 1.005
 --------------------------------
 Symbolic Z-matrix:
 Charge =  0 Multiplicity = 1

                         Standard orientation:
 ---------------------------------------------------------------------
 Center     Atomic      Atomic             Coordinates (Angstroms)
 Number     Number       Type             X           Y           Z
 ---------------------------------------------------------------------
      1          6           0        0.000000    0.000000   -0.428581
      2          1           0        0.000000    0.937260   -1.019931
      3          1           0       -0.000000   -0.937260   -1.019931
      4          8           0        0.000000   -0.000000    0.576419
 ---------------------------------------------------------------------

 SCF Done:  E(RB3LYP) =  -114.445435617     A.U. after    9 cycles

 Excitation energies and oscillator strengths:

 Excited State   1:      Singlet-A2     5.0797 eV  244.08 nm  f=0.0000  <S**2>=0.000
       3 -> 27         0.00299
       3 -> 37         0.00247
       3 -> 46         0.00172
       4 -> 27         0.00298
       4 -> 37        -0.00075
       4 -> 46        -0.00095
       5 ->  9         0.01642
       5 -> 13        -0.00860
       5 -> 17         0.00621
       5 -> 23        -0.00276
       5 -> 28         0.00359
       5 -> 31         0.00278
       5 -> 36         0.00401
       5 -> 44         0.00066
       5 -> 47         0.00011
       5 -> 52         0.00084
       6 -> 27         0.00065
       6 -> 37        -0.00054
       6 -> 46         0.00154
       7 -> 12        -0.00062
       7 -> 16         0.00170
       7 -> 18        -0.00142
       7 -> 22         0.00164
       7 -> 24         0.00104
       7 -> 29        -0.00065
       7 -> 33         0.00033
       7 -> 35         0.00052
       7 -> 40        -0.00027
       7 -> 42        -0.00038
       7 -> 48         0.00064
       7 -> 50        -0.00018
       7 -> 53         0.00037
       8 ->  9         0.69962
       8 -> 13        -0.09776
       8 -> 17         0.02667
       8 -> 23        -0.01148
       8 -> 28         0.00654
       8 -> 31         0.00351
       8 -> 36        -0.00166
       8 -> 44        -0.00026
       8 -> 47        -0.00014
       8 -> 52         0.00125
       3 <- 27         0.00211
       3 <- 37         0.00210
       3 <- 46         0.00179
       4 <- 27         0.00369
       4 <- 37        -0.00027
       4 <- 46        -0.00087
       5 <-  9         0.00016
       5 <- 13        -0.00101
       5 <- 17        -0.00048
       5 <- 23         0.00045
       5 <- 28        -0.00033
       5 <- 31        -0.00112
       5 <- 36         0.00180
       5 <- 44         0.00041
       5 <- 47         0.00016
       5 <- 52         0.00022
       6 <- 27         0.00098
       6 <- 37        -0.00054
       6 <- 46         0.00119
       7 <- 12        -0.00097
       7 <- 16        -0.00440
       7 <- 18        -0.00214
       7 <- 22         0.00606
       7 <- 24        -0.00108
       7 <- 29         0.00213
       7 <- 33        -0.00120
       7 <- 35         0.00242
       7 <- 40        -0.00045
       7 <- 42        -0.00094
       7 <- 48         0.00047
       7 <- 53         0.00099
       8 <-  9        -0.01481
       8 <- 13         0.00642
       8 <- 17        -0.00386
       8 <- 23         0.00066
       8 <- 28        -0.00047
       8 <- 31         0.00211
       8 <- 36        -0.00216
       8 <- 52         0.00038
 This state for optimization and/or second-order correction.
 Total Energy, E(TD-HF/TD-DFT) =  -114.258761091
 Copying the excited state density for this state as the 1-particle RhoCI density.

 Excited State   2:      Singlet-B2     6.3762 eV  194.45 nm  f=0.0652  <S**2>=0.000
       3 -> 12         0.00109
       3 -> 16         0.00038
       3 -> 18         0.00112
       3 -> 22        -0.00017
       3 -> 24         0.00126
       3 -> 29        -0.00014
       3 -> 35        -0.00020
       3 -> 50        -0.00012
       4 -> 12        -0.00506
       4 -> 16         0.00029
       4 -> 18         0.00233
       4 -> 22        -0.00313
       4 -> 24         0.00394
       4 -> 29        -0.00019
       4 -> 33        -0.00088
       4 -> 35         0.00087
       4 -> 40        -0.00033
       4 -> 42        -0.00038
       5 -> 10        -0.00105
       5 -> 11        -0.00861
       5 -> 14         0.00633
       5 -> 15        -0.00142
       5 -> 19         0.00337
       5 -> 20        -0.00043
       5 -> 21         0.00396
       5 -> 25         0.00063
       5 -> 26        -0.00186
       5 -> 30         0.00250
       5 -> 32        -0.00030
       5 -> 34        -0.00031
       5 -> 38        -0.00056
       5 -> 39        -0.00025
       5 -> 43        -0.00051
       5 -> 45        -0.00057
       5 -> 49         0.00026
       6 -> 12         0.00166
       6 -> 18         0.00419
       6 -> 22        -0.00264
       6 -> 24         0.00196
       6 -> 29        -0.00018
       6 -> 42         0.00037
       6 -> 48         0.00036
       6 -> 50         0.00051
       7 -> 27         0.00065
       7 -> 37        -0.00011
       7 -> 46         0.00078
       8 -> 10         0.70565
       8 -> 11        -0.03717
       8 -> 14        -0.00544
       8 -> 15        -0.01059
       8 -> 19         0.01859
       8 -> 20         0.00967
       8 -> 21        -0.00601
       8 -> 25         0.00084
       8 -> 26        -0.00099
       8 -> 30         0.00038
       8 -> 32         0.00191
       8 -> 34         0.00192
       8 -> 38         0.00062
       8 -> 39         0.00057
       8 -> 41        -0.00019
       8 -> 43         0.00068
       8 -> 45        -0.00093
       8 -> 49         0.00015
       8 -> 54         0.00016
       3 <- 12         0.00032
       3 <- 16         0.00039
       3 <- 18         0.00054
       3 <- 22        -0.00026
       3 <- 24         0.00086
       3 <- 29        -0.00013
       3 <- 35        -0.00019
       4 <- 12         0.00038
       4 <- 16         0.00082
       4 <- 18         0.00272
       4 <- 22        -0.00190
       4 <- 24         0.00287
       4 <- 29        -0.00014
       4 <- 33        -0.00062
       4 <- 35         0.00061
       4 <- 40        -0.00028
       5 <- 10         0.00237
       5 <- 11        -0.00010
       5 <- 14         0.00475
       5 <- 15        -0.00138
       5 <- 19         0.00083
       5 <- 21         0.00214
       5 <- 25         0.00168
       5 <- 26        -0.00138
       5 <- 30         0.00084
       5 <- 32        -0.00056
       5 <- 34        -0.00036
       5 <- 38        -0.00044
       5 <- 39        -0.00017
       5 <- 41         0.00022
       5 <- 43        -0.00035
       5 <- 45        -0.00049
       5 <- 49         0.00024
       6 <- 12         0.00047
       6 <- 16        -0.00067
       6 <- 18         0.00182
       6 <- 22        -0.00099
       6 <- 24         0.00081
       6 <- 29         0.00049
       6 <- 33        -0.00017
       6 <- 35         0.00019
       6 <- 42         0.00035
       6 <- 48         0.00031
       6 <- 50         0.00054
       7 <- 27         0.00050
       7 <- 46         0.00066
       8 <- 10        -0.00325
       8 <- 11        -0.00110
       8 <- 14        -0.00985
       8 <- 15         0.00066
       8 <- 19        -0.00066
       8 <- 20        -0.00036
       8 <- 21        -0.00352
       8 <- 25        -0.00296
       8 <- 26        -0.00036
       8 <- 30        -0.00063
       8 <- 32         0.00067
       8 <- 34         0.00163
       8 <- 38         0.00064
       8 <- 39         0.00046
       8 <- 43         0.00054
       8 <- 45        -0.00064
       8 <- 49         0.00018
       8 <- 51         0.00012

 Excited State   3:      Singlet-B2     7.1656 eV  173.03 nm  f=0.0205  <S**2>=0.000
       3 -> 12        -0.00017
       3 -> 16        -0.00067
       3 -> 18         0.00038
       3 -> 22         0.00021
       3 -> 24         0.00036
       3 -> 29         0.00131
       3 -> 33         0.00014
       3 -> 35        -0.00032
       3 -> 42         0.00032
       3 -> 48         0.00023
       3 -> 50         0.00026
       4 -> 12         0.00312
       4 -> 16        -0.00201
       4 -> 18         0.00332
       4 -> 22        -0.00156
       4 -> 24         0.00344
       4 -> 29        -0.00106
       4 -> 33         0.00055
       4 -> 35        -0.00032
       4 -> 40        -0.00018
       4 -> 42         0.00012
       4 -> 48         0.00017
       4 -> 50         0.00016
       5 -> 10        -0.00683
       5 -> 11         0.00032
       5 -> 14         0.00466
       5 -> 15        -0.00594
       5 -> 19        -0.00386
       5 -> 20        -0.00203
       5 -> 21         0.00111
       5 -> 25         0.00128
       5 -> 26         0.00109
       5 -> 30         0.00105
       5 -> 32        -0.00172
       5 -> 34        -0.00090
       5 -> 39         0.00055
       5 -> 41        -0.00085
       5 -> 45         0.00070
       5 -> 49        -0.00041
       5 -> 51        -0.00028
       6 -> 12        -0.00317
       6 -> 16        -0.00148
       6 -> 18        -0.00194
       6 -> 22         0.00145
       6 -> 29         0.00031
       6 -> 33        -0.00036
       6 -> 35         0.00138
       6 -> 40        -0.00049
       6 -> 42        -0.00071
       6 -> 48        -0.00071
       6 -> 50        -0.00067
       6 -> 53         0.00014
       7 -> 27        -0.00063
       7 -> 37        -0.00124
       7 -> 46        -0.00130
       8 -> 10         0.03779
       8 -> 11         0.70513
       8 -> 14        -0.01371
       8 -> 15         0.01948
       8 -> 19        -0.02190
       8 -> 20         0.01339
       8 -> 21        -0.00210
       8 -> 25         0.00035
       8 -> 26         0.00087
       8 -> 30        -0.00139
       8 -> 34         0.00041
       8 -> 39         0.00020
       8 -> 41        -0.00143
       8 -> 45         0.00097
       8 -> 49        -0.00074
       8 -> 51        -0.00034
       8 -> 54        -0.00018
       3 <- 12         0.00029
       3 <- 16        -0.00040
       3 <- 18         0.00064
       3 <- 24         0.00044
       3 <- 29         0.00083
       3 <- 33         0.00020
       3 <- 35        -0.00037
       3 <- 42         0.00028
       3 <- 48         0.00018
       3 <- 50         0.00015
       3 <- 53        -0.00022
       4 <- 12         0.00034
       4 <- 16         0.00018
       4 <- 18         0.00113
       4 <- 22        -0.00124
       4 <- 24         0.00148
       4 <- 29        -0.00044
       4 <- 33         0.00052
       4 <- 40        -0.00016
       4 <- 42         0.00017
       4 <- 48         0.00011
       4 <- 50         0.00022
       5 <- 10         0.00133
       5 <- 11        -0.00061
       5 <- 14         0.00207
       5 <- 15        -0.00048
       5 <- 19         0.00069
       5 <- 21         0.00096
       5 <- 25         0.00102
       5 <- 26         0.00078
       5 <- 30         0.00077
       5 <- 32        -0.00024
       5 <- 34        -0.00125
       5 <- 38         0.00015
       5 <- 39         0.00032
       5 <- 41        -0.00087
       5 <- 43        -0.00011
       5 <- 45         0.00067
       5 <- 49        -0.00028
       5 <- 51        -0.00028
       6 <- 12        -0.00036
       6 <- 18        -0.00029
       6 <- 22         0.00037
       6 <- 33        -0.00016
       6 <- 35         0.00100
       6 <- 40        -0.00037
       6 <- 42        -0.00050
       6 <- 48        -0.00061
       6 <- 50        -0.00059
       7 <- 27        -0.00020
       7 <- 37        -0.00101
       7 <- 46        -0.00111
       8 <- 10        -0.00110
       8 <- 11         0.00075
       8 <- 14        -0.00500
       8 <- 15         0.00083
       8 <- 19         0.00254
       8 <- 20        -0.00158
       8 <- 21        -0.00228
       8 <- 25        -0.00013
       8 <- 26         0.00130
       8 <- 30        -0.00081
       8 <- 32         0.00119
       8 <- 38        -0.00023
       8 <- 41        -0.00120
       8 <- 45         0.00080
       8 <- 49        -0.00048
       8 <- 51        -0.00031

 Excited State   4:      Singlet-A1     7.3064 eV  169.69 nm  f=0.0522  <S**2>=0.000
       3 -> 10         0.00151
       3 -> 11        -0.00098
       3 -> 14         0.00036
       3 -> 15        -0.00046
       3 -> 19         0.00112
       3 -> 20         0.00077
       3 -> 26        -0.00043
       3 -> 30         0.00120
       3 -> 32        -0.00032
       3 -> 34        -0.00023
       3 -> 38        -0.00034
       3 -> 39         0.00017
       3 -> 41        -0.00019
       3 -> 49        -0.00012
       3 -> 51        -0.00035
       3 -> 54        -0.00021
       4 -> 10         0.00549
       4 -> 11         0.00892
       4 -> 14         0.00605
       4 -> 15        -0.00067
       4 -> 19         0.00063
       4 -> 20         0.00600
       4 -> 21         0.00252
       4 -> 25         0.00706
       4 -> 26        -0.00083
       4 -> 30        -0.00057
       4 -> 32        -0.00023
       4 -> 34        -0.00088
       4 -> 39        -0.00048
       4 -> 41         0.00021
       4 -> 43         0.00011
       4 -> 45        -0.00028
       4 -> 49        -0.00023
       5 -> 12         0.00776
       5 -> 16        -0.00281
       5 -> 18         0.01119
       5 -> 22        -0.00048
       5 -> 24         0.00480
       5 -> 29         0.00035
       5 -> 33        -0.00016
       5 -> 35         0.00087
       5 -> 42         0.00017
       5 -> 50        -0.00035
       5 -> 53        -0.00015
       6 -> 10         0.01339
       6 -> 11        -0.00456
       6 -> 14         0.00384
       6 -> 15         0.00146
       6 -> 19         0.00600
       6 -> 20         0.00415
       6 -> 21         0.00172
       6 -> 25         0.00227
       6 -> 26        -0.00056
       6 -> 30        -0.00051
       6 -> 32         0.00055
       6 -> 34        -0.00076
       6 -> 39        -0.00013
       6 -> 43         0.00011
       6 -> 49        -0.00020
       6 -> 51         0.00054
       7 ->  9         0.01015
       7 -> 13         0.00605
       7 -> 17         0.00491
       7 -> 23         0.00481
       7 -> 28         0.00023
       7 -> 31         0.00085
       7 -> 36         0.00054
       7 -> 44         0.00061
       7 -> 47        -0.00036
       8 -> 12         0.70564
       8 -> 16        -0.02993
       8 -> 18         0.02220
       8 -> 22         0.00501
       8 -> 24         0.00174
       8 -> 29         0.00216
       8 -> 33         0.00151
       8 -> 35        -0.00227
       8 -> 40        -0.00021
       8 -> 42        -0.00110
       8 -> 48        -0.00037
       8 -> 50        -0.00024
       8 -> 53        -0.00017
       3 <- 10         0.00058
       3 <- 11        -0.00028
       3 <- 14         0.00024
       3 <- 15        -0.00016
       3 <- 19         0.00055
       3 <- 20         0.00035
       3 <- 21         0.00016
       3 <- 25         0.00020
       3 <- 26        -0.00021
       3 <- 30         0.00073
       3 <- 32        -0.00026
       3 <- 34        -0.00011
       3 <- 38        -0.00027
       3 <- 39         0.00015
       3 <- 41        -0.00017
       3 <- 45         0.00013
       3 <- 49        -0.00014
       3 <- 51        -0.00030
       3 <- 54        -0.00019
       4 <- 10         0.00525
       4 <- 11         0.00272
       4 <- 14         0.00444
       4 <- 15        -0.00098
       4 <- 19         0.00048
       4 <- 20         0.00339
       4 <- 21         0.00101
       4 <- 25         0.00409
       4 <- 26        -0.00043
       4 <- 32        -0.00052
       4 <- 34        -0.00097
       4 <- 38        -0.00017
       4 <- 39        -0.00046
       4 <- 45        -0.00027
       4 <- 49        -0.00019
       5 <- 12         0.00275
       5 <- 16         0.00034
       5 <- 18         0.00442
       5 <- 22         0.00011
       5 <- 24         0.00260
       5 <- 33        -0.00032
       5 <- 35         0.00078
       5 <- 42         0.00015
       5 <- 50        -0.00026
       5 <- 53        -0.00014
       6 <- 10         0.00407
       6 <- 11        -0.00077
       6 <- 14         0.00171
       6 <- 15         0.00049
       6 <- 19         0.00230
       6 <- 20         0.00220
       6 <- 21         0.00067
       6 <- 25         0.00126
       6 <- 26        -0.00056
       6 <- 30        -0.00019
       6 <- 32         0.00030
       6 <- 34        -0.00060
       6 <- 39        -0.00021
       6 <- 41         0.00014
       6 <- 51         0.00050
       7 <-  9         0.00236
       7 <- 13         0.00196
       7 <- 17         0.00188
       7 <- 23         0.00265
       7 <- 31         0.00062
       7 <- 36         0.00044
       7 <- 44         0.00051
       7 <- 47        -0.00032
       8 <- 12        -0.00237
       8 <- 16        -0.00827
       8 <- 18        -0.00522
       8 <- 22         0.00040
       8 <- 24        -0.00238
       8 <- 29         0.00071
       8 <- 33         0.00095
       8 <- 35        -0.00141
       8 <- 40        -0.00022
       8 <- 42        -0.00092
       8 <- 48        -0.00044
       8 <- 50        -0.00020
       8 <- 53        -0.00018

 Excited State   5:      Singlet-A2     7.8496 eV  157.95 nm  f=0.0000  <S**2>=0.000
       3 -> 27        -0.00098
       3 -> 37        -0.00086
       3 -> 46        -0.00048
       4 -> 37         0.00062
       4 -> 46         0.00015
       5 ->  9        -0.00988
       5 -> 13         0.00219
       5 -> 17         0.00476
       5 -> 23        -0.00050
       5 -> 31        -0.00199
       5 -> 36        -0.00164
       5 -> 44        -0.00027
       5 -> 52        -0.00023
       6 -> 27         0.00012
       6 -> 37         0.00027
       6 -> 46        -0.00051
       7 -> 12        -0.00046
       7 -> 16        -0.00192
       7 -> 18         0.00143
       7 -> 22        -0.00086
       7 -> 24        -0.00024
       7 -> 29         0.00023
       7 -> 35        -0.00023
       7 -> 40         0.00010
       7 -> 42         0.00018
       7 -> 48        -0.00019
       7 -> 53        -0.00012
       8 ->  9         0.09797
       8 -> 13         0.69986
       8 -> 17         0.00801
       8 -> 23         0.02050
       8 -> 28        -0.00060
       8 -> 31        -0.00125
       8 -> 36         0.00020
       8 -> 47         0.00018
       8 -> 52        -0.00029
       3 <- 27        -0.00049
       3 <- 37        -0.00066
       3 <- 46        -0.00058
       4 <- 27        -0.00056
       4 <- 46         0.00016
       5 <-  9        -0.00025
       5 <- 13        -0.00014
       5 <- 17         0.00063
       5 <- 36        -0.00044
       5 <- 44        -0.00010
       6 <- 27        -0.00017
       6 <- 37         0.00024
       6 <- 46        -0.00020
       7 <- 12        -0.00062
       7 <- 16        -0.00060
       7 <- 18         0.00060
       7 <- 22        -0.00172
       7 <- 24        -0.00016
       7 <- 29         0.00012
       7 <- 33         0.00055
       7 <- 35        -0.00095
       7 <- 40         0.00019
       7 <- 42         0.00050
       7 <- 53        -0.00023
       8 <-  9         0.00445
       8 <- 13         0.00102
       8 <- 17         0.00032
       8 <- 23        -0.00037
       8 <- 28         0.00014
       8 <- 31        -0.00037
       8 <- 36         0.00045
       8 <- 52        -0.00012

 Excited State   6:      Singlet-B2    10.1864 eV  121.72 nm  f=0.2376  <S**2>=0.000
       3 -> 12        -0.00039
       3 -> 16        -0.00196
       3 -> 18         0.00015
       3 -> 22         0.00145

 The electronic state is 1-A1.
 Alpha  occ. eigenvalues --  -19.13967 -10.24687  -1.19720  -0.61393  -0.55704
 Alpha  occ. eigenvalues --   -0.49677  -0.49441  -0.26053
 Alpha virt. eigenvalues --   -0.00994   0.01286   0.04260   0.04377   0.07391
 Alpha virt. eigenvalues --    0.13804   0.18034   0.20067   0.21989   0.22554
 Alpha virt. eigenvalues --    0.26886   0.35755   0.49270   0.50814   0.51544

 Mulliken charges:
               1
     1  C    0.109351
     2  H    0.048188
     3  H    0.048188
     4  O   -0.205727
 Sum of Mulliken charges =   0.00000

 Dipole moment (field-independent basis, Debye):
    X=              0.0000    Y=              0.0000    Z=             -1.3585  Tot=              1.3585
 Quadrupole moment (field-independent basis, Debye-Ang):
   XX=            -11.1365   YY=            -11.9858   ZZ=            -12.9411
   XY=             -0.0000   XZ=             -0.0000   YZ=             -0.0000

 Normal termination of Gaussian 16 at Fri Sep 17 10:52:36 2021.
