 Gaussian 16, Revision C.01,
 Gaussian 16:  ES64L-G16RevC.01  3-Jul-2019

 ----------------------------------------
 #P wB97XD/6-311+G* NoSymm #P Field=Y+262
 ----------------------------------------

 -------
 TitleMe
 -------
 Symbolic Z-matrix:
 Charge =  1 Multiplicity = 1

                          Input orientation:
 ---------------------------------------------------------------------
 Center     Atomic      Atomic             Coordinates (Angstroms)
 Number     Number       Type             X           Y           Z
 ---------------------------------------------------------------------
      1          6           0        0.519300    1.233000   -0.031900
      2          6           0        1.944500    1.269200   -0.036700
      3          6           0        2.620400    0.092800   -0.025000
      4          6           0       -0.196000    0.030100    0.001000
      5          1           0       -0.020700    2.174200   -0.043400
      6          1           0        2.482800    2.208900   -0.036100
      7          1           0       -1.277700    0.039900    0.011700
      8          7           0        4.092100    0.095900    0.036600
      9          8           0        4.639300   -1.021700    0.144600
     10          8           0        4.664900    1.198400   -0.023300
     11          6           0        0.494300   -1.167100    0.021000
     12          1           0       -0.032500   -2.114900    0.054500
     13          6           0        1.962900   -1.216500   -0.021100
     14          1           0        2.443600   -1.963100    0.615100
     15         35           0        2.173000   -1.949100   -1.906200
 ---------------------------------------------------------------------

 SCF Done:  E(RwB97XD) =  -3010.58103985     A.U. after   23 cycles

 Alpha  occ. eigenvalues -- -483.27640 -62.82590 -56.62339 -56.61705 -56.61678
 Alpha  occ. eigenvalues --  -19.46508 -19.46028 -14.85429 -10.58539 -10.56681
 Alpha  occ. eigenvalues --  -10.55152 -10.54532 -10.53890 -10.51936  -8.98341
 Alpha  occ. eigenvalues --   -6.81162  -6.79092  -6.79011  -2.91030  -2.90500
 Alpha  occ. eigenvalues --   -2.90436  -2.88781  -2.88780  -1.49826  -1.32809
 Alpha  occ. eigenvalues --   -1.21209  -1.11991  -1.10738  -1.02677  -0.98807
 Alpha  occ. eigenvalues --   -0.94043  -0.89741  -0.84716  -0.80447  -0.79859
 Alpha  occ. eigenvalues --   -0.79220  -0.77125  -0.75816  -0.74230  -0.70518
 Alpha  occ. eigenvalues --   -0.67204  -0.66311  -0.61823  -0.58161  -0.57422
 Alpha  occ. eigenvalues --   -0.56476  -0.55651  -0.51582  -0.51119
 Alpha virt. eigenvalues --   -0.28456  -0.20311  -0.20152  -0.15892  -0.13400
 Alpha virt. eigenvalues --   -0.11948  -0.09461  -0.09234  -0.07172  -0.04985
 Alpha virt. eigenvalues --   -0.04806  -0.03073  -0.01414  -0.00545  -0.00288

 Mulliken charges:
               1
     1  C   -0.103371
     2  C    0.247146
     3  C   -0.153768
     4  C   -0.410972
     5  H    0.226622
     6  H    0.240692
     7  H    0.325719
     8  N   -0.249289
     9  O    0.235673
    10  O   -0.077378
    11  C   -0.155470
    12  H    0.443983
    13  C   -0.429972
    14  H    0.471805
    15  Br   0.388582
 Sum of Mulliken charges =   1.00000

 Dipole moment (field-independent basis, Debye):
    X=              3.1862    Y=             -8.6636    Z=             -1.8572  Tot=              9.4159
 Quadrupole moment (field-independent basis, Debye-Ang):
   XX=            -67.4543   YY=            -48.1436   ZZ=            -59.4660
   XY=            -19.1989   XZ=             -4.9800   YZ=              6.5917

 Normal termination of Gaussian 16 at Thu May  2 14:22:56 2024.
