 Gaussian 16, Revision C.01,
 Gaussian 16:  ES64L-G16RevC.01  3-Jul-2019

 ----------------------------------------
 #P wB97XD/6-311+G* NoSymm #P Field=Y+107
 ----------------------------------------

 -------
 TitleMe
 -------
 Symbolic Z-matrix:
 Charge =  1 Multiplicity = 1

                          Input orientation:
 ---------------------------------------------------------------------
 Center     Atomic      Atomic             Coordinates (Angstroms)
 Number     Number       Type             X           Y           Z
 ---------------------------------------------------------------------
      1          6           0        0.029500    1.339700    0.068200
      2          6           0        1.434800    1.286700    0.006400
      3          6           0        2.111800    0.051100   -0.005400
      4          6           0        1.445100   -1.137200    0.031200
      5          6           0       -0.687900    0.168200    0.110000
      6          1           0       -0.471300    2.298400    0.078100
      7          1           0        2.027300    2.196500   -0.032200
      8          1           0        1.989700   -2.076400    0.023200
      9          1           0       -1.771600    0.180400    0.158200
     10          7           0        3.586400    0.051000   -0.067500
     11          8           0        4.147100   -1.059700   -0.088100
     12          8           0        4.145000    1.163900   -0.090100
     13          6           0       -0.023600   -1.145800    0.083500
     14          1           0       -0.436700   -1.872500    0.788900
     15         35           0       -0.535900   -1.869700   -1.740800
 ---------------------------------------------------------------------

 SCF Done:  E(RwB97XD) =  -3010.54430011     A.U. after   19 cycles

 Alpha  occ. eigenvalues -- -483.29502 -62.84505 -56.64218 -56.63619 -56.63616
 Alpha  occ. eigenvalues --  -19.45476 -19.45370 -14.84926 -10.57405 -10.56681
 Alpha  occ. eigenvalues --  -10.56513 -10.56415 -10.56073 -10.53188  -9.00295
 Alpha  occ. eigenvalues --   -6.83026  -6.81069  -6.81052  -2.92917  -2.92399
 Alpha  occ. eigenvalues --   -2.92384  -2.90819  -2.90819  -1.49209  -1.32193
 Alpha  occ. eigenvalues --   -1.21967  -1.13127  -1.11332  -1.02954  -1.00575
 Alpha  occ. eigenvalues --   -0.94751  -0.90409  -0.84931  -0.80364  -0.80082
 Alpha  occ. eigenvalues --   -0.79507  -0.77663  -0.75622  -0.75339  -0.71536
 Alpha  occ. eigenvalues --   -0.68760  -0.67077  -0.62982  -0.59221  -0.56726
 Alpha  occ. eigenvalues --   -0.55755  -0.55150  -0.54267  -0.53598
 Alpha virt. eigenvalues --   -0.28833  -0.20719  -0.14906  -0.12564  -0.11523
 Alpha virt. eigenvalues --   -0.08103  -0.06506  -0.05380  -0.04712  -0.03327
 Alpha virt. eigenvalues --   -0.01708  -0.01358  -0.00915  -0.00109   0.00532

 Mulliken charges:
               1
     1  C   -0.595401
     2  C    0.577353
     3  C   -0.778565
     4  C    0.331617
     5  C   -0.036314
     6  H    0.287566
     7  H    0.325635
     8  H    0.408030
     9  H    0.347953
    10  N   -0.104256
    11  O    0.085853
    12  O   -0.032619
    13  C   -0.496516
    14  H    0.430993
    15  Br   0.248672
 Sum of Mulliken charges =   1.00000

 Dipole moment (field-independent basis, Debye):
    X=             -1.1770    Y=             -3.6734    Z=             -0.4332  Tot=              3.8816
 Quadrupole moment (field-independent basis, Debye-Ang):
   XX=            -71.8045   YY=            -50.7680   ZZ=            -61.7494
   XY=             -2.1303   XZ=              1.4599   YZ=              3.0777

 Normal termination of Gaussian 16 at Wed May  1 15:07:56 2024.
