 Gaussian 16, Revision C.01,
 Gaussian 16:  ES64L-G16RevC.01  3-Jul-2019

 ---------------------------------------
 #P wB97XD/6-311+G* NoSymm #P Field=X-77
 ---------------------------------------

 -------
 TitleMe
 -------
 Symbolic Z-matrix:
 Charge =  1 Multiplicity = 1

                          Input orientation:
 ---------------------------------------------------------------------
 Center     Atomic      Atomic             Coordinates (Angstroms)
 Number     Number       Type             X           Y           Z
 ---------------------------------------------------------------------
      1          6           0        0.519300    1.233000   -0.031900
      2          6           0        1.944500    1.269200   -0.036700
      3          6           0        2.620400    0.092800   -0.025000
      4          6           0       -0.196000    0.030100    0.001000
      5          1           0       -0.020700    2.174200   -0.043400
      6          1           0        2.482800    2.208900   -0.036100
      7          1           0       -1.277700    0.039900    0.011700
      8          7           0        4.092100    0.095900    0.036600
      9          8           0        4.639300   -1.021700    0.144600
     10          8           0        4.664900    1.198400   -0.023300
     11          6           0        0.494300   -1.167100    0.021000
     12          1           0       -0.032500   -2.114900    0.054500
     13          6           0        1.962900   -1.216500   -0.021100
     14          1           0        2.443600   -1.963100    0.615100
     15         35           0        2.173000   -1.949100   -1.906200
 ---------------------------------------------------------------------

 SCF Done:  E(RwB97XD) =  -3010.54365739     A.U. after   24 cycles

 Alpha  occ. eigenvalues -- -483.28416 -62.83428 -56.63130 -56.62552 -56.62538
 Alpha  occ. eigenvalues --  -19.41408 -19.41373 -14.80928 -10.56408 -10.55206
 Alpha  occ. eigenvalues --  -10.55085 -10.54804 -10.50981 -10.50382  -8.99226
 Alpha  occ. eigenvalues --   -6.81926  -6.80031  -6.79989  -2.91825  -2.91329
 Alpha  occ. eigenvalues --   -2.91295  -2.89779  -2.89778  -1.45114  -1.28018
 Alpha  occ. eigenvalues --   -1.19797  -1.10332  -1.09607  -1.01998  -0.97195
 Alpha  occ. eigenvalues --   -0.92865  -0.87880  -0.81764  -0.77648  -0.76813
 Alpha  occ. eigenvalues --   -0.76214  -0.75094  -0.72960  -0.71516  -0.69355
 Alpha  occ. eigenvalues --   -0.66383  -0.65055  -0.60973  -0.57057  -0.53413
 Alpha  occ. eigenvalues --   -0.52865  -0.52228  -0.51009  -0.50660
 Alpha virt. eigenvalues --   -0.27466  -0.16951  -0.12800  -0.09882  -0.08803
 Alpha virt. eigenvalues --   -0.05912  -0.04641  -0.03283  -0.02722  -0.01538
 Alpha virt. eigenvalues --   -0.00497   0.00279   0.00983   0.01864   0.03103

 Mulliken charges:
               1
     1  C   -0.102491
     2  C    0.174117
     3  C   -0.030671
     4  C   -0.328265
     5  H    0.325291
     6  H    0.359957
     7  H    0.292549
     8  N   -0.242079
     9  O    0.118196
    10  O    0.106799
    11  C   -0.239610
    12  H    0.337372
    13  C   -0.393057
    14  H    0.420875
    15  Br   0.201018
 Sum of Mulliken charges =   1.00000

 Dipole moment (field-independent basis, Debye):
    X=              4.9810    Y=             -1.0201    Z=             -0.8630  Tot=              5.1571
 Quadrupole moment (field-independent basis, Debye-Ang):
   XX=            -59.3626   YY=            -51.0114   ZZ=            -61.9389
   XY=             -3.4987   XZ=             -3.1745   YZ=              2.7251

 Normal termination of Gaussian 16 at Thu May  2 14:23:37 2024.
