 Gaussian 16, Revision A.03,
 Gaussian 16:  ES64L-G16RevA.03 25-Dec-2016

 --------------------------------------------------------------------
 #p B3LYP/6-311+G** #p TD=(singlets,nstates=30)IOp(6/8=3) IOp(9/40=4)
 --------------------------------------------------------------------

 -------------------------------
 Scan Step 248, Bond Length 1.74
 -------------------------------
 Symbolic Z-matrix:
 Charge =  0 Multiplicity = 1

                         Standard orientation:
 ---------------------------------------------------------------------
 Center     Atomic      Atomic             Coordinates (Angstroms)
 Number     Number       Type             X           Y           Z
 ---------------------------------------------------------------------
      1          6           0        0.000000   -0.000000   -0.796081
      2          1           0        0.000000    0.937260   -1.387431
      3          1           0       -0.000000   -0.937260   -1.387431
      4          8           0        0.000000    0.000000    0.943919
 ---------------------------------------------------------------------

 SCF Done:  E(RB3LYP) =  -114.376993025     A.U. after   11 cycles

 Excitation energies and oscillator strengths:

 Excited State   1:      Singlet-A2     1.5264 eV  812.28 nm  f=0.0000  <S**2>=0.000
       3 -> 27         0.00087
       3 -> 38         0.00059
       3 -> 46         0.00336
       4 -> 27         0.00049
       4 -> 46        -0.00111
       5 ->  9         0.00356
       5 -> 13         0.00111
       5 -> 18         0.00211
       5 -> 23         0.00151
       5 -> 28         0.00172
       5 -> 37         0.00095
       5 -> 44         0.00025
       5 -> 52         0.00023
       6 -> 27        -0.00061
       6 -> 38        -0.00065
       6 -> 46         0.00109
       7 -> 12        -0.00113
       7 -> 16         0.00513
       7 -> 19        -0.00443
       7 -> 22        -0.00103
       7 -> 25        -0.00071
       7 -> 29        -0.00177
       7 -> 33         0.00031
       7 -> 49         0.00013
       7 -> 51         0.00011
       7 -> 53         0.00041
       8 ->  9         0.70982
       8 -> 13        -0.00890
       8 -> 18         0.02118
       8 -> 23        -0.00176
       8 -> 28         0.01067
       8 -> 31         0.00150
       8 -> 37         0.00054
       8 -> 48        -0.00031
       8 -> 52         0.00190
       3 <- 27         0.00031
       3 <- 38         0.00034
       3 <- 46         0.00339
       4 <- 27         0.00089
       4 <- 38         0.00021
       4 <- 46        -0.00088
       5 <-  9         0.00012
       5 <- 13        -0.00040
       5 <- 18        -0.00049
       5 <- 23         0.00020
       5 <- 28        -0.00035
       5 <- 31         0.00026
       5 <- 37         0.00055
       6 <- 38        -0.00051
       6 <- 46         0.00082
       7 <- 12         0.00135
       7 <- 16        -0.01046
       7 <- 19         0.00489
       7 <- 22         0.00625
       7 <- 25        -0.00061
       7 <- 29         0.00552
       7 <- 33        -0.00038
       7 <- 35         0.00036
       7 <- 40        -0.00024
       7 <- 42         0.00016
       7 <- 49        -0.00047
       7 <- 53         0.00146
       8 <-  9        -0.06559
       8 <- 13        -0.00011
       8 <- 18        -0.00733
       8 <- 23        -0.00016
       8 <- 28        -0.00264
       8 <- 31        -0.00075
       8 <- 37        -0.00028
       8 <- 48         0.00012
       8 <- 52         0.00047
 This state for optimization and/or second-order correction.
 Total Energy, E(TD-HF/TD-DFT) =  -114.320899846
 Copying the excited state density for this state as the 1-particle RhoCI density.

 Excited State   2:      Singlet-A1     3.9966 eV  310.22 nm  f=0.0452  <S**2>=0.000
       3 -> 10        -0.01732
       3 -> 11        -0.00551
       3 -> 14         0.00411
       3 -> 15         0.00144
       3 -> 17        -0.00328
       3 -> 20        -0.00386
       3 -> 24         0.00117
       3 -> 26         0.00222
       3 -> 30        -0.00118
       3 -> 32         0.00276
       3 -> 34        -0.00142
       3 -> 36        -0.00114
       3 -> 39         0.00057
       3 -> 43         0.00052
       3 -> 45         0.00066
       3 -> 47         0.00230
       3 -> 50         0.00138
       4 -> 10        -0.00413
       4 -> 11         0.01214
       4 -> 14         0.00285
       4 -> 15        -0.00876
       4 -> 17         0.00262
       4 -> 20         0.00318
       4 -> 21         0.00035
       4 -> 24        -0.00420
       4 -> 26         0.00403
       4 -> 30         0.00073
       4 -> 32        -0.00134
       4 -> 34         0.00106
       4 -> 36         0.00030
       4 -> 41         0.00010
       4 -> 43        -0.00051
       4 -> 45        -0.00081
       4 -> 47        -0.00093
       4 -> 50        -0.00031
       4 -> 54         0.00014
       5 -> 12         0.01228
       5 -> 16         0.00524
       5 -> 19         0.00132
       5 -> 22         0.00736
       5 -> 25        -0.00595
       5 -> 29         0.00024
       5 -> 33        -0.00267
       5 -> 35         0.00278
       5 -> 40        -0.00122
       5 -> 42         0.00085
       5 -> 49         0.00027
       5 -> 51        -0.00079
       6 -> 10         0.22506
       6 -> 11         0.05689
       6 -> 14        -0.06298
       6 -> 15        -0.03289
       6 -> 17        -0.01759
       6 -> 20        -0.00438
       6 -> 21         0.00821
       6 -> 24        -0.01007
       6 -> 26        -0.00446
       6 -> 30        -0.00606
       6 -> 32         0.00251
       6 -> 34        -0.00140
       6 -> 39         0.00114
       6 -> 41        -0.00021
       6 -> 43         0.00086
       6 -> 45         0.00083
       6 -> 47         0.00094
       6 -> 50         0.00069
       6 -> 54        -0.00088
       7 ->  9         0.67942
       7 -> 13        -0.00471
       7 -> 18        -0.01332
       7 -> 23        -0.00182
       7 -> 28         0.00037
       7 -> 31        -0.00323
       7 -> 37         0.00120
       7 -> 44        -0.00100
       7 -> 48         0.00020
       7 -> 52         0.00106
       8 -> 12        -0.00789
       8 -> 16         0.04769
       8 -> 19        -0.02087
       8 -> 22        -0.01740
       8 -> 25        -0.00011
       8 -> 29        -0.00953
       8 -> 33         0.00134
       8 -> 35        -0.00130
       8 -> 40         0.00059
       8 -> 42        -0.00034
       8 -> 49         0.00032
       8 -> 51         0.00018
       8 -> 53        -0.00057
       3 <- 10        -0.01285
       3 <- 11        -0.00446
       3 <- 14         0.00331
       3 <- 15         0.00071
       3 <- 17        -0.00180
       3 <- 20        -0.00312
       3 <- 21        -0.00045
       3 <- 24         0.00053
       3 <- 26         0.00109
       3 <- 30        -0.00067
       3 <- 32         0.00248
       3 <- 34        -0.00080
       3 <- 36        -0.00105
       3 <- 39         0.00054
       3 <- 43         0.00060
       3 <- 45         0.00083
       3 <- 47         0.00234
       3 <- 50         0.00137
       3 <- 54         0.00014
       4 <- 10        -0.00146
       4 <- 11         0.00833
       4 <- 14         0.00183
       4 <- 15        -0.00568
       4 <- 17         0.00148
       4 <- 20         0.00329
       4 <- 21         0.00020
       4 <- 24        -0.00307
       4 <- 26         0.00341
       4 <- 32        -0.00154
       4 <- 34         0.00090
       4 <- 36         0.00059
       4 <- 43        -0.00047
       4 <- 45        -0.00080
       4 <- 47        -0.00058
       4 <- 50        -0.00018
       4 <- 54         0.00011
       5 <- 12         0.00664
       5 <- 16         0.00314
       5 <- 19         0.00100
       5 <- 22         0.00501
       5 <- 25        -0.00442
       5 <- 29         0.00029
       5 <- 33        -0.00216
       5 <- 35         0.00234
       5 <- 40        -0.00109
       5 <- 42         0.00074
       5 <- 49         0.00025
       5 <- 51        -0.00073
       6 <- 10         0.07389
       6 <- 11         0.02133
       6 <- 14        -0.02803
       6 <- 15        -0.01612
       6 <- 17        -0.00981
       6 <- 20        -0.00383
       6 <- 21         0.00531
       6 <- 24        -0.00648
       6 <- 26        -0.00248
       6 <- 30        -0.00424
       6 <- 32         0.00273
       6 <- 34        -0.00161
       6 <- 36        -0.00038
       6 <- 39         0.00109
       6 <- 41        -0.00017
       6 <- 43         0.00071
       6 <- 45         0.00065
       6 <- 47         0.00055
       6 <- 50         0.00054
       6 <- 54        -0.00078
       7 <-  9        -0.12996
       7 <- 13         0.00491
       7 <- 18        -0.01243
       7 <- 23         0.00177
       7 <- 28        -0.00251
       7 <- 31        -0.00157
       7 <- 37         0.00054
       7 <- 44        -0.00072
       7 <- 48        -0.00034
       7 <- 52         0.00095
       8 <- 12        -0.00268
       8 <- 16         0.02110
       8 <- 19        -0.01085
       8 <- 22        -0.01071
       8 <- 29        -0.00736
       8 <- 33         0.00104
       8 <- 35        -0.00102
       8 <- 40         0.00048
       8 <- 42        -0.00027
       8 <- 49         0.00016
       8 <- 51         0.00015
       8 <- 53        -0.00053

 Excited State   3:      Singlet-B1     4.4516 eV  278.51 nm  f=0.0009  <S**2>=0.000
       3 ->  9        -0.02541
       3 -> 13         0.00114
       3 -> 18        -0.00397
       3 -> 23         0.00138
       3 -> 28        -0.00078
       3 -> 31        -0.00056
       3 -> 37         0.00010
       3 -> 44         0.00028
       3 -> 48         0.00086
       3 -> 52         0.00083
       4 ->  9         0.01083
       4 -> 13        -0.00234
       4 -> 18         0.00013
       4 -> 23        -0.00209
       4 -> 28         0.00038
       4 -> 31        -0.00133
       4 -> 37        -0.00033
       4 -> 44         0.00010
       4 -> 48        -0.00078
       4 -> 52        -0.00041
       5 -> 27         0.00014
       5 -> 38         0.00189
       5 -> 46         0.00059
       6 ->  9         0.69470
       6 -> 13        -0.01793
       6 -> 18         0.01504
       6 -> 23        -0.01046
       6 -> 28         0.00366
       6 -> 31         0.00268
       6 -> 37        -0.00181
       6 -> 44        -0.00223
       6 -> 48         0.00368
       6 -> 52         0.00118
       7 -> 10         0.13216
       7 -> 11         0.02544
       7 -> 14        -0.02247
       7 -> 15        -0.00656
       7 -> 17        -0.00912
       7 -> 20         0.00348
       7 -> 21         0.00112
       7 -> 24        -0.00171
       7 -> 26        -0.00228
       7 -> 30        -0.00407
       7 -> 32        -0.00019
       7 -> 34        -0.00086
       7 -> 36         0.00157
       7 -> 39         0.00018
       7 -> 41        -0.00028
       7 -> 43         0.00049
       7 -> 45         0.00032
       7 -> 47         0.00380
       7 -> 50         0.00121
       7 -> 54         0.00012
       8 -> 27         0.00019
       8 -> 46         0.00469
       3 <-  9        -0.00858
       3 <- 13        -0.00083
       3 <- 18        -0.00264
       3 <- 23        -0.00060
       3 <- 28        -0.00044
       3 <- 31        -0.00074
       3 <- 37         0.00015
       3 <- 44        -0.00012
       3 <- 48         0.00099
       3 <- 52         0.00071
       4 <-  9         0.00623
       4 <- 13        -0.00042
       4 <- 18         0.00160
       4 <- 23        -0.00075
       4 <- 28         0.00144
       4 <- 31        -0.00091
       4 <- 37        -0.00021
       4 <- 48        -0.00068
       4 <- 52        -0.00023
       5 <- 27        -0.00040
       5 <- 38         0.00160
       5 <- 46         0.00052
       6 <-  9        -0.03225
       6 <- 13         0.00190
       6 <- 18        -0.00401
       6 <- 28        -0.00375
       6 <- 31         0.00061
       6 <- 37        -0.00151
       6 <- 44        -0.00093
       6 <- 48         0.00329
       6 <- 52         0.00025
       7 <- 10        -0.03499
       7 <- 11        -0.01001
       7 <- 14         0.01423
       7 <- 15         0.00935
       7 <- 17         0.00244
       7 <- 20         0.00383
       7 <- 21        -0.00363
       7 <- 24         0.00428
       7 <- 26         0.00171
       7 <- 30         0.00169
       7 <- 32         0.00034
       7 <- 34        -0.00110
       7 <- 36         0.00192
       7 <- 39         0.00055
       7 <- 43         0.00029
       7 <- 45         0.00011
       7 <- 47         0.00352
       7 <- 50         0.00124
       7 <- 54         0.00095
       8 <- 27         0.00067
       8 <- 38         0.00015
       8 <- 46         0.00440

 Excited State   4:      Singlet-B2     4.6225 eV  268.22 nm  f=0.0049  <S**2>=0.000
       3 -> 12        -0.00139
       3 -> 16         0.00172
       3 -> 19        -0.00442
       3 -> 22         0.00090
       3 -> 25        -0.00079
       3 -> 29        -0.00304
       3 -> 35         0.00184
       3 -> 40        -0.00162
       3 -> 42         0.00048
       3 -> 49        -0.00350
       3 -> 51         0.00020
       3 -> 53         0.00030
       4 -> 12         0.00045
       4 -> 16        -0.00197
       4 -> 19         0.00043
       4 -> 22         0.00228
       4 -> 25         0.00103
       4 -> 29         0.00120
       4 -> 33        -0.00041
       4 -> 35         0.00049
       4 -> 40         0.00040
       4 -> 42        -0.00010
       4 -> 49         0.00066
       4 -> 51        -0.00012
       5 -> 10         0.01095
       5 -> 11         0.00254
       5 -> 14        -0.00605
       5 -> 15         0.00402
       5 -> 17        -0.00032
       5 -> 20         0.00212
       5 -> 21         0.00428
       5 -> 24         0.00166
       5 -> 26        -0.00099
       5 -> 30        -0.00198
       5 -> 32        -0.00188
       5 -> 34         0.00060
       5 -> 36        -0.00011
       5 -> 39        -0.00087
       5 -> 41         0.00054
       5 -> 47        -0.00059
       5 -> 50         0.00037
       5 -> 54        -0.00023
       6 -> 12         0.00272
       6 -> 16        -0.00244
       6 -> 19         0.00384
       6 -> 22        -0.00050
       6 -> 25         0.00104
       6 -> 29        -0.00019
       6 -> 35        -0.00164
       6 -> 40         0.00127
       6 -> 42        -0.00065
       6 -> 49         0.00150
       6 -> 53        -0.00044
       7 -> 27        -0.00064
       7 -> 38         0.00052
       7 -> 46         0.00352
       8 -> 10         0.69346
       8 -> 11         0.10660
       8 -> 14        -0.08453
       8 -> 15        -0.03296
       8 -> 17        -0.01628
       8 -> 20         0.00235
       8 -> 21         0.00724
       8 -> 24        -0.00665
       8 -> 26        -0.00518
       8 -> 30        -0.01181
       8 -> 32        -0.00358
       8 -> 34         0.00165
       8 -> 36         0.00076
       8 -> 39        -0.00073
       8 -> 43        -0.00011
       8 -> 45         0.00107
       8 -> 47        -0.00435
       8 -> 50         0.00190
       8 -> 54        -0.00223
       3 <- 12        -0.00050
       3 <- 16         0.00054
       3 <- 19        -0.00212
       3 <- 22         0.00096
       3 <- 25        -0.00070
       3 <- 29        -0.00121
       3 <- 35         0.00132
       3 <- 40        -0.00141
       3 <- 42         0.00038
       3 <- 49        -0.00358
       3 <- 51         0.00018
       3 <- 53         0.00083
       4 <- 16        -0.00198
       4 <- 19         0.00012
       4 <- 22         0.00241
       4 <- 25         0.00063
       4 <- 29         0.00128
       4 <- 33        -0.00045
       4 <- 35         0.00071
       4 <- 40         0.00016
       4 <- 49         0.00048
       5 <- 10        -0.00076
       5 <- 11        -0.00103
       5 <- 14        -0.00068
       5 <- 15         0.00313
       5 <- 17         0.00020
       5 <- 20         0.00075
       5 <- 21         0.00191
       5 <- 24         0.00200
       5 <- 26        -0.00026
       5 <- 30        -0.00043
       5 <- 32        -0.00030
       5 <- 39        -0.00034
       5 <- 41         0.00057
       5 <- 45         0.00031
       5 <- 47        -0.00056
       5 <- 50         0.00020
       6 <- 12        -0.00039
       6 <- 16         0.00695
       6 <- 19        -0.00340
       6 <- 22        -0.00490
       6 <- 25         0.00095
       6 <- 29        -0.00569
       6 <- 33         0.00036
       6 <- 35        -0.00156
       6 <- 40         0.00130
       6 <- 42        -0.00071
       6 <- 49         0.00187
       6 <- 53        -0.00131
       7 <- 27        -0.00062
       7 <- 38         0.00042
       7 <- 46         0.00298
       8 <- 10        -0.03101
       8 <- 11        -0.00901
       8 <- 14         0.00957
       8 <- 15         0.00266
       8 <- 17         0.00117
       8 <- 20        -0.00290
       8 <- 21        -0.00181
       8 <- 24         0.00161
       8 <- 26         0.00160
       8 <- 30         0.00015
       8 <- 32         0.00304
       8 <- 34        -0.00106
       8 <- 36        -0.00059
       8 <- 39         0.00139
       8 <- 41         0.00035
       8 <- 43         0.00049
       8 <- 45         0.00185
       8 <- 47        -0.00347
       8 <- 50         0.00133
       8 <- 54        -0.00060

 Excited State   5:      Singlet-B1     5.5215 eV  224.55 nm  f=0.0077  <S**2>=0.000
       3 ->  9        -0.01053
       3 -> 13         0.00054
       3 -> 18        -0.00278
       3 -> 23         0.00074
       3 -> 28        -0.00305
       3 -> 31        -0.00159
       3 -> 37         0.00011
       3 -> 44         0.00039
       3 -> 48        -0.00266
       4 ->  9        -0.03221
       4 -> 13         0.00617
       4 -> 18         0.00120
       4 -> 23         0.00462
       4 -> 28         0.00157
       4 -> 37         0.00033
       4 -> 44        -0.00046
       4 -> 48         0.00070
       4 -> 52         0.00013
       5 -> 27        -0.00692
       5 -> 38        -0.00323
       5 -> 46         0.00037
       6 ->  9        -0.13384
       6 -> 13        -0.00115
       6 -> 18         0.00174
       6 -> 28         0.00325
       6 -> 31        -0.00370
       6 -> 37         0.00210
       6 -> 44         0.00036
       6 -> 48         0.00043
       6 -> 52        -0.00064
       7 -> 10         0.68292
       7 -> 11         0.09103
       7 -> 14        -0.07578
       7 -> 15        -0.03880
       7 -> 17        -0.00981
       7 -> 20        -0.00362
       7 -> 21         0.00380
       7 -> 24        -0.00994
       7 -> 26        -0.00684
       7 -> 30        -0.00706
       7 -> 32        -0.00203
       7 -> 34         0.00391
       7 -> 36        -0.00159
       7 -> 39        -0.00064
       7 -> 43         0.00062
       7 -> 45         0.00096
       7 -> 47         0.00157
       7 -> 50         0.00078
       7 -> 54        -0.00154
       8 -> 27         0.00087
       8 -> 38         0.00025
       8 -> 46         0.00188
       3 <-  9        -0.00228
       3 <- 13         0.00065
       3 <- 18        -0.00111
       3 <- 23         0.00059
       3 <- 28        -0.00197
       3 <- 31        -0.00028
       3 <- 37        -0.00021
       3 <- 44         0.00014
       3 <- 48        -0.00282
       3 <- 52         0.00037
       4 <-  9        -0.01211
       4 <- 13         0.00261
       4 <- 18         0.00043
       4 <- 23         0.00251
       4 <- 28         0.00149
       4 <- 31        -0.00011
       4 <- 37         0.00039
       4 <- 44        -0.00067
       4 <- 48         0.00029
       4 <- 52         0.00012
       5 <- 27        -0.00478
       5 <- 38        -0.00254
       5 <- 46         0.00036
       6 <-  9        -0.02751
       6 <- 18        -0.00375
       6 <- 23         0.00046
       6 <- 28        -0.00055
       6 <- 31        -0.00440

 The electronic state is 1-A1.
 Alpha  occ. eigenvalues --  -19.17588 -10.33520  -0.90379  -0.70826  -0.49060
 Alpha  occ. eigenvalues --   -0.39940  -0.31516  -0.28821
 Alpha virt. eigenvalues --   -0.16261  -0.04686   0.00240   0.04061   0.06102
 Alpha virt. eigenvalues --    0.06986   0.12074   0.13719   0.18830   0.21160
 Alpha virt. eigenvalues --    0.23982   0.30335   0.38658   0.40095   0.50777

 Mulliken charges:
               1
     1  C   -0.084735
     2  H    0.188566
     3  H    0.188566
     4  O   -0.292397
 Sum of Mulliken charges =  -0.00000

 Dipole moment (field-independent basis, Debye):
    X=             -0.0000    Y=              0.0000    Z=             -4.0262  Tot=              4.0262
 Quadrupole moment (field-independent basis, Debye-Ang):
   XX=            -12.9420   YY=            -11.9824   ZZ=            -10.8998
   XY=              0.0000   XZ=              0.0000   YZ=              0.0000

 Normal termination of Gaussian 16 at Fri Sep 17 10:53:03 2021.
