 Gaussian 16, Revision C.01,
 Gaussian 16:  ES64L-G16RevC.01  3-Jul-2019

 ----------------------------------------
 #P wB97XD/6-311+G* NoSymm #P Field=Y+214
 ----------------------------------------

 -------
 TitleMe
 -------
 Symbolic Z-matrix:
 Charge =  1 Multiplicity = 1

                          Input orientation:
 ---------------------------------------------------------------------
 Center     Atomic      Atomic             Coordinates (Angstroms)
 Number     Number       Type             X           Y           Z
 ---------------------------------------------------------------------
      1          6           0        0.029500    1.339700    0.068200
      2          6           0        1.434800    1.286700    0.006400
      3          6           0        2.111800    0.051100   -0.005400
      4          6           0        1.445100   -1.137200    0.031200
      5          6           0       -0.687900    0.168200    0.110000
      6          1           0       -0.471300    2.298400    0.078100
      7          1           0        2.027300    2.196500   -0.032200
      8          1           0        1.989700   -2.076400    0.023200
      9          1           0       -1.771600    0.180400    0.158200
     10          7           0        3.586400    0.051000   -0.067500
     11          8           0        4.147100   -1.059700   -0.088100
     12          8           0        4.145000    1.163900   -0.090100
     13          6           0       -0.023600   -1.145800    0.083500
     14          1           0       -0.436700   -1.872500    0.788900
     15         35           0       -0.535900   -1.869700   -1.740800
 ---------------------------------------------------------------------

 SCF Done:  E(RwB97XD) =  -3010.56633129     A.U. after   23 cycles

 Alpha  occ. eigenvalues -- -483.28135 -62.83109 -56.62844 -56.62218 -56.62211
 Alpha  occ. eigenvalues --  -19.45495 -19.45238 -14.84755 -10.57572 -10.56318
 Alpha  occ. eigenvalues --  -10.56191 -10.55403 -10.55364 -10.53716  -8.98877
 Alpha  occ. eigenvalues --   -6.81663  -6.79622  -6.79595  -2.91540  -2.91003
 Alpha  occ. eigenvalues --   -2.90981  -2.89350  -2.89350  -1.49095  -1.32089
 Alpha  occ. eigenvalues --   -1.21659  -1.12612  -1.11123  -1.01879  -1.00380
 Alpha  occ. eigenvalues --   -0.94379  -0.90164  -0.84991  -0.80352  -0.79788
 Alpha  occ. eigenvalues --   -0.79353  -0.77631  -0.75408  -0.74832  -0.71185
 Alpha  occ. eigenvalues --   -0.68342  -0.66725  -0.62462  -0.58768  -0.56750
 Alpha  occ. eigenvalues --   -0.55671  -0.54903  -0.52444  -0.52095
 Alpha virt. eigenvalues --   -0.28369  -0.20387  -0.17669  -0.14874  -0.13441
 Alpha virt. eigenvalues --   -0.11405  -0.08467  -0.08189  -0.06579  -0.04203
 Alpha virt. eigenvalues --   -0.03558  -0.02280  -0.01167  -0.00358  -0.00263

 Mulliken charges:
               1
     1  C   -0.611224
     2  C    0.651704
     3  C   -0.847005
     4  C    0.393190
     5  C   -0.090966
     6  H    0.237845
     7  H    0.282100
     8  H    0.439975
     9  H    0.345562
    10  N   -0.100814
    11  O    0.141033
    12  O   -0.090999
    13  C   -0.533920
    14  H    0.457195
    15  Br   0.326326
 Sum of Mulliken charges =   1.00000

 Dipole moment (field-independent basis, Debye):
    X=             -1.5045    Y=             -6.8033    Z=             -0.8704  Tot=              7.0218
 Quadrupole moment (field-independent basis, Debye-Ang):
   XX=            -72.3155   YY=            -49.8212   ZZ=            -60.9191
   XY=             -5.5543   XZ=              1.8165   YZ=              4.5293

 Normal termination of Gaussian 16 at Wed May  1 15:13:21 2024.
