 Gaussian 16, Revision C.01,
 Gaussian 16:  ES64L-G16RevC.01  3-Jul-2019

 ----------------------------------------
 #P wB97XD/6-311+G* NoSymm #P Field=Y-282
 ----------------------------------------

 -------
 TitleMe
 -------
 Symbolic Z-matrix:
 Charge =  1 Multiplicity = 1

                          Input orientation:
 ---------------------------------------------------------------------
 Center     Atomic      Atomic             Coordinates (Angstroms)
 Number     Number       Type             X           Y           Z
 ---------------------------------------------------------------------
      1          6           0        0.029500    1.339700    0.068200
      2          6           0        1.434800    1.286700    0.006400
      3          6           0        2.111800    0.051100   -0.005400
      4          6           0        1.445100   -1.137200    0.031200
      5          6           0       -0.687900    0.168200    0.110000
      6          1           0       -0.471300    2.298400    0.078100
      7          1           0        2.027300    2.196500   -0.032200
      8          1           0        1.989700   -2.076400    0.023200
      9          1           0       -1.771600    0.180400    0.158200
     10          7           0        3.586400    0.051000   -0.067500
     11          8           0        4.147100   -1.059700   -0.088100
     12          8           0        4.145000    1.163900   -0.090100
     13          6           0       -0.023600   -1.145800    0.083500
     14          1           0       -0.436700   -1.872500    0.788900
     15         35           0       -0.535900   -1.869700   -1.740800
 ---------------------------------------------------------------------

 SCF Done:  E(RwB97XD) =  -3010.57391508     A.U. after   22 cycles

 Alpha  occ. eigenvalues -- -483.36148 -62.91213 -56.70836 -56.70367 -56.70357
 Alpha  occ. eigenvalues --  -19.47219 -19.46591 -14.86171 -10.62325 -10.58892
 Alpha  occ. eigenvalues --  -10.58808 -10.57323 -10.56844 -10.51863  -9.07049
 Alpha  occ. eigenvalues --   -6.89530  -6.87971  -6.87943  -2.99481  -2.99065
 Alpha  occ. eigenvalues --   -2.99043  -2.97794  -2.97794  -1.50544  -1.33511
 Alpha  occ. eigenvalues --   -1.24368  -1.16541  -1.12297  -1.08039  -1.01918
 Alpha  occ. eigenvalues --   -0.96951  -0.91995  -0.86351  -0.82125  -0.81514
 Alpha  occ. eigenvalues --   -0.80970  -0.80115  -0.76873  -0.76337  -0.74636
 Alpha  occ. eigenvalues --   -0.69558  -0.67251  -0.64984  -0.63469  -0.62046
 Alpha  occ. eigenvalues --   -0.58239  -0.57886  -0.56990  -0.56184
 Alpha virt. eigenvalues --   -0.31498  -0.23137  -0.22176  -0.20112  -0.17682
 Alpha virt. eigenvalues --   -0.16464  -0.13894  -0.11902  -0.10984  -0.10155
 Alpha virt. eigenvalues --   -0.08018  -0.06437  -0.05890  -0.04206  -0.03256

 Mulliken charges:
               1
     1  C   -0.506669
     2  C    0.404210
     3  C   -0.603196
     4  C    0.301681
     5  C    0.065542
     6  H    0.440256
     7  H    0.459872
     8  H    0.272491
     9  H    0.360292
    10  N   -0.110293
    11  O   -0.106767
    12  O    0.192773
    13  C   -0.490598
    14  H    0.331006
    15  Br  -0.010601
 Sum of Mulliken charges =   1.00000

 Dipole moment (field-independent basis, Debye):
    X=              0.2331    Y=              7.5810    Z=              1.0019  Tot=              7.6505
 Quadrupole moment (field-independent basis, Debye-Ang):
   XX=            -69.4749   YY=            -56.9161   ZZ=            -65.1659
   XY=             10.3824   XZ=              0.2172   YZ=             -2.1222

 Normal termination of Gaussian 16 at Wed May  1 14:50:40 2024.
