 Gaussian 16, Revision C.01,
 Gaussian 16:  ES64L-G16RevC.01  3-Jul-2019

 ----------------------------------------
 #P wB97XD/6-311+G* NoSymm #P Field=X+184
 ----------------------------------------

 -------
 TitleMe
 -------
 Symbolic Z-matrix:
 Charge =  1 Multiplicity = 1

                          Input orientation:
 ---------------------------------------------------------------------
 Center     Atomic      Atomic             Coordinates (Angstroms)
 Number     Number       Type             X           Y           Z
 ---------------------------------------------------------------------
      1          6           0        0.519300    1.233000   -0.031900
      2          6           0        1.944500    1.269200   -0.036700
      3          6           0        2.620400    0.092800   -0.025000
      4          6           0       -0.196000    0.030100    0.001000
      5          1           0       -0.020700    2.174200   -0.043400
      6          1           0        2.482800    2.208900   -0.036100
      7          1           0       -1.277700    0.039900    0.011700
      8          7           0        4.092100    0.095900    0.036600
      9          8           0        4.639300   -1.021700    0.144600
     10          8           0        4.664900    1.198400   -0.023300
     11          6           0        0.494300   -1.167100    0.021000
     12          1           0       -0.032500   -2.114900    0.054500
     13          6           0        1.962900   -1.216500   -0.021100
     14          1           0        2.443600   -1.963100    0.615100
     15         35           0        2.173000   -1.949100   -1.906200
 ---------------------------------------------------------------------

 SCF Done:  E(RwB97XD) =  -3010.53073805     A.U. after   19 cycles

 Alpha  occ. eigenvalues -- -483.37572 -62.92605 -56.72286 -56.71734 -56.71725
 Alpha  occ. eigenvalues --  -19.57751 -19.57642 -14.96828 -10.65877 -10.64609
 Alpha  occ. eigenvalues --  -10.62433 -10.61702 -10.60690 -10.56900  -9.08420
 Alpha  occ. eigenvalues --   -6.91066  -6.89248  -6.89223  -3.00978  -3.00498
 Alpha  occ. eigenvalues --   -3.00476  -2.99022  -2.99021  -1.61317  -1.44393
 Alpha  occ. eigenvalues --   -1.28873  -1.19497  -1.18676  -1.11305  -1.07501
 Alpha  occ. eigenvalues --   -1.01152  -0.97456  -0.94148  -0.91296  -0.89698
 Alpha  occ. eigenvalues --   -0.87083  -0.84638  -0.83047  -0.81941  -0.77971
 Alpha  occ. eigenvalues --   -0.73131  -0.72886  -0.69399  -0.69012  -0.68356
 Alpha  occ. eigenvalues --   -0.67653  -0.65782  -0.62902  -0.61181
 Alpha virt. eigenvalues --   -0.36506  -0.29522  -0.22162  -0.19732  -0.17217
 Alpha virt. eigenvalues --   -0.14237  -0.13358  -0.12784  -0.11396  -0.09212
 Alpha virt. eigenvalues --   -0.08619  -0.08264  -0.07986  -0.06846  -0.05943

 Mulliken charges:
               1
     1  C   -0.135458
     2  C    0.175388
     3  C   -0.165696
     4  C   -0.307657
     5  H    0.391004
     6  H    0.328445
     7  H    0.412545
     8  N   -0.236509
     9  O    0.016265
    10  O   -0.019354
    11  C   -0.149055
    12  H    0.401585
    13  C   -0.250005
    14  H    0.389152
    15  Br   0.149351
 Sum of Mulliken charges =   1.00000

 Dipole moment (field-independent basis, Debye):
    X=             -2.4844    Y=             -0.6474    Z=             -0.5047  Tot=              2.6165
 Quadrupole moment (field-independent basis, Debye-Ang):
   XX=            -89.0707   YY=            -51.5400   ZZ=            -62.7658
   XY=             -1.6316   XZ=             -1.1256   YZ=              1.8717

 Normal termination of Gaussian 16 at Thu May  2 14:18:25 2024.
