 Gaussian 16, Revision A.03,
 Gaussian 16:  ES64L-G16RevA.03 25-Dec-2016

 --------------------------------------------------------------------
 #p B3LYP/6-311+G** #p TD=(singlets,nstates=30)IOp(6/8=3) IOp(9/40=4)
 --------------------------------------------------------------------

 -----------------------------
 Scan Step 60, Bond Length 0.8
 -----------------------------
 Symbolic Z-matrix:
 Charge =  0 Multiplicity = 1

                         Standard orientation:
 ---------------------------------------------------------------------
 Center     Atomic      Atomic             Coordinates (Angstroms)
 Number     Number       Type             X           Y           Z
 ---------------------------------------------------------------------
      1          6           0        0.000000    0.000000   -0.326081
      2          1           0        0.000000    0.937260   -0.917431
      3          1           0       -0.000000   -0.937260   -0.917431
      4          8           0        0.000000   -0.000000    0.473919
 ---------------------------------------------------------------------

 SCF Done:  E(RB3LYP) =  -113.839066882     A.U. after    9 cycles

 Excitation energies and oscillator strengths:

 Excited State   1:      Singlet-B2     5.4622 eV  226.99 nm  f=0.1017  <S**2>=0.000
       3 -> 11        -0.00080
       3 -> 16        -0.00040
       3 -> 18        -0.00087
       3 -> 23        -0.00015
       3 -> 24        -0.00105
       3 -> 29         0.00022
       3 -> 42        -0.00018
       3 -> 50         0.00014
       3 -> 53        -0.00011
       4 ->  9         0.00258
       4 -> 12        -0.00506
       4 -> 14        -0.00450
       4 -> 15        -0.00164
       4 -> 19        -0.00355
       4 -> 20        -0.00163
       4 -> 21        -0.00226
       4 -> 25        -0.00145
       4 -> 26         0.00090
       4 -> 30         0.00160
       4 -> 31        -0.00094
       4 -> 34        -0.00046
       4 -> 38         0.00080
       4 -> 41        -0.00051
       4 -> 44         0.00039
       4 -> 46         0.00066
       4 -> 48        -0.00034
       5 -> 28        -0.00134
       5 -> 35        -0.00049
       5 -> 45        -0.00087
       6 -> 11         0.00702
       6 -> 16        -0.00160
       6 -> 18        -0.00059
       6 -> 23         0.00191
       6 -> 24        -0.00422
       6 -> 29         0.00083
       6 -> 32         0.00106
       6 -> 36        -0.00078
       6 -> 42        -0.00040
       7 -> 11        -0.00344
       7 -> 16        -0.00396
       7 -> 18        -0.00310
       7 -> 23         0.00144
       7 -> 24        -0.00245
       7 -> 29        -0.00033
       7 -> 32        -0.00017
       7 -> 36         0.00038
       7 -> 42         0.00038
       7 -> 47        -0.00045
       7 -> 50        -0.00047
       7 -> 53         0.00011
       8 ->  9         0.70606
       8 -> 12        -0.00313
       8 -> 14         0.03113
       8 -> 15        -0.01034
       8 -> 19        -0.02117
       8 -> 20         0.00669
       8 -> 21         0.00893
       8 -> 25        -0.00047
       8 -> 26         0.00024
       8 -> 30        -0.00050
       8 -> 31        -0.00322
       8 -> 34        -0.00133
       8 -> 38        -0.00102
       8 -> 39         0.00041
       8 -> 41         0.00060
       8 -> 46         0.00099
       8 -> 48        -0.00035
       8 -> 54         0.00012
       3 <- 11        -0.00029
       3 <- 18        -0.00056
       3 <- 24        -0.00078
       3 <- 29         0.00020
       3 <- 40        -0.00011
       3 <- 42        -0.00016
       3 <- 53        -0.00013
       4 <-  9         0.00176
       4 <- 12         0.00020
       4 <- 14        -0.00364
       4 <- 15        -0.00187
       4 <- 19        -0.00087
       4 <- 20        -0.00074
       4 <- 21        -0.00154
       4 <- 25        -0.00156
       4 <- 26         0.00125
       4 <- 30         0.00058
       4 <- 31        -0.00025
       4 <- 34        -0.00026
       4 <- 38         0.00050
       4 <- 39        -0.00017
       4 <- 41        -0.00046
       4 <- 44         0.00029
       4 <- 46         0.00059
       4 <- 48        -0.00029
       5 <- 28        -0.00107
       5 <- 35        -0.00039
       5 <- 45        -0.00073
       6 <- 11         0.00054
       6 <- 16        -0.00173
       6 <- 18        -0.00180
       6 <- 23         0.00100
       6 <- 24        -0.00328
       6 <- 29         0.00066
       6 <- 32         0.00084
       6 <- 36        -0.00063
       6 <- 40         0.00013
       6 <- 42        -0.00021
       7 <- 11        -0.00081
       7 <- 16        -0.00234
       7 <- 18        -0.00081
       7 <- 23         0.00057
       7 <- 24        -0.00115
       7 <- 29        -0.00095
       7 <- 36         0.00010
       7 <- 42         0.00030
       7 <- 47        -0.00044
       7 <- 50        -0.00054
       8 <-  9        -0.00566
       8 <- 12        -0.00321
       8 <- 14         0.01558
       8 <- 15         0.00362
       8 <- 19         0.00133
       8 <- 21         0.00460
       8 <- 25         0.00316
       8 <- 26         0.00058
       8 <- 30        -0.00057
       8 <- 31        -0.00186
       8 <- 34        -0.00150
       8 <- 38        -0.00098
       8 <- 39         0.00034
       8 <- 41         0.00044
       8 <- 46         0.00077
       8 <- 48        -0.00030
 This state for optimization and/or second-order correction.
 Total Energy, E(TD-HF/TD-DFT) =  -113.638335951
 Copying the excited state density for this state as the 1-particle RhoCI density.

 Excited State   2:      Singlet-A2     5.5390 eV  223.84 nm  f=0.0000  <S**2>=0.000
       3 -> 28         0.00236
       3 -> 35         0.00171
       3 -> 45         0.00078
       4 -> 10         0.00297
       4 -> 13         0.00541
       4 -> 17         0.00532
       4 -> 22        -0.00304
       4 -> 27         0.00263
       4 -> 33         0.00084
       4 -> 37         0.00256
       4 -> 43         0.00034
       4 -> 49         0.00010
       4 -> 52         0.00050
       5 -> 11        -0.00045
       5 -> 16        -0.00028
       5 -> 18        -0.00039
       5 -> 23         0.00142
       5 -> 32         0.00019
       5 -> 36         0.00044
       5 -> 42         0.00046
       5 -> 47         0.00054
       5 -> 50        -0.00019
       5 -> 53         0.00018
       6 -> 28         0.00367
       6 -> 35        -0.00060
       6 -> 45        -0.00041
       7 -> 28         0.00073
       7 -> 45         0.00078
       8 -> 10         0.70147
       8 -> 13         0.08381
       8 -> 17         0.03052
       8 -> 22        -0.00180
       8 -> 27         0.00362
       8 -> 33         0.00323
       8 -> 37        -0.00235
       8 -> 52         0.00063
       3 <- 28         0.00183
       3 <- 35         0.00147
       3 <- 45         0.00078
       4 <- 10         0.00019
       4 <- 13         0.00107
       4 <- 17         0.00046
       4 <- 27         0.00014
       4 <- 33        -0.00095
       4 <- 37         0.00125
       4 <- 43         0.00037
       4 <- 52         0.00012
       5 <- 11        -0.00082
       5 <- 16         0.00094
       5 <- 18        -0.00245
       5 <- 23         0.00290
       5 <- 24        -0.00167
       5 <- 29         0.00148
       5 <- 32        -0.00054
       5 <- 36         0.00133
       5 <- 42         0.00064
       5 <- 47         0.00045
       5 <- 53         0.00048
       6 <- 28         0.00385
       6 <- 35        -0.00060
       6 <- 45        -0.00042
       7 <- 28         0.00067
       7 <- 35        -0.00011
       7 <- 45         0.00067
       8 <- 10        -0.00310
       8 <- 13        -0.00804
       8 <- 17        -0.00479
       8 <- 22         0.00030
       8 <- 27        -0.00038
       8 <- 33         0.00300
       8 <- 37        -0.00201
       8 <- 43         0.00010
       8 <- 52         0.00020

 Excited State   3:      Singlet-B2     6.2851 eV  197.27 nm  f=0.0262  <S**2>=0.000
       3 -> 11         0.00010
       3 -> 16        -0.00057
       3 -> 18         0.00017
       3 -> 23        -0.00022
       3 -> 24        -0.00044
       3 -> 29        -0.00072
       3 -> 32        -0.00014
       3 -> 36         0.00026
       3 -> 42         0.00027
       3 -> 47        -0.00018
       3 -> 50        -0.00017
       3 -> 53         0.00013
       4 ->  9        -0.00360
       4 -> 12        -0.00026
       4 -> 14        -0.00209
       4 -> 15        -0.00370
       4 -> 19         0.00249
       4 -> 21        -0.00143
       4 -> 25        -0.00083
       4 -> 26        -0.00102
       4 -> 30         0.00097
       4 -> 31         0.00214
       4 -> 34         0.00025
       4 -> 39         0.00090
       4 -> 41         0.00049
       4 -> 46        -0.00062
       4 -> 48         0.00031
       4 -> 51         0.00016
       5 -> 28         0.00095
       5 -> 35         0.00133
       5 -> 45         0.00090
       6 -> 11        -0.00189
       6 -> 16        -0.00501
       6 -> 18        -0.00035
       6 -> 23         0.00098
       6 -> 24        -0.00372
       6 -> 29         0.00149
       6 -> 32        -0.00054
       6 -> 40         0.00030
       7 -> 11         0.00279
       7 -> 16         0.00103
       7 -> 18         0.00230
       7 -> 23        -0.00117
       7 -> 24         0.00104
       7 -> 29         0.00012
       7 -> 32         0.00023
       7 -> 36        -0.00104
       7 -> 40         0.00028
       7 -> 42        -0.00052
       7 -> 47         0.00066
       7 -> 50         0.00051
       7 -> 53        -0.00018
       8 ->  9         0.00303
       8 -> 12         0.70598
       8 -> 14         0.02192
       8 -> 15         0.02557
       8 -> 19         0.01383
       8 -> 20         0.01566
       8 -> 21         0.00403
       8 -> 25        -0.00057
       8 -> 26         0.00103
       8 -> 30        -0.00191
       8 -> 31        -0.00075
       8 -> 34        -0.00033
       8 -> 39         0.00112
       8 -> 41         0.00102
       8 -> 46        -0.00067
       8 -> 48         0.00039
       8 -> 54        -0.00015
       3 <- 11        -0.00017
       3 <- 16        -0.00057
       3 <- 24        -0.00049
       3 <- 29        -0.00048
       3 <- 32        -0.00015
       3 <- 36         0.00028
       3 <- 42         0.00024
       3 <- 47        -0.00014
       3 <- 53         0.00021
       4 <-  9         0.00134
       4 <- 14        -0.00163
       4 <- 15        -0.00066
       4 <- 19        -0.00064
       4 <- 20         0.00039
       4 <- 21        -0.00099
       4 <- 25        -0.00093
       4 <- 26        -0.00091
       4 <- 30         0.00098
       4 <- 31         0.00094
       4 <- 34         0.00078
       4 <- 39         0.00068
       4 <- 41         0.00049
       4 <- 46        -0.00062
       4 <- 48         0.00019
       4 <- 51         0.00015
       5 <- 28         0.00050
       5 <- 35         0.00112
       5 <- 45         0.00078
       6 <- 16        -0.00113
       6 <- 18        -0.00093
       6 <- 23         0.00113
       6 <- 24        -0.00209
       6 <- 29         0.00076
       6 <- 32        -0.00060
       6 <- 36        -0.00033
       6 <- 40         0.00030
       6 <- 50        -0.00012
       7 <- 11         0.00036
       7 <- 16         0.00059
       7 <- 18         0.00024
       7 <- 23        -0.00027
       7 <- 24         0.00030
       7 <- 29         0.00048
       7 <- 36        -0.00068
       7 <- 40         0.00022
       7 <- 42        -0.00036
       7 <- 47         0.00058
       7 <- 50         0.00051
       8 <-  9        -0.00296
       8 <- 12         0.00138
       8 <- 14         0.00832
       8 <- 15         0.00251
       8 <- 19        -0.00152
       8 <- 20        -0.00242
       8 <- 21         0.00304
       8 <- 25         0.00057
       8 <- 26        -0.00049
       8 <- 30        -0.00153
       8 <- 31        -0.00106
       8 <- 38         0.00023
       8 <- 39         0.00087
       8 <- 41         0.00088
       8 <- 46        -0.00055
       8 <- 48         0.00023

 Excited State   4:      Singlet-A1     6.4285 eV  192.87 nm  f=0.0291  <S**2>=0.000
       3 ->  9        -0.00123
       3 -> 12         0.00067
       3 -> 15         0.00062
       3 -> 19         0.00136
       3 -> 20        -0.00012
       3 -> 21        -0.00049
       3 -> 25         0.00037
       3 -> 26         0.00013
       3 -> 30        -0.00100
       3 -> 34        -0.00026
       3 -> 38        -0.00031
       3 -> 39        -0.00030
       3 -> 51        -0.00024
       3 -> 54         0.00018
       4 -> 11         0.00699
       4 -> 16         0.00797
       4 -> 18         0.00523
       4 -> 23         0.00154
       4 -> 24         0.00367
       4 -> 29         0.00072
       4 -> 32        -0.00014
       4 -> 36         0.00101
       4 -> 42        -0.00027
       4 -> 50        -0.00032
       5 -> 10         0.00573
       5 -> 13        -0.00264
       5 -> 17         0.00472
       5 -> 22         0.00360
       5 -> 27         0.00096
       5 -> 33         0.00093
       5 -> 37         0.00055
       5 -> 43         0.00035
       5 -> 49        -0.00034
       6 ->  9        -0.00651
       6 -> 12        -0.01093
       6 -> 14         0.00599
       6 -> 15         0.00342
       6 -> 19         0.00219
       6 -> 20        -0.00689
       6 -> 21         0.00107
       6 -> 25         0.00670
       6 -> 26        -0.00115
       6 -> 30         0.00094
       6 -> 31        -0.00105
       6 -> 34        -0.00130
       6 -> 38        -0.00061
       6 -> 39         0.00113
       6 -> 44        -0.00036
       6 -> 46        -0.00021
       6 -> 48        -0.00036
       7 ->  9        -0.01222
       7 -> 12         0.00643
       7 -> 14         0.00150
       7 -> 15        -0.00124
       7 -> 19         0.00873
       7 -> 20        -0.00109
       7 -> 21         0.00017
       7 -> 25         0.00131
       7 -> 26         0.00076
       7 -> 30        -0.00039
       7 -> 31         0.00090
       7 -> 34        -0.00093
       7 -> 38        -0.00012
       7 -> 39         0.00017
       7 -> 48        -0.00022
       7 -> 51         0.00033
       8 -> 11         0.70525
       8 -> 16         0.04566
       8 -> 18        -0.01127
       8 -> 23         0.00177
       8 -> 24         0.00261
       8 -> 29         0.00399
       8 -> 32         0.00166
       8 -> 36        -0.00280
       8 -> 40         0.00021
       8 -> 42         0.00162
       8 -> 47        -0.00059
       3 <-  9        -0.00058
       3 <- 12         0.00029
       3 <- 15         0.00034
       3 <- 19         0.00081
       3 <- 21        -0.00025
       3 <- 25         0.00035
       3 <- 26         0.00013
       3 <- 30        -0.00063
       3 <- 34        -0.00024
       3 <- 38        -0.00023
       3 <- 39        -0.00026
       3 <- 46         0.00012
       3 <- 48        -0.00012
       3 <- 51        -0.00021
       3 <- 54         0.00017
       4 <- 11         0.00255
       4 <- 16         0.00282
       4 <- 18         0.00279
       4 <- 23         0.00123
       4 <- 24         0.00196
       4 <- 29         0.00031
       4 <- 32        -0.00025
       4 <- 36         0.00085
       4 <- 42        -0.00024
       4 <- 50        -0.00027
       5 <- 10         0.00252
       5 <- 13        -0.00123
       5 <- 17         0.00246
       5 <- 22         0.00229
       5 <- 27         0.00064
       5 <- 33         0.00073
       5 <- 37         0.00046
       5 <- 43         0.00030
       5 <- 49        -0.00030
       6 <-  9        -0.00651
       6 <- 12        -0.00442
       6 <- 14         0.00460
       6 <- 15         0.00296
       6 <- 19         0.00140
       6 <- 20        -0.00387
       6 <- 21        -0.00010
       6 <- 25         0.00425
       6 <- 26        -0.00058
       6 <- 30         0.00027
       6 <- 31        -0.00114
       6 <- 34        -0.00098
       6 <- 38        -0.00070
       6 <- 39         0.00090
       6 <- 44        -0.00040
       6 <- 46        -0.00019
       6 <- 48        -0.00029
       7 <-  9        -0.00422
       7 <- 12         0.00196
       7 <- 14         0.00059
       7 <- 15        -0.00062
       7 <- 19         0.00401
       7 <- 20        -0.00079
       7 <- 25         0.00082
       7 <- 26         0.00039
       7 <- 30        -0.00036
       7 <- 31         0.00064
       7 <- 34        -0.00064
       7 <- 38        -0.00016
       7 <- 39         0.00024
       7 <- 46        -0.00014
       7 <- 48        -0.00013
       7 <- 51         0.00030
       8 <- 11        -0.00545
       8 <- 16         0.00470
       8 <- 18        -0.01287
       8 <- 23        -0.00218
       8 <- 24        -0.00090
       8 <- 29         0.00237
       8 <- 32         0.00138
       8 <- 36        -0.00211
       8 <- 42         0.00130
       8 <- 47        -0.00063

 Excited State   5:      Singlet-A2     7.6715 eV  161.62 nm  f=0.0000  <S**2>=0.000
       3 -> 28         0.00242
       3 -> 35         0.00185
       3 -> 45         0.00079
       4 -> 10         0.00487
       4 -> 13         0.01009
       4 -> 17        -0.00015
       4 -> 22        -0.00288
       4 -> 27         0.00067
       4 -> 33         0.00201
       4 -> 37         0.00306
       4 -> 43         0.00028
       4 -> 52         0.00049
       5 -> 16        -0.00154
       5 -> 18        -0.00033
       5 -> 23         0.00167
       5 -> 24        -0.00012
       5 -> 29        -0.00035
       5 -> 32         0.00012
       5 -> 36         0.00049
       5 -> 42         0.00055
       5 -> 47         0.00051
       5 -> 53         0.00020
       6 -> 28         0.00213
       6 -> 35        -0.00085
       6 -> 45        -0.00021
       7 -> 28         0.00043
       7 -> 45         0.00085
       8 -> 10        -0.08490
       8 -> 13         0.70112
       8 -> 17         0.02391
       8 -> 22        -0.02379
       8 -> 27         0.00291
       8 -> 33         0.00226
       8 -> 37        -0.00211
       8 -> 43        -0.00015
       8 -> 52         0.00053
       3 <- 28         0.00158
       3 <- 35         0.00152
       3 <- 45         0.00088
       4 <- 10         0.00034
       4 <- 13         0.00069
       4 <- 17        -0.00017
       4 <- 33        -0.00054
       4 <- 37         0.00109
       4 <- 43         0.00034
       4 <- 52         0.00015
       5 <- 11         0.00030
       5 <- 16        -0.00040
       5 <- 18        -0.00098
       5 <- 23         0.00283
       5 <- 24        -0.00127
       5 <- 29         0.00031
       5 <- 32        -0.00078
       5 <- 36         0.00152
       5 <- 42         0.00085
       5 <- 47         0.00025
       5 <- 53         0.00044
       6 <- 28         0.00265
       6 <- 35        -0.00029
       6 <- 45        -0.00032
       7 <- 28         0.00054
       7 <- 35        -0.00024
       7 <- 45         0.00048
       8 <- 10        -0.00728
       8 <- 13        -0.00371
       8 <- 17        -0.00214
       8 <- 22         0.00068
       8 <- 27        -0.00038
       8 <- 33         0.00217
       8 <- 37        -0.00156
       8 <- 43         0.00011
       8 <- 52         0.00021

 Excited State   6:      Singlet-B2     9.5536 eV  129.78 nm  f=0.1395  <S**2>=0.000
       3 -> 11        -0.00037
       3 -> 16         0.00088
       3 -> 18        -0.00078
       3 -> 23         0.00051
       3 -> 24         0.00032
       3 -> 29         0.00077
       3 -> 32        -0.00063
       3 -> 40         0.00040
       3 -> 42         0.00038
       3 -> 47         0.00025
       4 ->  9        -0.00540
       4 -> 12         0.00589
       4 -> 14         0.01342
       4 -> 15         0.00077
       4 -> 19         0.00265
       4 -> 20         0.00824
       4 -> 21         0.00957
       4 -> 25         0.00409
       4 -> 26         0.00014
       4 -> 30         0.00206

 The electronic state is 1-A1.
 Alpha  occ. eigenvalues --  -19.14643 -10.24451  -1.31508  -0.67063  -0.63049
 Alpha  occ. eigenvalues --   -0.58279  -0.54000  -0.22541
 Alpha virt. eigenvalues --    0.01299   0.02534   0.04437   0.04511   0.11256
 Alpha virt. eigenvalues --    0.14392   0.17647   0.19779   0.21751   0.24688
 Alpha virt. eigenvalues --    0.25169   0.36522   0.50489   0.54370   0.55600

 Mulliken charges:
               1
     1  C    0.304491
     2  H   -0.039900
     3  H   -0.039900
     4  O   -0.224691
 Sum of Mulliken charges =  -0.00000

 Dipole moment (field-independent basis, Debye):
    X=              0.0000    Y=             -0.0000    Z=              0.1721  Tot=              0.1721
 Quadrupole moment (field-independent basis, Debye-Ang):
   XX=            -10.5349   YY=            -12.7920   ZZ=            -13.4134
   XY=             -0.0000   XZ=             -0.0000   YZ=              0.0000

 Normal termination of Gaussian 16 at Fri Sep 17 10:52:27 2021.
