 Gaussian 16, Revision A.03,
 Gaussian 16:  ES64L-G16RevA.03 25-Dec-2016

 --------------------------------------------------------------------
 #p B3LYP/6-311+G** #p TD=(singlets,nstates=30)IOp(6/8=3) IOp(9/40=4)
 --------------------------------------------------------------------

 -------------------------------
 Scan Step 45, Bond Length 0.725
 -------------------------------
 Symbolic Z-matrix:
 Charge =  0 Multiplicity = 1

                         Standard orientation:
 ---------------------------------------------------------------------
 Center     Atomic      Atomic             Coordinates (Angstroms)
 Number     Number       Type             X           Y           Z
 ---------------------------------------------------------------------
      1          6           0        0.000000    0.000000   -0.288581
      2          1           0        0.000000    0.937260   -0.879931
      3          1           0       -0.000000   -0.937260   -0.879931
      4          8           0        0.000000   -0.000000    0.436419
 ---------------------------------------------------------------------

 SCF Done:  E(RB3LYP) =  -113.299994681     A.U. after   10 cycles

 Excitation energies and oscillator strengths:

 Excited State   1:      Singlet-B2     5.0800 eV  244.06 nm  f=0.1146  <S**2>=0.000
       3 -> 11         0.00075
       3 -> 16         0.00051
       3 -> 19         0.00079
       3 -> 23         0.00032
       3 -> 24        -0.00099
       3 -> 29        -0.00022
       3 -> 32        -0.00014
       3 -> 40         0.00016
       3 -> 43         0.00020
       3 -> 50        -0.00012
       3 -> 53         0.00014
       4 ->  9        -0.00289
       4 -> 12         0.00375
       4 -> 14         0.00387
       4 -> 15         0.00159
       4 -> 18         0.00316
       4 -> 20         0.00191
       4 -> 21         0.00188
       4 -> 25         0.00151
       4 -> 26        -0.00079
       4 -> 30         0.00025
       4 -> 31         0.00168
       4 -> 34         0.00039
       4 -> 38        -0.00073
       4 -> 41        -0.00051
       4 -> 44        -0.00034
       4 -> 46        -0.00076
       4 -> 49         0.00023
       5 -> 28         0.00163
       5 -> 35         0.00069
       5 -> 45         0.00084
       6 -> 11        -0.00635
       6 -> 16         0.00275
       6 -> 19         0.00058
       6 -> 23        -0.00138
       6 -> 24        -0.00464
       6 -> 29        -0.00084
       6 -> 32        -0.00094
       6 -> 36         0.00048
       6 -> 43         0.00025
       6 -> 47         0.00023
       7 -> 11         0.00623
       7 -> 16         0.00383
       7 -> 19         0.00282
       7 -> 23        -0.00043
       7 -> 24        -0.00134
       7 -> 29         0.00079
       7 -> 32         0.00060
       7 -> 36        -0.00064
       7 -> 43        -0.00043
       7 -> 47         0.00045
       7 -> 50         0.00045
       7 -> 53        -0.00011
       8 ->  9         0.70564
       8 -> 12        -0.00019
       8 -> 14         0.04132
       8 -> 15        -0.00816
       8 -> 18        -0.02169
       8 -> 20         0.00580
       8 -> 21         0.00973
       8 -> 25        -0.00027
       8 -> 30         0.00225
       8 -> 31        -0.00273
       8 -> 34        -0.00116
       8 -> 38        -0.00111
       8 -> 39         0.00024
       8 -> 41        -0.00071
       8 -> 44         0.00025
       8 -> 46         0.00086
       8 -> 49        -0.00031
       8 -> 51         0.00011
       3 <- 11         0.00030
       3 <- 16         0.00018
       3 <- 19         0.00052
       3 <- 23         0.00023
       3 <- 24        -0.00075
       3 <- 29        -0.00019
       3 <- 32        -0.00015
       3 <- 40         0.00017
       3 <- 43         0.00018
       3 <- 53         0.00014
       4 <-  9        -0.00146
       4 <- 12        -0.00024
       4 <- 14         0.00317
       4 <- 15         0.00187
       4 <- 18         0.00071
       4 <- 20         0.00102
       4 <- 21         0.00139
       4 <- 25         0.00138
       4 <- 26        -0.00129
       4 <- 31         0.00068
       4 <- 34         0.00027
       4 <- 38        -0.00046
       4 <- 39         0.00016
       4 <- 41        -0.00043
       4 <- 44        -0.00026
       4 <- 46        -0.00068
       4 <- 49         0.00017
       5 <- 28         0.00133
       5 <- 35         0.00056
       5 <- 45         0.00071
       6 <- 11        -0.00080
       6 <- 16         0.00262
       6 <- 19         0.00126
       6 <- 23        -0.00051
       6 <- 24        -0.00347
       6 <- 29        -0.00048
       6 <- 32        -0.00078
       6 <- 36         0.00045
       6 <- 43         0.00015
       6 <- 47         0.00019
       7 <- 11         0.00125
       7 <- 16         0.00194
       7 <- 19         0.00030
       7 <- 23        -0.00016
       7 <- 24        -0.00037
       7 <- 29         0.00134
       7 <- 32         0.00044
       7 <- 36        -0.00034
       7 <- 43        -0.00030
       7 <- 47         0.00046
       7 <- 50         0.00052
       8 <-  9        -0.00710
       8 <- 12        -0.00450
       8 <- 14         0.01816
       8 <- 15         0.00517
       8 <- 18         0.00148
       8 <- 20         0.00026
       8 <- 21         0.00494
       8 <- 25         0.00315
       8 <- 26         0.00031
       8 <- 30         0.00150
       8 <- 31        -0.00167
       8 <- 34        -0.00145
       8 <- 38        -0.00106
       8 <- 39         0.00019
       8 <- 41        -0.00057
       8 <- 46         0.00071
       8 <- 49        -0.00024
 This state for optimization and/or second-order correction.
 Total Energy, E(TD-HF/TD-DFT) =  -113.113307441
 Copying the excited state density for this state as the 1-particle RhoCI density.

 Excited State   2:      Singlet-A2     5.3413 eV  232.12 nm  f=0.0000  <S**2>=0.000
       3 -> 28        -0.00199
       3 -> 35        -0.00132
       3 -> 45        -0.00052
       4 -> 10        -0.00128
       4 -> 13        -0.00236
       4 -> 17        -0.00435
       4 -> 22         0.00220
       4 -> 27        -0.00236
       4 -> 33        -0.00023
       4 -> 37        -0.00184
       4 -> 42        -0.00022
       4 -> 48        -0.00012
       4 -> 52        -0.00035
       5 -> 11         0.00034
       5 -> 19         0.00037
       5 -> 23        -0.00109
       5 -> 24        -0.00017
       5 -> 29        -0.00011
       5 -> 32        -0.00014
       5 -> 36        -0.00036
       5 -> 43        -0.00041
       5 -> 47        -0.00042
       5 -> 50         0.00019
       5 -> 53        -0.00012
       6 -> 28        -0.00359
       6 -> 35         0.00052
       6 -> 45         0.00015
       7 -> 28         0.00057
       7 -> 35        -0.00019
       7 -> 45        -0.00057
       8 -> 10         0.70510
       8 -> 13         0.04505
       8 -> 17         0.02906
       8 -> 22         0.00172
       8 -> 27         0.00235
       8 -> 33         0.00316
       8 -> 37        -0.00211
       8 -> 42         0.00013
       8 -> 48         0.00012
       8 -> 52         0.00045
       3 <- 28        -0.00160
       3 <- 35        -0.00114
       3 <- 45        -0.00051
       4 <- 10        -0.00017
       4 <- 13        -0.00087
       4 <- 17        -0.00066
       4 <- 27        -0.00029
       4 <- 33         0.00082
       4 <- 37        -0.00097
       4 <- 42        -0.00029
       5 <- 11         0.00070
       5 <- 16        -0.00067
       5 <- 19         0.00184
       5 <- 23        -0.00183
       5 <- 24        -0.00141
       5 <- 29        -0.00137
       5 <- 32         0.00032
       5 <- 36        -0.00093
       5 <- 43        -0.00049
       5 <- 47        -0.00039
       5 <- 53        -0.00032
       6 <- 28        -0.00358
       6 <- 35         0.00065
       6 <- 45         0.00016
       7 <- 28         0.00068
       7 <- 35        -0.00021
       7 <- 45        -0.00054
       8 <- 13        -0.00650
       8 <- 17        -0.00551
       8 <- 22         0.00021
       8 <- 27        -0.00044
       8 <- 33         0.00303
       8 <- 37        -0.00171
       8 <- 42         0.00014
       8 <- 52         0.00015

 Excited State   3:      Singlet-B2     5.9611 eV  207.99 nm  f=0.0309  <S**2>=0.000
       3 -> 11        -0.00012
       3 -> 16         0.00050
       3 -> 19        -0.00024
       3 -> 23         0.00027
       3 -> 24        -0.00040
       3 -> 29         0.00052
       3 -> 32         0.00013
       3 -> 36        -0.00024
       3 -> 43        -0.00024
       3 -> 47         0.00017
       3 -> 50         0.00014
       3 -> 53        -0.00015
       4 ->  9         0.00245
       4 -> 12         0.00035
       4 -> 14         0.00155
       4 -> 15         0.00295
       4 -> 18        -0.00178
       4 -> 20        -0.00034
       4 -> 21         0.00134
       4 -> 25         0.00082
       4 -> 26         0.00078
       4 -> 30         0.00193
       4 -> 31        -0.00127
       4 -> 34        -0.00013
       4 -> 38         0.00016
       4 -> 39        -0.00095
       4 -> 41         0.00036
       4 -> 46         0.00058
       4 -> 49        -0.00017
       4 -> 51        -0.00010
       5 -> 28        -0.00098
       5 -> 35        -0.00128
       5 -> 45        -0.00077
       6 -> 11         0.00039
       6 -> 16         0.00459
       6 -> 19        -0.00100
       6 -> 23        -0.00032
       6 -> 24        -0.00296
       6 -> 29        -0.00178
       6 -> 32         0.00047
       6 -> 36         0.00045
       6 -> 40        -0.00039
       6 -> 43         0.00025
       6 -> 47        -0.00016
       6 -> 50        -0.00015
       7 -> 11        -0.00267
       7 -> 16        -0.00301
       7 -> 19        -0.00185
       7 -> 23         0.00101
       7 -> 24         0.00245
       7 -> 29         0.00043
       7 -> 32        -0.00036
       7 -> 36         0.00079
       7 -> 40        -0.00017
       7 -> 43         0.00032
       7 -> 47        -0.00063
       7 -> 50        -0.00040
       7 -> 53         0.00017
       8 ->  9        -0.00059
       8 -> 12         0.70585
       8 -> 14         0.02719
       8 -> 15         0.02676
       8 -> 18         0.01057
       8 -> 20         0.01581
       8 -> 21         0.00493
       8 -> 25        -0.00079
       8 -> 26         0.00149
       8 -> 30         0.00235
       8 -> 34        -0.00030
       8 -> 38        -0.00016
       8 -> 39         0.00134
       8 -> 41        -0.00089
       8 -> 46        -0.00056
       8 -> 49         0.00019
       8 -> 54        -0.00015
       3 <- 11         0.00010
       3 <- 16         0.00051
       3 <- 23         0.00011
       3 <- 24        -0.00045
       3 <- 29         0.00034
       3 <- 32         0.00014
       3 <- 36        -0.00025
       3 <- 43        -0.00021
       3 <- 47         0.00012
       3 <- 53        -0.00022
       4 <-  9        -0.00128
       4 <- 14         0.00144
       4 <- 15         0.00070
       4 <- 18         0.00063
       4 <- 20        -0.00043
       4 <- 21         0.00092
       4 <- 25         0.00096
       4 <- 26         0.00077
       4 <- 30         0.00137
       4 <- 31        -0.00042
       4 <- 34        -0.00065
       4 <- 38         0.00011
       4 <- 39        -0.00072
       4 <- 41         0.00037
       4 <- 46         0.00055
       5 <- 28        -0.00056
       5 <- 35        -0.00109
       5 <- 45        -0.00068
       6 <- 11        -0.00023
       6 <- 16         0.00104
       6 <- 19         0.00063
       6 <- 23        -0.00081
       6 <- 24        -0.00200
       6 <- 29        -0.00115
       6 <- 32         0.00061
       6 <- 36         0.00053
       6 <- 40        -0.00036
       6 <- 43         0.00016
       6 <- 47        -0.00014
       7 <- 11        -0.00025
       7 <- 16        -0.00108
       7 <- 19        -0.00048
       7 <- 23         0.00046
       7 <- 24         0.00118
       7 <- 29        -0.00019
       7 <- 32        -0.00022
       7 <- 36         0.00041
       7 <- 40        -0.00012
       7 <- 43         0.00023
       7 <- 47        -0.00056
       7 <- 50        -0.00046
       8 <-  9        -0.00414
       8 <- 12         0.00129
       8 <- 14         0.00993
       8 <- 15         0.00356
       8 <- 18        -0.00125
       8 <- 20        -0.00280
       8 <- 21         0.00326
       8 <- 25         0.00064
       8 <- 26        -0.00023
       8 <- 30         0.00208
       8 <- 31        -0.00018
       8 <- 39         0.00112
       8 <- 41        -0.00077
       8 <- 46        -0.00045

 Excited State   4:      Singlet-A1     6.1141 eV  202.78 nm  f=0.0168  <S**2>=0.000
       3 ->  9         0.00121
       3 -> 12        -0.00056
       3 -> 14         0.00016
       3 -> 15        -0.00065
       3 -> 18        -0.00141
       3 -> 21         0.00065
       3 -> 25        -0.00049
       3 -> 26        -0.00023
       3 -> 30        -0.00089
       3 -> 31        -0.00048
       3 -> 34         0.00033
       3 -> 38         0.00032
       3 -> 39         0.00032
       3 -> 46        -0.00012
       3 -> 51         0.00021
       3 -> 54        -0.00016
       4 -> 11        -0.00647
       4 -> 16        -0.00714
       4 -> 19        -0.00470
       4 -> 23        -0.00208
       4 -> 24         0.00338
       4 -> 29        -0.00056
       4 -> 32         0.00010
       4 -> 36        -0.00104
       4 -> 43         0.00028
       4 -> 50         0.00026
       5 -> 10        -0.00436
       5 -> 13         0.00298
       5 -> 17        -0.00386
       5 -> 22        -0.00339
       5 -> 27        -0.00102
       5 -> 33        -0.00092
       5 -> 37        -0.00058
       5 -> 42        -0.00021
       5 -> 48         0.00028
       6 ->  9         0.00970
       6 -> 12         0.00875
       6 -> 14        -0.00519
       6 -> 15        -0.00420
       6 -> 18        -0.00525
       6 -> 20         0.00614
       6 -> 21         0.00025
       6 -> 25        -0.00640
       6 -> 26         0.00113
       6 -> 30         0.00049
       6 -> 31         0.00136
       6 -> 34         0.00174
       6 -> 38         0.00100
       6 -> 39        -0.00123
       6 -> 44         0.00051
       6 -> 49         0.00046
       7 ->  9         0.00938
       7 -> 12        -0.01003
       7 -> 14         0.00061
       7 -> 15         0.00308
       7 -> 18        -0.00804
       7 -> 20        -0.00206
       7 -> 25         0.00070
       7 -> 26        -0.00191
       7 -> 30         0.00010
       7 -> 31        -0.00152
       7 -> 34         0.00051
       7 -> 38        -0.00020
       7 -> 39         0.00026
       7 -> 44        -0.00019
       7 -> 51        -0.00021
       8 -> 11         0.70497
       8 -> 16         0.04952
       8 -> 19        -0.01637
       8 -> 23         0.00023
       8 -> 24        -0.00457
       8 -> 29         0.00414
       8 -> 32         0.00180
       8 -> 36        -0.00304
       8 -> 40         0.00029
       8 -> 43         0.00176
       8 -> 47        -0.00074
       8 -> 50         0.00013
       3 <-  9         0.00062
       3 <- 12        -0.00027
       3 <- 14         0.00011
       3 <- 15        -0.00039
       3 <- 18        -0.00088
       3 <- 21         0.00039
       3 <- 25        -0.00041
       3 <- 26        -0.00019
       3 <- 30        -0.00062
       3 <- 31        -0.00028
       3 <- 34         0.00030
       3 <- 38         0.00023
       3 <- 39         0.00027
       3 <- 46        -0.00016
       3 <- 51         0.00017
       3 <- 54        -0.00014
       4 <- 11        -0.00249
       4 <- 16        -0.00276
       4 <- 19        -0.00261
       4 <- 23        -0.00155
       4 <- 24         0.00180
       4 <- 29        -0.00027
       4 <- 32         0.00019
       4 <- 36        -0.00087
       4 <- 43         0.00025
       4 <- 50         0.00022
       5 <- 10        -0.00220
       5 <- 13         0.00157
       5 <- 17        -0.00220
       5 <- 22        -0.00226
       5 <- 27        -0.00072
       5 <- 33        -0.00075
       5 <- 37        -0.00049
       5 <- 42        -0.00018
       5 <- 48         0.00026
       6 <-  9         0.00775
       6 <- 12         0.00400
       6 <- 14        -0.00405
       6 <- 15        -0.00349
       6 <- 18        -0.00293
       6 <- 20         0.00347
       6 <- 21         0.00102
       6 <- 25        -0.00420
       6 <- 26         0.00064
       6 <- 31         0.00112
       6 <- 34         0.00125
       6 <- 38         0.00104
       6 <- 39        -0.00097
       6 <- 44         0.00052
       6 <- 49         0.00037
       7 <-  9         0.00195
       7 <- 12        -0.00377
       7 <- 14         0.00100
       7 <- 15         0.00210
       7 <- 18        -0.00376
       7 <- 20        -0.00092
       7 <- 21        -0.00011
       7 <- 25         0.00049
       7 <- 26        -0.00117
       7 <- 30         0.00018
       7 <- 31        -0.00119
       7 <- 34         0.00035
       7 <- 38        -0.00018
       7 <- 44        -0.00021
       7 <- 46         0.00011
       7 <- 51        -0.00020
       8 <- 11        -0.00742
       8 <- 16         0.00485
       8 <- 19        -0.01440
       8 <- 23        -0.00336
       8 <- 24        -0.00085
       8 <- 29         0.00273
       8 <- 32         0.00158
       8 <- 36        -0.00237
       8 <- 43         0.00141
       8 <- 47        -0.00075
       8 <- 50         0.00012

 Excited State   5:      Singlet-A2     7.9157 eV  156.63 nm  f=0.0000  <S**2>=0.000
       3 -> 28        -0.00266
       3 -> 35        -0.00188
       3 -> 45        -0.00071
       4 -> 10        -0.00204
       4 -> 13        -0.00909
       4 -> 17        -0.00106
       4 -> 22         0.00347
       4 -> 27        -0.00077
       4 -> 33        -0.00148
       4 -> 37        -0.00299
       4 -> 42        -0.00014
       4 -> 52        -0.00044
       5 -> 16         0.00097
       5 -> 19         0.00042
       5 -> 23        -0.00165
       5 -> 24        -0.00049
       5 -> 29         0.00018
       5 -> 32        -0.00012
       5 -> 36        -0.00050
       5 -> 43        -0.00063
       5 -> 47        -0.00053
       5 -> 50         0.00012
       5 -> 53        -0.00018
       6 -> 28        -0.00289
       6 -> 35         0.00079
       7 -> 28         0.00044
       7 -> 35        -0.00029
       7 -> 45        -0.00074
       8 -> 10        -0.04670
       8 -> 13         0.70385
       8 -> 17         0.04320
       8 -> 22        -0.02225
       8 -> 27         0.00303
       8 -> 33         0.00269
       8 -> 37        -0.00270
       8 -> 52         0.00049
       3 <- 28        -0.00180
       3 <- 35        -0.00155
       3 <- 45        -0.00078
       4 <- 10        -0.00033
       4 <- 13        -0.00083
       4 <- 17        -0.00022
       4 <- 22         0.00011
       4 <- 27        -0.00015
       4 <- 33         0.00065
       4 <- 37        -0.00112
       4 <- 42        -0.00035
       4 <- 52        -0.00014
       5 <- 11        -0.00030
       5 <- 16         0.00032
       5 <- 19         0.00083
       5 <- 23        -0.00239
       5 <- 24        -0.00163
       5 <- 29        -0.00042
       5 <- 32         0.00070
       5 <- 36        -0.00141
       5 <- 43        -0.00082
       5 <- 47        -0.00024
       5 <- 53        -0.00039
       6 <- 28        -0.00322
       6 <- 35         0.00047
       6 <- 45         0.00017
       7 <- 28         0.00050
       7 <- 45        -0.00046
       8 <- 10        -0.00642
       8 <- 13        -0.00418
       8 <- 17        -0.00332
       8 <- 22         0.00074
       8 <- 27        -0.00046
       8 <- 33         0.00285
       8 <- 37        -0.00174
       8 <- 42         0.00017
       8 <- 52         0.00020

 Excited State   6:      Singlet-B2     9.2080 eV  134.65 nm  f=0.0922  <S**2>=0.000
       3 -> 11         0.00038
       3 -> 16        -0.00072

 The electronic state is 1-A1.
 Alpha  occ. eigenvalues --  -19.16726 -10.27550  -1.32880  -0.73494  -0.70070
 Alpha  occ. eigenvalues --   -0.57758  -0.54925  -0.21255
 Alpha virt. eigenvalues --    0.01056   0.02802   0.04436   0.04607   0.13364
 Alpha virt. eigenvalues --    0.14431   0.17680   0.19068   0.21679   0.24169
 Alpha virt. eigenvalues --    0.26069   0.36556   0.50654   0.56431   0.56834

 Mulliken charges:
               1
     1  C    0.337998
     2  H   -0.075076
     3  H   -0.075076
     4  O   -0.187847
 Sum of Mulliken charges =  -0.00000

 Dipole moment (field-independent basis, Debye):
    X=              0.0000    Y=              0.0000    Z=              0.7580  Tot=              0.7580
 Quadrupole moment (field-independent basis, Debye-Ang):
   XX=            -10.3441   YY=            -13.2663   ZZ=            -13.5571
   XY=             -0.0000   XZ=             -0.0000   YZ=             -0.0000

 Normal termination of Gaussian 16 at Fri Sep 17 10:52:23 2021.
