 Gaussian 16, Revision A.03,
 Gaussian 16:  ES64L-G16RevA.03 25-Dec-2016

 --------------------------------------------------------------------
 #p B3LYP/6-311+G** #p TD=(singlets,nstates=30)IOp(6/8=3) IOp(9/40=4)
 --------------------------------------------------------------------

 ------------------------------
 Scan Step 88, Bond Length 0.94
 ------------------------------
 Symbolic Z-matrix:
 Charge =  0 Multiplicity = 1

                         Standard orientation:
 ---------------------------------------------------------------------
 Center     Atomic      Atomic             Coordinates (Angstroms)
 Number     Number       Type             X           Y           Z
 ---------------------------------------------------------------------
      1          6           0        0.000000    0.000000   -0.396081
      2          1           0        0.000000    0.937260   -0.987431
      3          1           0       -0.000000   -0.937260   -0.987431
      4          8           0        0.000000    0.000000    0.543919
 ---------------------------------------------------------------------

 SCF Done:  E(RB3LYP) =  -114.339974851     A.U. after    9 cycles

 Excitation energies and oscillator strengths:

 Excited State   1:      Singlet-A2     5.3689 eV  230.93 nm  f=0.0000  <S**2>=0.000
       3 -> 27         0.00297
       3 -> 36         0.00239
       3 -> 46         0.00144
       4 -> 27         0.00331
       4 -> 36        -0.00075
       4 -> 46        -0.00080
       5 ->  9         0.01193
       5 -> 13        -0.00947
       5 -> 17         0.00618
       5 -> 22        -0.00335
       5 -> 28         0.00328
       5 -> 31         0.00236
       5 -> 37         0.00383
       5 -> 43         0.00060
       5 -> 52         0.00079
       6 -> 12        -0.00060
       6 -> 16        -0.00139
       6 -> 18        -0.00078
       6 -> 23         0.00176
       6 -> 24         0.00075
       6 -> 29        -0.00052
       6 -> 33         0.00029
       6 -> 35         0.00055
       6 -> 40        -0.00016
       6 -> 42         0.00048
       6 -> 47         0.00066
       6 -> 50        -0.00017
       6 -> 53         0.00032
       7 -> 27         0.00089
       7 -> 36        -0.00039
       7 -> 46         0.00135
       8 ->  9         0.69631
       8 -> 13        -0.11889
       8 -> 17         0.02874
       8 -> 22        -0.00988
       8 -> 28         0.00579
       8 -> 31         0.00349
       8 -> 37        -0.00211
       8 -> 43        -0.00024
       8 -> 52         0.00107
       3 <- 27         0.00215
       3 <- 36         0.00205
       3 <- 46         0.00149
       4 <- 27         0.00390
       4 <- 36        -0.00038
       4 <- 46        -0.00076
       5 <-  9         0.00025
       5 <- 13        -0.00110
       5 <- 17        -0.00019
       5 <- 22         0.00034
       5 <- 28        -0.00019
       5 <- 31        -0.00111
       5 <- 37         0.00172
       5 <- 43         0.00044
       5 <- 49         0.00013
       5 <- 52         0.00020
       6 <- 12        -0.00095
       6 <- 16         0.00289
       6 <- 18        -0.00301
       6 <- 23         0.00529
       6 <- 24        -0.00142
       6 <- 29         0.00185
       6 <- 33        -0.00105
       6 <- 35         0.00220
       6 <- 40        -0.00023
       6 <- 42         0.00095
       6 <- 47         0.00050
       6 <- 53         0.00085
       7 <- 27         0.00110
       7 <- 36        -0.00043
       7 <- 46         0.00106
       8 <-  9        -0.01145
       8 <- 13         0.00783
       8 <- 17        -0.00401
       8 <- 22         0.00057
       8 <- 28        -0.00042
       8 <- 31         0.00254
       8 <- 37        -0.00227
       8 <- 52         0.00033
 This state for optimization and/or second-order correction.
 Total Energy, E(TD-HF/TD-DFT) =  -114.142670294
 Copying the excited state density for this state as the 1-particle RhoCI density.

 Excited State   2:      Singlet-B2     6.1242 eV  202.45 nm  f=0.0772  <S**2>=0.000
       3 -> 12         0.00098
       3 -> 18         0.00111
       3 -> 24         0.00120
       3 -> 29        -0.00017
       3 -> 35        -0.00014
       3 -> 42         0.00012
       3 -> 50        -0.00014
       4 -> 12        -0.00572
       4 -> 16         0.00065
       4 -> 18         0.00194
       4 -> 23        -0.00283
       4 -> 24         0.00403
       4 -> 29        -0.00039
       4 -> 33        -0.00096
       4 -> 35         0.00089
       4 -> 40        -0.00022
       4 -> 42         0.00044
       5 -> 10         0.00052
       5 -> 11        -0.00766
       5 -> 14         0.00581
       5 -> 15         0.00153
       5 -> 19         0.00366
       5 -> 20        -0.00089
       5 -> 21         0.00334
       5 -> 25         0.00098
       5 -> 26        -0.00144
       5 -> 30         0.00244
       5 -> 38        -0.00071
       5 -> 39         0.00019
       5 -> 41         0.00028
       5 -> 44         0.00045
       5 -> 45        -0.00058
       5 -> 48         0.00034
       6 -> 27         0.00085
       6 -> 46         0.00083
       7 -> 12         0.00204
       7 -> 16         0.00175
       7 -> 18         0.00422
       7 -> 23        -0.00245
       7 -> 24         0.00223
       7 -> 35        -0.00011
       7 -> 42        -0.00038
       7 -> 47         0.00037
       7 -> 50         0.00051
       8 -> 10         0.70612
       8 -> 11        -0.02432
       8 -> 14        -0.01294
       8 -> 15         0.01135
       8 -> 19         0.01960
       8 -> 20         0.00876
       8 -> 21        -0.00702
       8 -> 25         0.00079
       8 -> 26        -0.00074
       8 -> 30         0.00017
       8 -> 32         0.00248
       8 -> 34         0.00171
       8 -> 38         0.00073
       8 -> 39        -0.00058
       8 -> 41        -0.00027
       8 -> 44        -0.00058
       8 -> 45        -0.00101
       8 -> 48         0.00027
       8 -> 54        -0.00015
       3 <- 12         0.00031
       3 <- 16        -0.00020
       3 <- 18         0.00061
       3 <- 23        -0.00017
       3 <- 24         0.00085
       3 <- 29        -0.00015
       3 <- 35        -0.00015
       4 <- 12         0.00015
       4 <- 16         0.00024
       4 <- 18         0.00273
       4 <- 23        -0.00171
       4 <- 24         0.00302
       4 <- 29        -0.00031
       4 <- 33        -0.00070
       4 <- 35         0.00065
       4 <- 40        -0.00024
       4 <- 42         0.00016
       5 <- 10         0.00223
       5 <- 14         0.00447
       5 <- 15         0.00158
       5 <- 19         0.00092
       5 <- 20        -0.00018
       5 <- 21         0.00195
       5 <- 25         0.00167
       5 <- 26        -0.00129
       5 <- 30         0.00088
       5 <- 32        -0.00042
       5 <- 38        -0.00050
       5 <- 39         0.00016
       5 <- 41         0.00034
       5 <- 44         0.00030
       5 <- 45        -0.00050
       5 <- 48         0.00030
       6 <- 27         0.00065
       6 <- 46         0.00071
       7 <- 12         0.00057
       7 <- 16         0.00141
       7 <- 18         0.00167
       7 <- 23        -0.00096
       7 <- 24         0.00098
       7 <- 29         0.00060
       7 <- 33        -0.00013
       7 <- 35         0.00012
       7 <- 42        -0.00034
       7 <- 47         0.00033
       7 <- 50         0.00055
       8 <- 10        -0.00386
       8 <- 11        -0.00157
       8 <- 14        -0.01152
       8 <- 15        -0.00134
       8 <- 19        -0.00086
       8 <- 20        -0.00032
       8 <- 21        -0.00392
       8 <- 25        -0.00306
       8 <- 26        -0.00057
       8 <- 30        -0.00056
       8 <- 32         0.00116
       8 <- 34         0.00159
       8 <- 38         0.00075
       8 <- 39        -0.00047
       8 <- 41        -0.00013
       8 <- 44        -0.00049
       8 <- 45        -0.00070
       8 <- 48         0.00027

 Excited State   3:      Singlet-B2     6.9111 eV  179.40 nm  f=0.0210  <S**2>=0.000
       3 -> 12        -0.00013
       3 -> 16         0.00070
       3 -> 18         0.00013
       3 -> 23         0.00018
       3 -> 24         0.00041
       3 -> 29         0.00111
       3 -> 33         0.00014
       3 -> 35        -0.00031
       3 -> 42        -0.00032
       3 -> 47         0.00020
       3 -> 50         0.00023
       4 -> 12         0.00298
       4 -> 16         0.00343
       4 -> 18         0.00262
       4 -> 23        -0.00152
       4 -> 24         0.00359
       4 -> 29        -0.00112
       4 -> 33         0.00056
       4 -> 35        -0.00023
       4 -> 40        -0.00023
       4 -> 47         0.00015
       4 -> 50         0.00014
       5 -> 10        -0.00590
       5 -> 11         0.00017
       5 -> 14         0.00366
       5 -> 15         0.00523
       5 -> 19        -0.00363
       5 -> 20        -0.00126
       5 -> 21         0.00126
       5 -> 25         0.00109
       5 -> 26         0.00125
       5 -> 30         0.00081
       5 -> 32        -0.00202
       5 -> 34        -0.00064
       5 -> 39        -0.00067
       5 -> 41        -0.00080
       5 -> 44         0.00011
       5 -> 45         0.00062
       5 -> 48        -0.00045
       5 -> 51        -0.00024
       6 -> 27        -0.00077
       6 -> 36        -0.00131
       6 -> 46        -0.00117
       7 -> 12        -0.00303
       7 -> 16         0.00068
       7 -> 18        -0.00235
       7 -> 23         0.00139
       7 -> 24        -0.00019
       7 -> 33        -0.00030
       7 -> 35         0.00129
       7 -> 40        -0.00035
       7 -> 42         0.00071
       7 -> 47        -0.00068
       7 -> 50        -0.00063
       7 -> 53         0.00015
       8 -> 10         0.02485
       8 -> 11         0.70567
       8 -> 14        -0.01571
       8 -> 15        -0.02187
       8 -> 19        -0.01947
       8 -> 20         0.01439
       8 -> 21        -0.00245
       8 -> 25         0.00032
       8 -> 26         0.00019
       8 -> 30        -0.00166
       8 -> 32         0.00019
       8 -> 34         0.00042
       8 -> 38        -0.00013
       8 -> 39        -0.00047
       8 -> 41        -0.00138
       8 -> 45         0.00076
       8 -> 48        -0.00071
       8 -> 51        -0.00020
       8 -> 54         0.00017
       3 <- 12         0.00026
       3 <- 16         0.00055
       3 <- 18         0.00043
       3 <- 24         0.00047
       3 <- 29         0.00072
       3 <- 33         0.00018
       3 <- 35        -0.00034
       3 <- 42        -0.00028
       3 <- 47         0.00016
       3 <- 50         0.00013
       3 <- 53        -0.00022
       4 <- 12         0.00031
       4 <- 16         0.00034
       4 <- 18         0.00121
       4 <- 23        -0.00127
       4 <- 24         0.00164
       4 <- 29        -0.00046
       4 <- 33         0.00055
       4 <- 35         0.00011
       4 <- 40        -0.00022
       4 <- 42        -0.00011
       4 <- 50         0.00022
       5 <- 10         0.00136
       5 <- 11        -0.00042
       5 <- 14         0.00192
       5 <- 15         0.00052
       5 <- 19         0.00065
       5 <- 20         0.00018
       5 <- 21         0.00100
       5 <- 25         0.00095
       5 <- 26         0.00090
       5 <- 30         0.00081
       5 <- 32        -0.00060
       5 <- 34        -0.00114
       5 <- 38         0.00011
       5 <- 39        -0.00045
       5 <- 41        -0.00081
       5 <- 44         0.00014
       5 <- 45         0.00063
       5 <- 48        -0.00031
       5 <- 51        -0.00023
       6 <- 27        -0.00032
       6 <- 36        -0.00107
       6 <- 46        -0.00101
       7 <- 12        -0.00036
       7 <- 16        -0.00022
       7 <- 18        -0.00028
       7 <- 23         0.00029
       7 <- 29        -0.00023
       7 <- 35         0.00092
       7 <- 40        -0.00027
       7 <- 42         0.00050
       7 <- 47        -0.00058
       7 <- 50        -0.00057
       8 <- 10        -0.00150
       8 <- 11         0.00110
       8 <- 14        -0.00582
       8 <- 15        -0.00115
       8 <- 19         0.00220
       8 <- 20        -0.00180
       8 <- 21        -0.00249
       8 <- 25        -0.00029
       8 <- 26         0.00104
       8 <- 30        -0.00103
       8 <- 32         0.00112
       8 <- 34        -0.00011
       8 <- 38        -0.00029
       8 <- 39        -0.00023
       8 <- 41        -0.00116
       8 <- 45         0.00065
       8 <- 48        -0.00046
       8 <- 51        -0.00021

 Excited State   4:      Singlet-A1     7.0492 eV  175.88 nm  f=0.0474  <S**2>=0.000
       3 -> 10         0.00139
       3 -> 11        -0.00090
       3 -> 14         0.00022
       3 -> 15         0.00054
       3 -> 19         0.00126
       3 -> 20         0.00052
       3 -> 21        -0.00014
       3 -> 25         0.00015
       3 -> 26        -0.00018
       3 -> 30         0.00111
       3 -> 32        -0.00028
       3 -> 34        -0.00020
       3 -> 38        -0.00035
       3 -> 39        -0.00022
       3 -> 41        -0.00016
       3 -> 48        -0.00015
       3 -> 51        -0.00031
       3 -> 54         0.00021
       4 -> 10         0.00556
       4 -> 11         0.00987
       4 -> 14         0.00624
       4 -> 15         0.00134
       4 -> 19         0.00083
       4 -> 20         0.00644
       4 -> 21         0.00241
       4 -> 25         0.00695
       4 -> 26        -0.00080
       4 -> 30        -0.00069
       4 -> 32        -0.00051
       4 -> 34        -0.00095
       4 -> 38        -0.00018
       4 -> 39         0.00069
       4 -> 41         0.00019
       4 -> 45        -0.00032
       4 -> 48        -0.00025
       5 -> 12         0.00769
       5 -> 16         0.00622
       5 -> 18         0.00925
       5 -> 23         0.00021
       5 -> 24         0.00445
       5 -> 29         0.00053
       5 -> 33        -0.00016
       5 -> 35         0.00091
       5 -> 42        -0.00021
       5 -> 50        -0.00036
       5 -> 53        -0.00015
       6 ->  9         0.00861
       6 -> 13         0.00444
       6 -> 17         0.00516
       6 -> 22         0.00442
       6 -> 28         0.00050
       6 -> 31         0.00087
       6 -> 37         0.00053
       6 -> 43         0.00055
       6 -> 49        -0.00037
       7 -> 10         0.01329
       7 -> 11        -0.00494
       7 -> 14         0.00334
       7 -> 15        -0.00127
       7 -> 19         0.00714
       7 -> 20         0.00358
       7 -> 21         0.00138
       7 -> 25         0.00211
       7 -> 26        -0.00034
       7 -> 32         0.00058
       7 -> 34        -0.00090
       7 -> 39         0.00020
       7 -> 48        -0.00019
       7 -> 51         0.00049
       8 -> 12         0.70555
       8 -> 16         0.03873
       8 -> 18         0.00980
       8 -> 23         0.00434
       8 -> 24         0.00145
       8 -> 29         0.00282
       8 -> 33         0.00152
       8 -> 35        -0.00242
       8 -> 42         0.00129
       8 -> 47        -0.00041
       8 -> 50        -0.00016
       8 -> 53        -0.00014
       3 <- 10         0.00057
       3 <- 11        -0.00031
       3 <- 14         0.00015
       3 <- 15         0.00024
       3 <- 19         0.00066
       3 <- 20         0.00022
       3 <- 25         0.00027
       3 <- 30         0.00066
       3 <- 32        -0.00022
       3 <- 34        -0.00013
       3 <- 38        -0.00027
       3 <- 39        -0.00019
       3 <- 41        -0.00016
       3 <- 48        -0.00017
       3 <- 51        -0.00027
       3 <- 54         0.00019
       4 <- 10         0.00556
       4 <- 11         0.00329
       4 <- 14         0.00462
       4 <- 15         0.00147
       4 <- 19         0.00063
       4 <- 20         0.00364
       4 <- 21         0.00088
       4 <- 25         0.00414
       4 <- 26        -0.00036
       4 <- 32        -0.00078
       4 <- 34        -0.00091
       4 <- 38        -0.00027
       4 <- 39         0.00060
       4 <- 45        -0.00030
       4 <- 48        -0.00021
       5 <- 12         0.00269
       5 <- 16         0.00132
       5 <- 18         0.00411
       5 <- 23         0.00049
       5 <- 24         0.00241
       5 <- 29         0.00014
       5 <- 33        -0.00030
       5 <- 35         0.00080
       5 <- 42        -0.00018
       5 <- 50        -0.00028
       5 <- 53        -0.00013
       6 <-  9         0.00262
       6 <- 13         0.00163
       6 <- 17         0.00220
       6 <- 22         0.00255
       6 <- 28         0.00028
       6 <- 31         0.00065
       6 <- 37         0.00043
       6 <- 43         0.00047
       6 <- 49        -0.00032
       7 <- 10         0.00436
       7 <- 11        -0.00103
       7 <- 14         0.00157
       7 <- 15        -0.00043
       7 <- 19         0.00293
       7 <- 20         0.00200
       7 <- 21         0.00051
       7 <- 25         0.00123
       7 <- 26        -0.00038
       7 <- 30         0.00013
       7 <- 32         0.00032
       7 <- 34        -0.00065
       7 <- 39         0.00027
       7 <- 41         0.00012
       7 <- 51         0.00045
       8 <- 12        -0.00307
       8 <- 16         0.00718
       8 <- 18        -0.00840
       8 <- 23        -0.00018
       8 <- 24        -0.00231
       8 <- 29         0.00124
       8 <- 33         0.00107
       8 <- 35        -0.00163
       8 <- 42         0.00106
       8 <- 47        -0.00048
       8 <- 50        -0.00014
       8 <- 53        -0.00016

 Excited State   5:      Singlet-A2     7.6835 eV  161.36 nm  f=0.0000  <S**2>=0.000
       3 -> 27        -0.00136
       3 -> 36        -0.00116
       3 -> 46        -0.00061
       4 -> 27        -0.00047
       4 -> 36         0.00068
       4 -> 46         0.00021
       5 ->  9        -0.00947
       5 -> 13         0.00547
       5 -> 17         0.00348
       5 -> 22         0.00044
       5 -> 28        -0.00014
       5 -> 31        -0.00215
       5 -> 37        -0.00209
       5 -> 43        -0.00030
       5 -> 52        -0.00033
       6 -> 12        -0.00033
       6 -> 16         0.00207
       6 -> 18         0.00083
       6 -> 23        -0.00109
       6 -> 24        -0.00025
       6 -> 29         0.00032
       6 -> 35        -0.00031
       6 -> 42        -0.00028
       6 -> 47        -0.00027
       6 -> 53        -0.00015
       7 -> 36         0.00025
       7 -> 46        -0.00064
       8 ->  9         0.11932
       8 -> 13         0.69654
       8 -> 17         0.00127
       8 -> 22         0.02207
       8 -> 28        -0.00128
       8 -> 31        -0.00138
       8 -> 37         0.00063
       8 -> 43         0.00013
       8 -> 49         0.00017
       8 -> 52        -0.00038
       3 <- 27        -0.00077
       3 <- 36        -0.00092
       3 <- 46        -0.00071
       4 <- 27        -0.00101
       4 <- 46         0.00023
       5 <-  9        -0.00029
       5 <- 17         0.00060
       5 <- 22        -0.00011
       5 <- 31         0.00016
       5 <- 37        -0.00063
       5 <- 43        -0.00017
       5 <- 52        -0.00011
       6 <- 12        -0.00053
       6 <- 16         0.00050
       6 <- 18         0.00063
       6 <- 23        -0.00219
       6 <- 24         0.00014
       6 <- 33         0.00065
       6 <- 35        -0.00116
       6 <- 40         0.00011
       6 <- 42        -0.00063
       6 <- 47        -0.00011
       6 <- 53        -0.00031
       7 <- 27        -0.00032
       7 <- 36         0.00026
       7 <- 46        -0.00030
       8 <-  9         0.00585
       8 <- 17         0.00057
       8 <- 22        -0.00047
       8 <- 28         0.00020
       8 <- 31        -0.00071
       8 <- 37         0.00072
       8 <- 52        -0.00015

 Excited State   6:      Singlet-B2    10.0542 eV  123.32 nm  f=0.2724  <S**2>=0.000
       3 -> 12        -0.00041
       3 -> 16         0.00176
       3 -> 18        -0.00050

 The electronic state is 1-A1.
 Alpha  occ. eigenvalues --  -19.13796 -10.23921  -1.23968  -0.60349  -0.58481
 Alpha  occ. eigenvalues --   -0.53037  -0.50974  -0.25028
 Alpha virt. eigenvalues --    0.00585   0.01375   0.04338   0.04406   0.08156
 Alpha virt. eigenvalues --    0.14048   0.17862   0.20442   0.21934   0.22752
 Alpha virt. eigenvalues --    0.26496   0.36159   0.49826   0.52093   0.52398

 Mulliken charges:
               1
     1  C    0.164332
     2  H    0.022476
     3  H    0.022476
     4  O   -0.209284
 Sum of Mulliken charges =   0.00000

 Dipole moment (field-independent basis, Debye):
    X=              0.0000    Y=             -0.0000    Z=             -0.9049  Tot=              0.9049
 Quadrupole moment (field-independent basis, Debye-Ang):
   XX=            -10.9364   YY=            -12.1668   ZZ=            -13.0974
   XY=             -0.0000   XZ=             -0.0000   YZ=             -0.0000

 Normal termination of Gaussian 16 at Fri Sep 17 10:52:33 2021.
