 Gaussian 16, Revision C.01,
 Gaussian 16:  ES64L-G16RevC.01  3-Jul-2019

 ---------------------------------------
 #P wB97XD/6-311+G* NoSymm #P Field=Z-19
 ---------------------------------------

 -------
 TitleMe
 -------
 Symbolic Z-matrix:
 Charge =  1 Multiplicity = 1

                          Input orientation:
 ---------------------------------------------------------------------
 Center     Atomic      Atomic             Coordinates (Angstroms)
 Number     Number       Type             X           Y           Z
 ---------------------------------------------------------------------
      1          6           0        0.519300    1.233000   -0.031900
      2          6           0        1.944500    1.269200   -0.036700
      3          6           0        2.620400    0.092800   -0.025000
      4          6           0       -0.196000    0.030100    0.001000
      5          1           0       -0.020700    2.174200   -0.043400
      6          1           0        2.482800    2.208900   -0.036100
      7          1           0       -1.277700    0.039900    0.011700
      8          7           0        4.092100    0.095900    0.036600
      9          8           0        4.639300   -1.021700    0.144600
     10          8           0        4.664900    1.198400   -0.023300
     11          6           0        0.494300   -1.167100    0.021000
     12          1           0       -0.032500   -2.114900    0.054500
     13          6           0        1.962900   -1.216500   -0.021100
     14          1           0        2.443600   -1.963100    0.615100
     15         35           0        2.173000   -1.949100   -1.906200
 ---------------------------------------------------------------------

 SCF Done:  E(RwB97XD) =  -3010.53147111     A.U. after   19 cycles

 Alpha  occ. eigenvalues -- -483.31341 -62.86367 -56.66056 -56.65492 -56.65482
 Alpha  occ. eigenvalues --  -19.46223 -19.46205 -14.85648 -10.59233 -10.58094
 Alpha  occ. eigenvalues --  -10.57311 -10.56994 -10.53390 -10.52747  -9.02174
 Alpha  occ. eigenvalues --   -6.84844  -6.82991  -6.82961  -2.94751  -2.94263
 Alpha  occ. eigenvalues --   -2.94238  -2.92755  -2.92754  -1.49906  -1.32865
 Alpha  occ. eigenvalues --   -1.22455  -1.12895  -1.12476  -1.04882  -1.00338
 Alpha  occ. eigenvalues --   -0.95368  -0.90585  -0.84945  -0.80905  -0.80150
 Alpha  occ. eigenvalues --   -0.80056  -0.77917  -0.76192  -0.75597  -0.72037
 Alpha  occ. eigenvalues --   -0.68544  -0.67583  -0.63419  -0.59901  -0.57399
 Alpha  occ. eigenvalues --   -0.56802  -0.56370  -0.55919  -0.54702
 Alpha virt. eigenvalues --   -0.30131  -0.20380  -0.15763  -0.13061  -0.08568
 Alpha virt. eigenvalues --   -0.06061  -0.05550  -0.05178  -0.03998  -0.03189
 Alpha virt. eigenvalues --   -0.02415  -0.01822  -0.01574  -0.00742   0.00255

 Mulliken charges:
               1
     1  C   -0.104535
     2  C    0.176056
     3  C   -0.077982
     4  C   -0.334401
     5  H    0.345789
     6  H    0.350650
     7  H    0.331242
     8  N   -0.236181
     9  O    0.088516
    10  O    0.070072
    11  C   -0.197534
    12  H    0.357332
    13  C   -0.351000
    14  H    0.417360
    15  Br   0.164618
 Sum of Mulliken charges =   1.00000

 Dipole moment (field-independent basis, Debye):
    X=              2.7550    Y=             -0.8297    Z=             -0.4101  Tot=              2.9063
 Quadrupole moment (field-independent basis, Debye-Ang):
   XX=            -67.8457   YY=            -51.2610   ZZ=            -62.6035
   XY=             -2.8182   XZ=             -1.8584   YZ=              2.1251

 Normal termination of Gaussian 16 at Thu May  2 14:19:16 2024.
