 Gaussian 16, Revision C.01,
 Gaussian 16:  ES64L-G16RevC.01  3-Jul-2019

 ----------------------------------------
 #P wB97XD/6-311+G* NoSymm #P Field=Y+165
 ----------------------------------------

 -------
 TitleMe
 -------
 Symbolic Z-matrix:
 Charge =  1 Multiplicity = 1

                          Input orientation:
 ---------------------------------------------------------------------
 Center     Atomic      Atomic             Coordinates (Angstroms)
 Number     Number       Type             X           Y           Z
 ---------------------------------------------------------------------
      1          6           0        0.029500    1.339700    0.068200
      2          6           0        1.434800    1.286700    0.006400
      3          6           0        2.111800    0.051100   -0.005400
      4          6           0        1.445100   -1.137200    0.031200
      5          6           0       -0.687900    0.168200    0.110000
      6          1           0       -0.471300    2.298400    0.078100
      7          1           0        2.027300    2.196500   -0.032200
      8          1           0        1.989700   -2.076400    0.023200
      9          1           0       -1.771600    0.180400    0.158200
     10          7           0        3.586400    0.051000   -0.067500
     11          8           0        4.147100   -1.059700   -0.088100
     12          8           0        4.145000    1.163900   -0.090100
     13          6           0       -0.023600   -1.145800    0.083500
     14          1           0       -0.436700   -1.872500    0.788900
     15         35           0       -0.535900   -1.869700   -1.740800
 ---------------------------------------------------------------------

 SCF Done:  E(RwB97XD) =  -3010.55460687     A.U. after   20 cycles

 Alpha  occ. eigenvalues -- -483.28734 -62.83721 -56.63446 -56.62832 -56.62827
 Alpha  occ. eigenvalues --  -19.45471 -19.45278 -14.84825 -10.57489 -10.56363
 Alpha  occ. eigenvalues --  -10.56323 -10.55958 -10.55702 -10.53466  -8.99500
 Alpha  occ. eigenvalues --   -6.82261  -6.80257  -6.80236  -2.92145  -2.91616
 Alpha  occ. eigenvalues --   -2.91598  -2.89996  -2.89995  -1.49134  -1.32124
 Alpha  occ. eigenvalues --   -1.21783  -1.12820  -1.11224  -1.02343  -1.00469
 Alpha  occ. eigenvalues --   -0.94535  -0.90269  -0.84942  -0.80341  -0.79915
 Alpha  occ. eigenvalues --   -0.79411  -0.77606  -0.75501  -0.75077  -0.71330
 Alpha  occ. eigenvalues --   -0.68537  -0.66896  -0.62707  -0.58950  -0.56716
 Alpha  occ. eigenvalues --   -0.55696  -0.55011  -0.53263  -0.52782
 Alpha virt. eigenvalues --   -0.28569  -0.20534  -0.15036  -0.14685  -0.11792
 Alpha virt. eigenvalues --   -0.10792  -0.07316  -0.06794  -0.05690  -0.03593
 Alpha virt. eigenvalues --   -0.02420  -0.01588  -0.01039  -0.00128   0.00186

 Mulliken charges:
               1
     1  C   -0.604012
     2  C    0.615625
     3  C   -0.815047
     4  C    0.363194
     5  C   -0.063930
     6  H    0.261021
     7  H    0.302380
     8  H    0.425631
     9  H    0.346598
    10  N   -0.102441
    11  O    0.115747
    12  O   -0.064591
    13  C   -0.515655
    14  H    0.445313
    15  Br   0.290166
 Sum of Mulliken charges =   1.00000

 Dipole moment (field-independent basis, Debye):
    X=             -1.3567    Y=             -5.3626    Z=             -0.6666  Tot=              5.5716
 Quadrupole moment (field-independent basis, Debye-Ang):
   XX=            -72.0859   YY=            -50.2210   ZZ=            -61.2947
   XY=             -3.9867   XZ=              1.6521   YZ=              3.8584

 Normal termination of Gaussian 16 at Wed May  1 15:10:33 2024.
