 Gaussian 16, Revision A.03,
 Gaussian 16:  ES64L-G16RevA.03 25-Dec-2016

 --------------------------------------------------------------------
 #p B3LYP/6-311+G** #p TD=(singlets,nstates=30)IOp(6/8=3) IOp(9/40=4)
 --------------------------------------------------------------------

 -------------------------------
 Scan Step 114, Bond Length 1.07
 -------------------------------
 Symbolic Z-matrix:
 Charge =  0 Multiplicity = 1

                         Standard orientation:
 ---------------------------------------------------------------------
 Center     Atomic      Atomic             Coordinates (Angstroms)
 Number     Number       Type             X           Y           Z
 ---------------------------------------------------------------------
      1          6           0        0.000000    0.000000   -0.461081
      2          1           0        0.000000    0.937260   -1.052431
      3          1           0       -0.000000   -0.937260   -1.052431
      4          8           0        0.000000   -0.000000    0.608919
 ---------------------------------------------------------------------

 SCF Done:  E(RB3LYP) =  -114.505019312     A.U. after    9 cycles

 Excitation energies and oscillator strengths:

 Excited State   1:      Singlet-A2     4.7310 eV  262.07 nm  f=0.0000  <S**2>=0.000
       3 -> 27         0.00289
       3 -> 38         0.00242
       3 -> 45         0.00198
       4 -> 27         0.00263
       4 -> 38        -0.00071
       4 -> 45        -0.00107
       5 ->  9         0.01953
       5 -> 13        -0.00691
       5 -> 17         0.00615
       5 -> 23        -0.00198
       5 -> 28         0.00391
       5 -> 31         0.00291
       5 -> 36         0.00397
       5 -> 44         0.00068
       5 -> 47         0.00013
       5 -> 52         0.00085
       6 -> 27         0.00039
       6 -> 38        -0.00066
       6 -> 45         0.00166
       7 -> 12        -0.00062
       7 -> 16         0.00198
       7 -> 18        -0.00197
       7 -> 22         0.00140
       7 -> 24         0.00125
       7 -> 29        -0.00074
       7 -> 34         0.00037
       7 -> 35         0.00046
       7 -> 40        -0.00039
       7 -> 48         0.00058
       7 -> 51         0.00021
       7 -> 53         0.00041
       8 ->  9         0.70244
       8 -> 13        -0.07534
       8 -> 17         0.02502
       8 -> 23        -0.01183
       8 -> 28         0.00728
       8 -> 31         0.00343
       8 -> 36        -0.00115
       8 -> 44        -0.00023
       8 -> 47        -0.00019
       8 -> 52         0.00140
       3 <- 27         0.00199
       3 <- 38         0.00205
       3 <- 45         0.00206
       4 <- 27         0.00342
       4 <- 38        -0.00016
       4 <- 45        -0.00096
       5 <- 13        -0.00094
       5 <- 17        -0.00071
       5 <- 23         0.00052
       5 <- 28        -0.00046
       5 <- 31        -0.00109
       5 <- 36         0.00180
       5 <- 44         0.00036
       5 <- 47         0.00017
       5 <- 52         0.00022
       6 <- 27         0.00082
       6 <- 38        -0.00063
       6 <- 45         0.00129
       7 <- 12        -0.00095
       7 <- 16        -0.00548
       7 <- 18        -0.00122
       7 <- 22         0.00662
       7 <- 24        -0.00074
       7 <- 29         0.00248
       7 <- 34        -0.00130
       7 <- 35         0.00253
       7 <- 40        -0.00093
       7 <- 42        -0.00051
       7 <- 48         0.00041
       7 <- 53         0.00110
       8 <-  9        -0.01772
       8 <- 13         0.00509
       8 <- 17        -0.00387
       8 <- 23         0.00074
       8 <- 28        -0.00056
       8 <- 31         0.00165
       8 <- 36        -0.00197
       8 <- 52         0.00041
 This state for optimization and/or second-order correction.
 Total Energy, E(TD-HF/TD-DFT) =  -114.331157283
 Copying the excited state density for this state as the 1-particle RhoCI density.

 Excited State   2:      Singlet-B2     6.5819 eV  188.37 nm  f=0.0532  <S**2>=0.000
       3 -> 12         0.00121
       3 -> 16         0.00059
       3 -> 18         0.00111
       3 -> 22        -0.00023
       3 -> 24         0.00130
       3 -> 29        -0.00012
       3 -> 35        -0.00025
       4 -> 12        -0.00443
       4 -> 16         0.00103
       4 -> 18         0.00235
       4 -> 22        -0.00330
       4 -> 24         0.00380
       4 -> 34        -0.00078
       4 -> 35         0.00082
       4 -> 40        -0.00049
       4 -> 42        -0.00010
       5 -> 10        -0.00284
       5 -> 11        -0.00919
       5 -> 14         0.00672
       5 -> 15        -0.00126
       5 -> 19         0.00283
       5 -> 20         0.00018
       5 -> 21         0.00462
       5 -> 25         0.00026
       5 -> 26         0.00235
       5 -> 30         0.00220
       5 -> 32        -0.00022
       5 -> 33        -0.00079
       5 -> 37        -0.00040
       5 -> 39        -0.00029
       5 -> 43        -0.00055
       5 -> 46        -0.00053
       5 -> 49         0.00019
       6 -> 12         0.00122
       6 -> 16         0.00096
       6 -> 18         0.00362
       6 -> 22        -0.00271
       6 -> 24         0.00169
       6 -> 29        -0.00031
       6 -> 34        -0.00013
       6 -> 40         0.00017
       6 -> 42         0.00031
       6 -> 48         0.00038
       6 -> 51        -0.00049
       7 -> 27         0.00048
       7 -> 38        -0.00027
       7 -> 45         0.00070
       8 -> 10         0.70490
       8 -> 11        -0.04979
       8 -> 14         0.00131
       8 -> 15        -0.00944
       8 -> 19         0.01728
       8 -> 20         0.01066
       8 -> 21        -0.00499
       8 -> 25         0.00076
       8 -> 26         0.00137
       8 -> 30         0.00054
       8 -> 32         0.00092
       8 -> 33         0.00219
       8 -> 37         0.00054
       8 -> 39         0.00052
       8 -> 41        -0.00016
       8 -> 43         0.00069
       8 -> 46        -0.00086
       8 -> 54         0.00017
       3 <- 12         0.00034
       3 <- 16         0.00049
       3 <- 18         0.00048
       3 <- 22        -0.00033
       3 <- 24         0.00084
       3 <- 29        -0.00011
       3 <- 35        -0.00024
       4 <- 12         0.00054
       4 <- 16         0.00146
       4 <- 18         0.00248
       4 <- 22        -0.00201
       4 <- 24         0.00271
       4 <- 34        -0.00053
       4 <- 35         0.00054
       4 <- 40        -0.00025
       4 <- 42         0.00013
       4 <- 48        -0.00010
       5 <- 10         0.00244
       5 <- 11        -0.00018
       5 <- 14         0.00492
       5 <- 15        -0.00117
       5 <- 19         0.00068
       5 <- 20         0.00033
       5 <- 21         0.00227
       5 <- 25         0.00168
       5 <- 26         0.00151
       5 <- 30         0.00064
       5 <- 32        -0.00043
       5 <- 33        -0.00076
       5 <- 37        -0.00038
       5 <- 39        -0.00017
       5 <- 43        -0.00039
       5 <- 46        -0.00045
       5 <- 49         0.00018
       6 <- 12         0.00036
       6 <- 16        -0.00025
       6 <- 18         0.00168
       6 <- 22        -0.00096
       6 <- 24         0.00065
       6 <- 29         0.00039
       6 <- 34        -0.00020
       6 <- 35         0.00027
       6 <- 40         0.00016
       6 <- 42         0.00029
       6 <- 48         0.00032
       6 <- 51        -0.00050
       6 <- 53         0.00011
       7 <- 27         0.00037
       7 <- 38        -0.00021
       7 <- 45         0.00060
       8 <- 10        -0.00271
       8 <- 11        -0.00079
       8 <- 14        -0.00832
       8 <- 15         0.00019
       8 <- 19        -0.00049
       8 <- 20        -0.00039
       8 <- 21        -0.00304
       8 <- 25        -0.00282
       8 <- 30        -0.00070
       8 <- 33         0.00155
       8 <- 37         0.00054
       8 <- 39         0.00043
       8 <- 43         0.00053
       8 <- 46        -0.00059
       8 <- 50        -0.00014

 Excited State   3:      Singlet-B2     7.3759 eV  168.09 nm  f=0.0213  <S**2>=0.000
       3 -> 12        -0.00021
       3 -> 16        -0.00066
       3 -> 18         0.00055
       3 -> 22         0.00026
       3 -> 24         0.00031
       3 -> 29         0.00154
       3 -> 34         0.00014
       3 -> 35        -0.00035
       3 -> 40         0.00029
       3 -> 42         0.00021
       3 -> 48         0.00027
       3 -> 51        -0.00027
       4 -> 12         0.00310
       4 -> 16        -0.00101
       4 -> 18         0.00326
       4 -> 22        -0.00155
       4 -> 24         0.00331
       4 -> 29        -0.00107
       4 -> 34         0.00054
       4 -> 35        -0.00040
       4 -> 42         0.00019
       4 -> 48         0.00019
       4 -> 51        -0.00015
       5 -> 10        -0.00746
       5 -> 11         0.00031
       5 -> 14         0.00583
       5 -> 15        -0.00656
       5 -> 19        -0.00379
       5 -> 20        -0.00287
       5 -> 21         0.00100
       5 -> 25         0.00140
       5 -> 26        -0.00060
       5 -> 30         0.00139
       5 -> 32        -0.00113
       5 -> 33        -0.00129
       5 -> 39         0.00047
       5 -> 41        -0.00085
       5 -> 46         0.00078
       5 -> 49        -0.00028
       5 -> 50         0.00037
       6 -> 12        -0.00324
       6 -> 16        -0.00184
       6 -> 18        -0.00151
       6 -> 22         0.00147
       6 -> 29         0.00054
       6 -> 34        -0.00043
       6 -> 35         0.00144
       6 -> 40        -0.00085
       6 -> 42        -0.00034
       6 -> 48        -0.00080
       6 -> 51         0.00067
       6 -> 53         0.00012
       7 -> 27        -0.00045
       7 -> 38        -0.00115
       7 -> 45        -0.00144
       8 -> 10         0.05042
       8 -> 11         0.70437
       8 -> 14        -0.01172
       8 -> 15         0.01671
       8 -> 19        -0.02420
       8 -> 20         0.01207
       8 -> 21        -0.00210
       8 -> 25         0.00049
       8 -> 26        -0.00145
       8 -> 30        -0.00078
       8 -> 32        -0.00032
       8 -> 33         0.00025
       8 -> 41        -0.00140
       8 -> 43         0.00012
       8 -> 46         0.00125
       8 -> 49        -0.00059
       8 -> 50         0.00062
       8 -> 54        -0.00017
       3 <- 12         0.00032
       3 <- 16        -0.00028
       3 <- 18         0.00075
       3 <- 24         0.00041
       3 <- 29         0.00094
       3 <- 34         0.00021
       3 <- 35        -0.00040
       3 <- 40         0.00026
       3 <- 42         0.00018
       3 <- 48         0.00022
       3 <- 51        -0.00017
       3 <- 53        -0.00023
       4 <- 12         0.00036
       4 <- 16         0.00047
       4 <- 18         0.00094
       4 <- 22        -0.00120
       4 <- 24         0.00138
       4 <- 29        -0.00046
       4 <- 34         0.00050
       4 <- 42         0.00021
       4 <- 48         0.00013
       4 <- 51        -0.00021
       5 <- 10         0.00131
       5 <- 11        -0.00080
       5 <- 14         0.00223
       5 <- 15        -0.00045
       5 <- 19         0.00077
       5 <- 20        -0.00014
       5 <- 21         0.00089
       5 <- 25         0.00112
       5 <- 26        -0.00058
       5 <- 30         0.00077
       5 <- 32         0.00035
       5 <- 33        -0.00119
       5 <- 37         0.00017
       5 <- 39         0.00022
       5 <- 41        -0.00087
       5 <- 46         0.00072
       5 <- 49        -0.00015
       5 <- 50         0.00034
       6 <- 12        -0.00035
       6 <- 16        -0.00024
       6 <- 18        -0.00021
       6 <- 22         0.00047
       6 <- 29         0.00019
       6 <- 34        -0.00024
       6 <- 35         0.00108
       6 <- 40        -0.00062
       6 <- 42        -0.00023
       6 <- 48        -0.00067
       6 <- 51         0.00057
       7 <- 38        -0.00093
       7 <- 45        -0.00122
       8 <- 10        -0.00085
       8 <- 11         0.00032
       8 <- 14        -0.00441
       8 <- 15         0.00064
       8 <- 19         0.00295
       8 <- 20        -0.00141
       8 <- 21        -0.00214
       8 <- 26        -0.00154
       8 <- 30        -0.00046
       8 <- 32         0.00131
       8 <- 33         0.00019
       8 <- 37        -0.00016
       8 <- 39        -0.00024
       8 <- 41        -0.00118
       8 <- 46         0.00101
       8 <- 49        -0.00034
       8 <- 50         0.00049

 Excited State   4:      Singlet-A1     7.5251 eV  164.76 nm  f=0.0540  <S**2>=0.000
       3 -> 10         0.00164
       3 -> 11        -0.00101
       3 -> 14         0.00053
       3 -> 15        -0.00036
       3 -> 19         0.00088
       3 -> 20         0.00109
       3 -> 21         0.00033
       3 -> 25        -0.00023
       3 -> 26         0.00077
       3 -> 30         0.00119
       3 -> 32        -0.00032
       3 -> 33        -0.00033
       3 -> 37        -0.00030
       3 -> 39         0.00013
       3 -> 41        -0.00021
       3 -> 50         0.00038
       3 -> 54        -0.00021
       4 -> 10         0.00533
       4 -> 11         0.00787
       4 -> 14         0.00572
       4 -> 15        -0.00018
       4 -> 19         0.00049
       4 -> 20         0.00542
       4 -> 21         0.00225
       4 -> 25         0.00716
       4 -> 26         0.00099
       4 -> 30        -0.00048
       4 -> 32         0.00018
       4 -> 33        -0.00076
       4 -> 39        -0.00030
       4 -> 41         0.00019
       4 -> 43         0.00015
       4 -> 46        -0.00025
       4 -> 49        -0.00020
       5 -> 12         0.00751
       5 -> 16        -0.00022
       5 -> 18         0.01159
       5 -> 22        -0.00116
       5 -> 24         0.00508
       5 -> 29         0.00015
       5 -> 34        -0.00015
       5 -> 35         0.00083
       5 -> 42         0.00010
       5 -> 51         0.00033
       5 -> 53        -0.00015
       6 -> 10         0.01326
       6 -> 11        -0.00398
       6 -> 14         0.00420
       6 -> 15         0.00151
       6 -> 19         0.00473
       6 -> 20         0.00445
       6 -> 21         0.00176
       6 -> 25         0.00255
       6 -> 26         0.00052
       6 -> 30        -0.00105
       6 -> 32         0.00059
       6 -> 33        -0.00049
       6 -> 43         0.00012
       6 -> 49        -0.00033
       6 -> 50        -0.00053
       7 ->  9         0.01214
       7 -> 13         0.00772
       7 -> 17         0.00436
       7 -> 23         0.00508
       7 -> 31         0.00085
       7 -> 36         0.00055
       7 -> 44         0.00065
       7 -> 47        -0.00036
       7 -> 52        -0.00011
       8 -> 12         0.70571
       8 -> 16        -0.02108
       8 -> 18         0.02782
       8 -> 22         0.00521
       8 -> 24         0.00230
       8 -> 29         0.00147
       8 -> 34         0.00151
       8 -> 35        -0.00214
       8 -> 40        -0.00069
       8 -> 42        -0.00065
       8 -> 48        -0.00036
       8 -> 51         0.00029
       8 -> 53        -0.00020
       3 <- 10         0.00059
       3 <- 11        -0.00021
       3 <- 14         0.00032
       3 <- 19         0.00037
       3 <- 20         0.00050
       3 <- 21         0.00031
       3 <- 26         0.00043
       3 <- 30         0.00075
       3 <- 32        -0.00028
       3 <- 33        -0.00016
       3 <- 37        -0.00024
       3 <- 39         0.00011
       3 <- 41        -0.00017
       3 <- 46         0.00017
       3 <- 50         0.00033
       3 <- 54        -0.00019
       4 <- 10         0.00492
       4 <- 11         0.00219
       4 <- 14         0.00418
       4 <- 15        -0.00062
       4 <- 19         0.00035
       4 <- 20         0.00307
       4 <- 21         0.00092
       4 <- 25         0.00404
       4 <- 26         0.00060
       4 <- 33        -0.00102
       4 <- 37        -0.00010
       4 <- 39        -0.00033
       4 <- 46        -0.00023
       4 <- 49        -0.00016
       5 <- 12         0.00277
       5 <- 16         0.00151
       5 <- 18         0.00425
       5 <- 22        -0.00025
       5 <- 24         0.00275
       5 <- 34        -0.00033
       5 <- 35         0.00076
       5 <- 40         0.00010
       5 <- 51         0.00022
       5 <- 53        -0.00014
       6 <- 10         0.00372
       6 <- 11        -0.00051
       6 <- 14         0.00177
       6 <- 15         0.00049
       6 <- 19         0.00168
       6 <- 20         0.00225
       6 <- 21         0.00068
       6 <- 25         0.00135
       6 <- 26         0.00056
       6 <- 30        -0.00059
       6 <- 32         0.00037
       6 <- 33        -0.00046
       6 <- 39        -0.00014
       6 <- 41         0.00015
       6 <- 49        -0.00022
       6 <- 50        -0.00050
       7 <-  9         0.00191
       7 <- 13         0.00218
       7 <- 17         0.00147
       7 <- 23         0.00270
       7 <- 28        -0.00012
       7 <- 31         0.00061
       7 <- 36         0.00044
       7 <- 44         0.00054
       7 <- 47        -0.00031
       8 <- 12        -0.00178
       8 <- 16        -0.00782
       8 <- 18        -0.00326
       8 <- 22         0.00072
       8 <- 24        -0.00224
       8 <- 29         0.00020
       8 <- 34         0.00084
       8 <- 35        -0.00120
       8 <- 40        -0.00062
       8 <- 42        -0.00054
       8 <- 48        -0.00042
       8 <- 51         0.00024
       8 <- 53        -0.00021

 Excited State   5:      Singlet-A2     8.0337 eV  154.33 nm  f=0.0000  <S**2>=0.000
       3 -> 27        -0.00073
       3 -> 38        -0.00065
       3 -> 45        -0.00038
       4 -> 27         0.00011
       4 -> 38         0.00056
       4 -> 45         0.00011
       5 ->  9        -0.00939
       5 -> 13        -0.00062
       5 -> 17         0.00570
       5 -> 23        -0.00119
       5 -> 31        -0.00181
       5 -> 36        -0.00132
       5 -> 44        -0.00024
       5 -> 52        -0.00015
       6 -> 27         0.00020
       6 -> 38         0.00028
       6 -> 45        -0.00039
       7 -> 12        -0.00052
       7 -> 16        -0.00181
       7 -> 18         0.00177
       7 -> 22        -0.00074
       7 -> 24        -0.00019
       7 -> 29         0.00014
       7 -> 35        -0.00018
       7 -> 40         0.00014
       7 -> 48        -0.00014
       8 ->  9         0.07538
       8 -> 13         0.70262
       8 -> 17         0.01287
       8 -> 23         0.01910
       8 -> 28        -0.00015
       8 -> 31        -0.00129
       8 -> 47         0.00018
       8 -> 52        -0.00021
       3 <- 27        -0.00031
       3 <- 38        -0.00048
       3 <- 45        -0.00047
       4 <- 27        -0.00031
       4 <- 45         0.00011
       5 <-  9        -0.00025
       5 <- 13        -0.00026
       5 <- 17         0.00062
       5 <- 36        -0.00031
       6 <- 38         0.00022
       6 <- 45        -0.00012
       7 <- 12        -0.00066
       7 <- 16        -0.00075
       7 <- 18         0.00064
       7 <- 22        -0.00136
       7 <- 24        -0.00032
       7 <- 29         0.00017
       7 <- 34         0.00047
       7 <- 35        -0.00079
       7 <- 40         0.00038
       7 <- 42         0.00026
       7 <- 53        -0.00016
       8 <-  9         0.00328
       8 <- 13         0.00138
       8 <- 17         0.00024
       8 <- 23        -0.00028
       8 <- 31        -0.00019
       8 <- 36         0.00028

 Excited State   6:      Singlet-B2    10.2748 eV  120.67 nm  f=0.1951  <S**2>=0.000
       3 -> 12        -0.00033
       3 -> 16        -0.00196
       3 -> 18         0.00065
       3 -> 22         0.00144
       3 -> 24         0.00098
       3 -> 29         0.00140
       3 -> 34        -0.00074
       3 -> 40        -0.00020
       3 -> 42        -0.00053
       3 -> 48         0.00033

 The electronic state is 1-A1.
 Alpha  occ. eigenvalues --  -19.14284 -10.25690  -1.15499  -0.62445  -0.53546
 Alpha  occ. eigenvalues --   -0.48512  -0.46370  -0.26930
 Alpha virt. eigenvalues --   -0.02782   0.01146   0.04172   0.04342   0.06934
 Alpha virt. eigenvalues --    0.13530   0.18220   0.19364   0.22015   0.22706
 Alpha virt. eigenvalues --    0.27132   0.35127   0.48450   0.49292   0.51208

 Mulliken charges:
               1
     1  C    0.068224
     2  H    0.071520
     3  H    0.071520
     4  O   -0.211264
 Sum of Mulliken charges =  -0.00000

 Dipole moment (field-independent basis, Debye):
    X=             -0.0000    Y=             -0.0000    Z=             -1.7715  Tot=              1.7715
 Quadrupole moment (field-independent basis, Debye-Ang):
   XX=            -11.3401   YY=            -11.8614   ZZ=            -12.7806
   XY=              0.0000   XZ=              0.0000   YZ=              0.0000

 Normal termination of Gaussian 16 at Fri Sep 17 10:52:37 2021.
