 Gaussian 16, Revision A.03,
 Gaussian 16:  ES64L-G16RevA.03 25-Dec-2016

 --------------------------------------------------------------------
 #p B3LYP/6-311+G** #p TD=(singlets,nstates=30)IOp(6/8=3) IOp(9/40=4)
 --------------------------------------------------------------------

 -------------------------------
 Scan Step 196, Bond Length 1.48
 -------------------------------
 Symbolic Z-matrix:
 Charge =  0 Multiplicity = 1

                         Standard orientation:
 ---------------------------------------------------------------------
 Center     Atomic      Atomic             Coordinates (Angstroms)
 Number     Number       Type             X           Y           Z
 ---------------------------------------------------------------------
      1          6           0        0.000000    0.000000   -0.666081
      2          1           0        0.000000    0.937260   -1.257431
      3          1           0       -0.000000   -0.937260   -1.257431
      4          8           0        0.000000   -0.000000    0.813919
 ---------------------------------------------------------------------

 SCF Done:  E(RB3LYP) =  -114.472706984     A.U. after    9 cycles

 Excitation energies and oscillator strengths:

 Excited State   1:      Singlet-A2     2.4785 eV  500.25 nm  f=0.0000  <S**2>=0.000
       3 -> 27         0.00153
       3 -> 38         0.00120
       3 -> 46         0.00315
       4 -> 27         0.00096
       4 -> 38        -0.00023
       4 -> 46        -0.00139
       5 ->  9         0.01180
       5 -> 13         0.00044
       5 -> 18         0.00370
       5 -> 23         0.00150
       5 -> 28         0.00330
       5 -> 31        -0.00046
       5 -> 37         0.00190
       5 -> 44         0.00041
       5 -> 52         0.00046
       6 -> 27        -0.00058
       6 -> 38        -0.00085
       6 -> 46         0.00154
       7 -> 12        -0.00076
       7 -> 15         0.00429
       7 -> 19        -0.00370
       7 -> 22        -0.00045
       7 -> 25         0.00115
       7 -> 30        -0.00133
       7 -> 33         0.00041
       7 -> 42        -0.00010
       7 -> 49         0.00014
       7 -> 50         0.00022
       7 -> 53         0.00047
       8 ->  9         0.70763
       8 -> 13        -0.01865
       8 -> 18         0.02197
       8 -> 23        -0.00531
       8 -> 28         0.01101
       8 -> 31         0.00032
       8 -> 37         0.00064
       8 -> 48        -0.00030
       8 -> 52         0.00192
       3 <- 27         0.00082
       3 <- 38         0.00090
       3 <- 46         0.00321
       4 <- 27         0.00159
       4 <- 38         0.00022
       4 <- 46        -0.00114
       5 <-  9        -0.00048
       5 <- 13        -0.00063
       5 <- 18        -0.00085
       5 <- 23         0.00035
       5 <- 28        -0.00059
       5 <- 31         0.00046
       5 <- 37         0.00102
       5 <- 44         0.00014
       5 <- 52         0.00012
       6 <- 38        -0.00071
       6 <- 46         0.00120
       7 <- 15        -0.00945
       7 <- 19         0.00270
       7 <- 22         0.00729
       7 <- 25         0.00041
       7 <- 30         0.00489
       7 <- 33        -0.00075
       7 <- 35         0.00133
       7 <- 40         0.00068
       7 <- 42         0.00010
       7 <- 49        -0.00027
       7 <- 50         0.00014
       7 <- 53         0.00144
       8 <-  9        -0.04138
       8 <- 13         0.00107
       8 <- 18        -0.00590
       8 <- 23         0.00044
       8 <- 28        -0.00203
       8 <- 31        -0.00055
       8 <- 37        -0.00068
       8 <- 52         0.00052
 This state for optimization and/or second-order correction.
 Total Energy, E(TD-HF/TD-DFT) =  -114.381624947
 Copying the excited state density for this state as the 1-particle RhoCI density.

 Excited State   2:      Singlet-A1     6.2285 eV  199.06 nm  f=0.1090  <S**2>=0.000
       3 -> 10         0.00874
       3 -> 11        -0.01661
       3 -> 14         0.01134
       3 -> 16         0.01878
       3 -> 17        -0.00420
       3 -> 20        -0.00269
       3 -> 21        -0.00314
       3 -> 24         0.00424
       3 -> 26         0.00612
       3 -> 29        -0.00036
       3 -> 32         0.00283
       3 -> 34         0.00359
       3 -> 36         0.00043
       3 -> 39         0.00111
       3 -> 43         0.00046
       3 -> 45         0.00122
       3 -> 47         0.00176
       3 -> 51         0.00062
       3 -> 54         0.00028
       4 -> 10         0.02019
       4 -> 11         0.01034
       4 -> 14         0.01216
       4 -> 16        -0.00714
       4 -> 17         0.00338
       4 -> 20         0.00779
       4 -> 21         0.00029
       4 -> 24        -0.00630
       4 -> 26         0.00585
       4 -> 29         0.00114
       4 -> 32        -0.00122
       4 -> 34        -0.00254
       4 -> 36        -0.00022
       4 -> 39        -0.00019
       4 -> 41         0.00014
       4 -> 43        -0.00026
       4 -> 47        -0.00167
       4 -> 51        -0.00024
       5 -> 12         0.02381
       5 -> 15         0.01997
       5 -> 19         0.00170
       5 -> 22         0.00573
       5 -> 25         0.01090
       5 -> 30        -0.00141
       5 -> 33        -0.00334
       5 -> 35         0.00243
       5 -> 40         0.00162
       5 -> 42         0.00064
       5 -> 49         0.00059
       5 -> 50        -0.00056
       5 -> 53        -0.00023
       6 -> 10        -0.06277
       6 -> 11         0.09382
       6 -> 14        -0.05939
       6 -> 16        -0.11914
       6 -> 17        -0.01849
       6 -> 20        -0.02234
       6 -> 21         0.02141
       6 -> 24        -0.01953
       6 -> 26        -0.00995
       6 -> 29        -0.00969
       6 -> 34         0.00216
       6 -> 36        -0.00153
       6 -> 39         0.00048
       6 -> 41        -0.00069
       6 -> 43         0.00063
       6 -> 47         0.00174
       6 -> 51         0.00083
       6 -> 54        -0.00043
       7 ->  9         0.68615
       7 -> 13         0.01045
       7 -> 18        -0.02371
       7 -> 23         0.00314
       7 -> 28        -0.00345
       7 -> 31        -0.00247
       7 -> 37         0.00046
       7 -> 44        -0.00102
       7 -> 48         0.00057
       7 -> 52         0.00102
       8 -> 12        -0.00330
       8 -> 15         0.09998
       8 -> 19        -0.02662
       8 -> 22        -0.03767
       8 -> 25         0.00179
       8 -> 30        -0.01423
       8 -> 33         0.00383
       8 -> 35        -0.00484
       8 -> 40        -0.00212
       8 -> 42        -0.00034
       8 -> 49         0.00070
       8 -> 50         0.00031
       8 -> 53        -0.00087
       3 <- 10         0.00518
       3 <- 11        -0.01057
       3 <- 14         0.00800
       3 <- 16         0.01256
       3 <- 17        -0.00213
       3 <- 20        -0.00167
       3 <- 21        -0.00298
       3 <- 24         0.00284
       3 <- 26         0.00387
       3 <- 29        -0.00014
       3 <- 32         0.00259
       3 <- 34         0.00238
       3 <- 36         0.00022
       3 <- 39         0.00090
       3 <- 41         0.00012
       3 <- 43         0.00052
       3 <- 45         0.00112
       3 <- 47         0.00200
       3 <- 51         0.00060
       3 <- 54         0.00035
       4 <- 10         0.00925
       4 <- 11         0.00571
       4 <- 14         0.00569
       4 <- 16        -0.00425
       4 <- 17         0.00151
       4 <- 20         0.00544
       4 <- 21         0.00028
       4 <- 24        -0.00397
       4 <- 26         0.00430
       4 <- 29         0.00025
       4 <- 32        -0.00158
       4 <- 34        -0.00218
       4 <- 39        -0.00024
       4 <- 43        -0.00026
       4 <- 45         0.00042
       4 <- 47        -0.00136
       5 <- 12         0.00861
       5 <- 15         0.00867
       5 <- 19         0.00109
       5 <- 22         0.00319
       5 <- 25         0.00672
       5 <- 30        -0.00079
       5 <- 33        -0.00247
       5 <- 35         0.00193
       5 <- 40         0.00137
       5 <- 42         0.00050
       5 <- 49         0.00051
       5 <- 50        -0.00050
       5 <- 53        -0.00020
       6 <- 10        -0.01540
       6 <- 11         0.02473
       6 <- 14        -0.02025
       6 <- 16        -0.04548
       6 <- 17        -0.00767
       6 <- 20        -0.01141
       6 <- 21         0.01119
       6 <- 24        -0.01109
       6 <- 26        -0.00585
       6 <- 29        -0.00628
       6 <- 32         0.00050
       6 <- 34         0.00229
       6 <- 36        -0.00113
       6 <- 39         0.00062
       6 <- 41        -0.00046
       6 <- 43         0.00055
       6 <- 45        -0.00032
       6 <- 47         0.00128
       6 <- 51         0.00063
       6 <- 54        -0.00034
       7 <-  9        -0.11342
       7 <- 13         0.01012
       7 <- 18        -0.01470
       7 <- 23         0.00552
       7 <- 28        -0.00515
       7 <- 31        -0.00089
       7 <- 44        -0.00051
       7 <- 52         0.00087
       8 <- 12        -0.00049
       8 <- 15         0.02682
       8 <- 19        -0.00903
       8 <- 22        -0.01769
       8 <- 25         0.00057
       8 <- 30        -0.00951
       8 <- 33         0.00271
       8 <- 35        -0.00352
       8 <- 40        -0.00167
       8 <- 42        -0.00027
       8 <- 49         0.00048
       8 <- 50         0.00024
       8 <- 53        -0.00078

 Excited State   3:      Singlet-B1     6.3447 eV  195.41 nm  f=0.0015  <S**2>=0.000
       3 ->  9        -0.03172
       3 -> 13         0.00258
       3 -> 18        -0.00554
       3 -> 23         0.00242
       3 -> 28        -0.00140
       3 -> 31        -0.00050
       3 -> 44         0.00035
       3 -> 48         0.00074
       3 -> 52         0.00105
       4 ->  9         0.01508
       4 -> 13        -0.00271
       4 -> 18         0.00050
       4 -> 23        -0.00248
       4 -> 28         0.00019
       4 -> 31        -0.00179
       4 -> 37        -0.00045
       4 -> 48        -0.00133
       4 -> 52        -0.00075
       5 -> 27        -0.00073
       5 -> 38         0.00198
       5 -> 46         0.00145
       6 ->  9         0.70601
       6 -> 13        -0.02356
       6 -> 18         0.01875
       6 -> 23        -0.01156
       6 -> 28         0.00528
       6 -> 31         0.00377
       6 -> 37        -0.00243
       6 -> 44        -0.00325
       6 -> 48         0.00467
       6 -> 52         0.00166
       7 -> 10        -0.00782
       7 -> 11         0.01065
       7 -> 14        -0.00675
       7 -> 16        -0.00706
       7 -> 17        -0.01001
       7 -> 20         0.00226
       7 -> 21        -0.00089
       7 -> 24         0.00022
       7 -> 26        -0.00074
       7 -> 29        -0.00433
       7 -> 32        -0.00100
       7 -> 36         0.00179
       7 -> 39         0.00012
       7 -> 41        -0.00101
       7 -> 43         0.00070
       7 -> 45         0.00285
       7 -> 47         0.00384
       7 -> 51         0.00115
       7 -> 54         0.00053
       8 -> 27         0.00112
       8 -> 38         0.00034
       8 -> 46         0.00602
       3 <-  9        -0.01038
       3 <- 13        -0.00024
       3 <- 18        -0.00316
       3 <- 23        -0.00029
       3 <- 28        -0.00093
       3 <- 31        -0.00056
       3 <- 44        -0.00026
       3 <- 48         0.00096
       3 <- 52         0.00084
       4 <-  9         0.00648
       4 <- 18         0.00224
       4 <- 23        -0.00040
       4 <- 28         0.00196
       4 <- 31        -0.00133
       4 <- 37        -0.00013
       4 <- 44         0.00017
       4 <- 48        -0.00115
       4 <- 52        -0.00042
       5 <- 27        -0.00113
       5 <- 38         0.00156
       5 <- 46         0.00129
       6 <-  9        -0.02298
       6 <- 13         0.00189
       6 <- 18        -0.00304
       6 <- 23        -0.00018
       6 <- 28        -0.00303
       6 <- 31         0.00187
       6 <- 37        -0.00221
       6 <- 44        -0.00192
       6 <- 48         0.00416
       6 <- 52         0.00061
       7 <- 10         0.00528
       7 <- 11        -0.00824
       7 <- 14         0.00649
       7 <- 16         0.01695
       7 <- 17         0.00015
       7 <- 20         0.00599
       7 <- 21        -0.00537
       7 <- 24         0.00497
       7 <- 26         0.00222
       7 <- 29         0.00069
       7 <- 32        -0.00073
       7 <- 34        -0.00074
       7 <- 36         0.00283
       7 <- 39         0.00038
       7 <- 41        -0.00060
       7 <- 43         0.00061
       7 <- 45         0.00271
       7 <- 47         0.00338
       7 <- 51         0.00090
       7 <- 54         0.00109
       8 <- 27         0.00144
       8 <- 38         0.00049
       8 <- 46         0.00551

 Excited State   4:      Singlet-B2     6.8483 eV  181.04 nm  f=0.0153  <S**2>=0.000
       3 -> 12         0.00187
       3 -> 15        -0.00040
       3 -> 19         0.00258
       3 -> 22        -0.00029
       3 -> 25         0.00066
       3 -> 30         0.00134
       3 -> 33         0.00037
       3 -> 35        -0.00127
       3 -> 40        -0.00090
       3 -> 42        -0.00012
       3 -> 49         0.00106
       3 -> 50        -0.00015
       3 -> 53        -0.00018
       4 -> 12        -0.00114
       4 -> 15         0.00265
       4 -> 19         0.00116
       4 -> 22        -0.00340
       4 -> 25         0.00289
       4 -> 30        -0.00040
       4 -> 33         0.00020
       4 -> 35        -0.00012
       4 -> 40         0.00045
       4 -> 42        -0.00011
       4 -> 49        -0.00016
       5 -> 10        -0.00593
       5 -> 11        -0.00067
       5 -> 14         0.01203
       5 -> 16         0.00469
       5 -> 17        -0.00159
       5 -> 20        -0.00013
       5 -> 21        -0.00607
       5 -> 24        -0.00160
       5 -> 26         0.00196
       5 -> 29         0.00139
       5 -> 32        -0.00038
       5 -> 34         0.00116
       5 -> 36         0.00050
       5 -> 39         0.00032
       5 -> 41        -0.00076
       5 -> 43        -0.00019
       5 -> 45         0.00021
       5 -> 47         0.00039
       5 -> 51        -0.00025
       5 -> 54         0.00016
       6 -> 12        -0.00302
       6 -> 15         0.00098
       6 -> 19        -0.00095
       6 -> 22        -0.00110
       6 -> 25         0.00070
       6 -> 33        -0.00046
       6 -> 35         0.00160
       6 -> 40         0.00092
       6 -> 49        -0.00043
       6 -> 53         0.00014
       7 -> 27         0.00020
       7 -> 38        -0.00096
       7 -> 46        -0.00153
       8 -> 10         0.69838
       8 -> 11        -0.08018
       8 -> 14         0.05539
       8 -> 16         0.04920
       8 -> 17         0.00134
       8 -> 20         0.01161
       8 -> 21        -0.00055
       8 -> 24         0.00214
       8 -> 26         0.00458
       8 -> 29         0.00443
       8 -> 32         0.00113
       8 -> 34         0.00036
       8 -> 36         0.00032
       8 -> 39         0.00032
       8 -> 41        -0.00047
       8 -> 43         0.00066
       8 -> 45         0.00142
       8 -> 47         0.00118
       8 -> 51        -0.00104
       8 -> 54         0.00062
       3 <- 12         0.00049
       3 <- 15         0.00014
       3 <- 19         0.00114
       3 <- 22        -0.00072
       3 <- 25         0.00028
       3 <- 30         0.00046
       3 <- 33         0.00033
       3 <- 35        -0.00106
       3 <- 40        -0.00083
       3 <- 49         0.00111
       3 <- 50        -0.00012
       3 <- 53        -0.00039
       4 <- 12         0.00068
       4 <- 15         0.00229
       4 <- 19         0.00114
       4 <- 22        -0.00245
       4 <- 25         0.00183
       4 <- 30        -0.00033
       4 <- 33         0.00030
       4 <- 35        -0.00031
       4 <- 40         0.00011
       4 <- 42        -0.00020
       4 <- 49        -0.00012
       5 <- 10         0.00195
       5 <- 11         0.00069
       5 <- 14         0.00428
       5 <- 16        -0.00144
       5 <- 17        -0.00028
       5 <- 21        -0.00155
       5 <- 24        -0.00267
       5 <- 26         0.00108
       5 <- 29         0.00031
       5 <- 32        -0.00074
       5 <- 34         0.00065
       5 <- 36         0.00013
       5 <- 41        -0.00065
       5 <- 43        -0.00023
       5 <- 45         0.00033
       5 <- 47         0.00015
       5 <- 51        -0.00011
       6 <- 12        -0.00028
       6 <- 15        -0.00213
       6 <- 19         0.00118
       6 <- 22         0.00125
       6 <- 25         0.00024
       6 <- 30         0.00189
       6 <- 33        -0.00057
       6 <- 35         0.00156
       6 <- 40         0.00086
       6 <- 49        -0.00047
       6 <- 50        -0.00011
       6 <- 53         0.00045
       7 <- 27         0.00025
       7 <- 38        -0.00072
       7 <- 46        -0.00122
       8 <- 10        -0.00297
       8 <- 11         0.00441
       8 <- 14        -0.00556
       8 <- 16        -0.00439
       8 <- 17        -0.00032
       8 <- 20         0.00032
       8 <- 21         0.00180
       8 <- 24         0.00024
       8 <- 26        -0.00147
       8 <- 29         0.00025
       8 <- 32        -0.00034
       8 <- 34        -0.00046
       8 <- 36        -0.00040
       8 <- 39        -0.00052
       8 <- 41        -0.00036
       8 <- 43         0.00018
       8 <- 45         0.00152
       8 <- 47         0.00054
       8 <- 51        -0.00053
       8 <- 54         0.00016

 Excited State   5:      Singlet-B2     7.3119 eV  169.56 nm  f=0.0175  <S**2>=0.000
       3 -> 12         0.00065
       3 -> 15         0.00199
       3 -> 19        -0.00219
       3 -> 22        -0.00048
       3 -> 25         0.00071
       3 -> 30        -0.00358
       3 -> 33        -0.00014
       3 -> 35         0.00123
       3 -> 40         0.00100
       3 -> 49        -0.00129
       3 -> 50         0.00014
       4 -> 12        -0.00166
       4 -> 15        -0.00076
       4 -> 19         0.00017
       4 -> 22         0.00091
       4 -> 25        -0.00117
       4 -> 30         0.00187
       4 -> 33        -0.00045
       4 -> 35         0.00065
       4 -> 40        -0.00011
       4 -> 50        -0.00013
       5 -> 10        -0.00495
       5 -> 11         0.00189
       5 -> 14        -0.00883
       5 -> 16         0.00404
       5 -> 17         0.00325
       5 -> 20         0.00327
       5 -> 21         0.00349
       5 -> 24         0.00045
       5 -> 26        -0.00163
       5 -> 29        -0.00133
       5 -> 32        -0.00130
       5 -> 34        -0.00036
       5 -> 36        -0.00076
       5 -> 39        -0.00088
       5 -> 41         0.00036
       5 -> 43        -0.00036
       5 -> 45        -0.00076
       5 -> 47        -0.00058
       5 -> 51         0.00051
       6 -> 12         0.00117
       6 -> 19         0.00117
       6 -> 22        -0.00099
       6 -> 30        -0.00128
       6 -> 33         0.00034
       6 -> 35        -0.00130
       6 -> 40        -0.00141
       6 -> 42        -0.00023
       6 -> 49         0.00179
       6 -> 50        -0.00015
       6 -> 53        -0.00019
       7 -> 27        -0.00077
       7 -> 38         0.00041
       7 -> 46         0.00298
       8 -> 10         0.08734
       8 -> 11         0.69707
       8 -> 14        -0.03003
       8 -> 16        -0.07267
       8 -> 17        -0.00513
       8 -> 20         0.01342
       8 -> 21         0.00315
       8 -> 24        -0.00439
       8 -> 26        -0.00075
       8 -> 29        -0.00533
       8 -> 32        -0.00058
       8 -> 34        -0.00077
       8 -> 36        -0.00105
       8 -> 39         0.00013
       8 -> 41         0.00049
       8 -> 43        -0.00022
       8 -> 45        -0.00331

 The electronic state is 1-A1.
 Alpha  occ. eigenvalues --  -19.16717 -10.31575  -0.96028  -0.68363  -0.48845
 Alpha  occ. eigenvalues --   -0.43035  -0.34874  -0.29007
 Alpha virt. eigenvalues --   -0.12585  -0.00216   0.02590   0.04126   0.06169
 Alpha virt. eigenvalues --    0.11165   0.15263   0.16179   0.18955   0.21617
 Alpha virt. eigenvalues --    0.23863   0.30059   0.39976   0.42358   0.50979

 Mulliken charges:
               1
     1  C   -0.037977
     2  H    0.165856
     3  H    0.165856
     4  O   -0.293735
 Sum of Mulliken charges =   0.00000

 Dipole moment (field-independent basis, Debye):
    X=             -0.0000    Y=              0.0000    Z=             -3.4692  Tot=              3.4692
 Quadrupole moment (field-independent basis, Debye-Ang):
   XX=            -12.4909   YY=            -11.8087   ZZ=            -11.6656
   XY=              0.0000   XZ=              0.0000   YZ=              0.0000

 Normal termination of Gaussian 16 at Fri Sep 17 10:52:54 2021.
