 Gaussian 16, Revision C.01,
 Gaussian 16:  ES64L-G16RevC.01  3-Jul-2019

 ----------------------------------------
 #P wB97XD/6-311+G* NoSymm #P Field=X+243
 ----------------------------------------

 -------
 TitleMe
 -------
 Symbolic Z-matrix:
 Charge =  1 Multiplicity = 1

                          Input orientation:
 ---------------------------------------------------------------------
 Center     Atomic      Atomic             Coordinates (Angstroms)
 Number     Number       Type             X           Y           Z
 ---------------------------------------------------------------------
      1          6           0        0.029500    1.339700    0.068200
      2          6           0        1.434800    1.286700    0.006400
      3          6           0        2.111800    0.051100   -0.005400
      4          6           0        1.445100   -1.137200    0.031200
      5          6           0       -0.687900    0.168200    0.110000
      6          1           0       -0.471300    2.298400    0.078100
      7          1           0        2.027300    2.196500   -0.032200
      8          1           0        1.989700   -2.076400    0.023200
      9          1           0       -1.771600    0.180400    0.158200
     10          7           0        3.586400    0.051000   -0.067500
     11          8           0        4.147100   -1.059700   -0.088100
     12          8           0        4.145000    1.163900   -0.090100
     13          6           0       -0.023600   -1.145800    0.083500
     14          1           0       -0.436700   -1.872500    0.788900
     15         35           0       -0.535900   -1.869700   -1.740800
 ---------------------------------------------------------------------

 SCF Done:  E(RwB97XD) =  -3010.57864337     A.U. after   21 cycles

 Alpha  occ. eigenvalues -- -483.33238 -62.88216 -56.67943 -56.67333 -56.67316
 Alpha  occ. eigenvalues --  -19.58094 -19.58001 -14.97172 -10.63136 -10.62063
 Alpha  occ. eigenvalues --  -10.61341 -10.60436 -10.59361 -10.55507  -9.03986
 Alpha  occ. eigenvalues --   -6.86750  -6.84759  -6.84701  -2.96632  -2.96117
 Alpha  occ. eigenvalues --   -2.96070  -2.94478  -2.94477  -1.61797  -1.44907
 Alpha  occ. eigenvalues --   -1.27183  -1.18954  -1.15315  -1.08448  -1.06381
 Alpha  occ. eigenvalues --   -0.99013  -0.96774  -0.93606  -0.91583  -0.90150
 Alpha  occ. eigenvalues --   -0.86157  -0.83261  -0.81194  -0.79546  -0.75841
 Alpha  occ. eigenvalues --   -0.72116  -0.70815  -0.69430  -0.69136  -0.68167
 Alpha  occ. eigenvalues --   -0.67319  -0.63108  -0.57630  -0.57170
 Alpha virt. eigenvalues --   -0.32716  -0.31527  -0.19343  -0.18998  -0.17033
 Alpha virt. eigenvalues --   -0.15088  -0.13699  -0.12418  -0.11491  -0.09432
 Alpha virt. eigenvalues --   -0.07905  -0.07220  -0.06056  -0.05640  -0.04775

 Mulliken charges:
               1
     1  C   -0.629419
     2  C    0.579951
     3  C   -0.748216
     4  C    0.131139
     5  C    0.092489
     6  H    0.384179
     7  H    0.321444
     8  H    0.339510
     9  H    0.451186
    10  N   -0.108511
    11  O   -0.078849
    12  O   -0.081777
    13  C   -0.417986
    14  H    0.445011
    15  Br   0.319850
 Sum of Mulliken charges =   1.00000

 Dipole moment (field-independent basis, Debye):
    X=             -8.3685    Y=             -1.4813    Z=             -0.6628  Tot=              8.5244
 Quadrupole moment (field-independent basis, Debye-Ang):
   XX=            -90.0584   YY=            -51.2484   ZZ=            -60.8750
   XY=              2.3778   XZ=              3.0439   YZ=              3.4554

 Normal termination of Gaussian 16 at Wed May  1 14:49:35 2024.
