 Gaussian 16, Revision A.03,
 Gaussian 16:  ES64L-G16RevA.03 25-Dec-2016

 --------------------------------------------------------------------
 #p B3LYP/6-311+G** #p TD=(singlets,nstates=30)IOp(6/8=3) IOp(9/40=4)
 --------------------------------------------------------------------

 --------------------------------
 Scan Step 135, Bond Length 1.175
 --------------------------------
 Symbolic Z-matrix:
 Charge =  0 Multiplicity = 1

                         Standard orientation:
 ---------------------------------------------------------------------
 Center     Atomic      Atomic             Coordinates (Angstroms)
 Number     Number       Type             X           Y           Z
 ---------------------------------------------------------------------
      1          6           0        0.000000    0.000000   -0.513581
      2          1           0        0.000000    0.937260   -1.104931
      3          1           0       -0.000000   -0.937260   -1.104931
      4          8           0        0.000000   -0.000000    0.661419
 ---------------------------------------------------------------------

 SCF Done:  E(RB3LYP) =  -114.540586419     A.U. after    9 cycles

 Excitation energies and oscillator strengths:

 Excited State   1:      Singlet-A2     4.1200 eV  300.93 nm  f=0.0000  <S**2>=0.000
       3 -> 27         0.00259
       3 -> 38         0.00220
       3 -> 45         0.00236
       4 -> 27         0.00209
       4 -> 38        -0.00060
       4 -> 45        -0.00125
       5 ->  9         0.02128
       5 -> 13        -0.00406
       5 -> 17         0.00583
       5 -> 23        -0.00065
       5 -> 29         0.00430
       5 -> 31         0.00255
       5 -> 37         0.00361
       5 -> 44         0.00065
       5 -> 47         0.00014
       5 -> 52         0.00080
       6 -> 38        -0.00080
       6 -> 45         0.00177
       7 -> 12        -0.00062
       7 -> 15         0.00258
       7 -> 18        -0.00260
       7 -> 22         0.00090
       7 -> 25         0.00141
       7 -> 30        -0.00087
       7 -> 33         0.00042
       7 -> 35        -0.00032
       7 -> 40        -0.00029
       7 -> 49         0.00042
       7 -> 50         0.00030
       7 -> 53         0.00045
       8 ->  9         0.70488
       8 -> 13        -0.04987
       8 -> 17         0.02343
       8 -> 23        -0.01089
       8 -> 29         0.00859
       8 -> 31         0.00291
       8 -> 37        -0.00038
       8 -> 44        -0.00015
       8 -> 47        -0.00024
       8 -> 52         0.00161
       3 <- 27         0.00171
       3 <- 38         0.00184
       3 <- 45         0.00245
       4 <- 27         0.00291
       4 <- 45        -0.00107
       5 <-  9        -0.00031
       5 <- 13        -0.00085
       5 <- 17        -0.00094
       5 <- 23         0.00055
       5 <- 29        -0.00063
       5 <- 31        -0.00096
       5 <- 37         0.00169
       5 <- 44         0.00028
       5 <- 47         0.00017
       5 <- 52         0.00021
       6 <- 27         0.00054
       6 <- 38        -0.00072
       6 <- 45         0.00138
       7 <- 12        -0.00085
       7 <- 15        -0.00679
       7 <- 18        -0.00010
       7 <- 22         0.00719
       7 <- 25        -0.00028
       7 <- 30         0.00315
       7 <- 33        -0.00134
       7 <- 35        -0.00247
       7 <- 40        -0.00101
       7 <- 42         0.00014
       7 <- 49         0.00023
       7 <- 50         0.00019
       7 <- 53         0.00124
       8 <-  9        -0.02238
       8 <- 13         0.00350
       8 <- 17        -0.00417
       8 <- 23         0.00080
       8 <- 29        -0.00083
       8 <- 31         0.00103
       8 <- 37        -0.00159
       8 <- 52         0.00047
 This state for optimization and/or second-order correction.
 Total Energy, E(TD-HF/TD-DFT) =  -114.389180159
 Copying the excited state density for this state as the 1-particle RhoCI density.

 Excited State   2:      Singlet-B2     6.8129 eV  181.99 nm  f=0.0353  <S**2>=0.000
       3 -> 12         0.00142
       3 -> 15         0.00071
       3 -> 18         0.00115
       3 -> 22        -0.00030
       3 -> 25         0.00130
       3 -> 30        -0.00010
       3 -> 33         0.00017
       3 -> 35         0.00036
       4 -> 12        -0.00349
       4 -> 15         0.00168
       4 -> 18         0.00217
       4 -> 22        -0.00335
       4 -> 25         0.00349
       4 -> 30         0.00023
       4 -> 33        -0.00059
       4 -> 35        -0.00067
       4 -> 40        -0.00048
       5 -> 10        -0.00575
       5 -> 11        -0.00907
       5 -> 14         0.00699
       5 -> 16        -0.00096
       5 -> 19         0.00124
       5 -> 20         0.00164
       5 -> 21         0.00559
       5 -> 26         0.00261
       5 -> 28         0.00141
       5 -> 32         0.00072
       5 -> 34        -0.00102
       5 -> 36        -0.00023
       5 -> 39        -0.00031
       5 -> 41        -0.00028
       5 -> 43        -0.00056
       5 -> 46        -0.00040
       5 -> 54         0.00011
       6 -> 12         0.00039
       6 -> 15         0.00148
       6 -> 18         0.00251
       6 -> 22        -0.00263
       6 -> 25         0.00131
       6 -> 30        -0.00048
       6 -> 33        -0.00019
       6 -> 35        -0.00028
       6 -> 40         0.00018
       6 -> 42        -0.00021
       6 -> 49         0.00045
       6 -> 50        -0.00038
       7 -> 27         0.00025
       7 -> 38        -0.00049
       7 -> 45         0.00051
       8 -> 10         0.70348
       8 -> 11        -0.06645
       8 -> 14         0.01062
       8 -> 16        -0.00714
       8 -> 19         0.01354
       8 -> 20         0.01320
       8 -> 21        -0.00347
       8 -> 24         0.00035
       8 -> 26         0.00216
       8 -> 28         0.00067
       8 -> 32        -0.00090
       8 -> 34         0.00157
       8 -> 36         0.00043
       8 -> 39         0.00042
       8 -> 41        -0.00017
       8 -> 43         0.00064
       8 -> 46        -0.00070
       8 -> 48        -0.00013
       8 -> 54         0.00018
       3 <- 12         0.00036
       3 <- 15         0.00054
       3 <- 18         0.00045
       3 <- 22        -0.00042
       3 <- 25         0.00079
       3 <- 30        -0.00011
       3 <- 33         0.00014
       3 <- 35         0.00033
       4 <- 12         0.00071
       4 <- 15         0.00185
       4 <- 18         0.00212
       4 <- 22        -0.00205
       4 <- 25         0.00242
       4 <- 30         0.00018
       4 <- 33        -0.00036
       4 <- 35        -0.00040
       4 <- 40        -0.00016
       4 <- 42        -0.00022
       4 <- 49        -0.00010
       4 <- 50        -0.00011
       5 <- 10         0.00243
       5 <- 11        -0.00025
       5 <- 14         0.00492
       5 <- 16        -0.00085
       5 <- 19         0.00027
       5 <- 20         0.00071
       5 <- 21         0.00223
       5 <- 24         0.00180
       5 <- 26         0.00157
       5 <- 28         0.00025
       5 <- 32         0.00046
       5 <- 34        -0.00100
       5 <- 36        -0.00030
       5 <- 39        -0.00017
       5 <- 43        -0.00041
       5 <- 46        -0.00035
       6 <- 12         0.00017
       6 <- 18         0.00131
       6 <- 22        -0.00080
       6 <- 25         0.00046
       6 <- 30         0.00030
       6 <- 33        -0.00026
       6 <- 35        -0.00040
       6 <- 40         0.00017
       6 <- 42        -0.00020
       6 <- 49         0.00038
       6 <- 50        -0.00039
       6 <- 53         0.00013
       7 <- 27         0.00021
       7 <- 38        -0.00037
       7 <- 45         0.00045
       8 <- 10        -0.00199
       8 <- 11        -0.00054
       8 <- 14        -0.00615
       8 <- 16        -0.00028
       8 <- 19        -0.00025
       8 <- 20        -0.00050
       8 <- 21        -0.00219
       8 <- 24        -0.00247
       8 <- 26        -0.00053
       8 <- 28        -0.00063
       8 <- 32        -0.00111
       8 <- 34         0.00055
       8 <- 36         0.00040
       8 <- 39         0.00034
       8 <- 43         0.00045
       8 <- 46        -0.00046

 Excited State   3:      Singlet-B2     7.6038 eV  163.06 nm  f=0.0243  <S**2>=0.000
       3 -> 12        -0.00028
       3 -> 15        -0.00074
       3 -> 18         0.00077
       3 -> 22         0.00037
       3 -> 25         0.00020
       3 -> 30         0.00197
       3 -> 33         0.00013
       3 -> 35         0.00043
       3 -> 40         0.00040
       3 -> 49         0.00040
       3 -> 50        -0.00024
       4 -> 12         0.00285
       4 -> 15        -0.00014
       4 -> 18         0.00264
       4 -> 22        -0.00151
       4 -> 25         0.00308
       4 -> 30        -0.00119
       4 -> 33         0.00051
       4 -> 35         0.00051
       4 -> 42        -0.00015
       4 -> 49         0.00023
       5 -> 10        -0.00746
       5 -> 14         0.00792
       5 -> 16        -0.00711
       5 -> 19        -0.00283
       5 -> 20        -0.00420
       5 -> 21         0.00128
       5 -> 24         0.00124
       5 -> 26         0.00064
       5 -> 28         0.00163
       5 -> 32         0.00015
       5 -> 34        -0.00128
       5 -> 36        -0.00021
       5 -> 39         0.00040
       5 -> 41        -0.00077
       5 -> 43         0.00011
       5 -> 46         0.00087
       5 -> 51        -0.00042
       6 -> 12        -0.00315
       6 -> 15        -0.00184
       6 -> 18        -0.00101
       6 -> 22         0.00135
       6 -> 25         0.00014
       6 -> 30         0.00090
       6 -> 33        -0.00052
       6 -> 35        -0.00149
       6 -> 40        -0.00101
       6 -> 49        -0.00104
       6 -> 50         0.00052
       6 -> 53         0.00011
       7 -> 27        -0.00012
       7 -> 38        -0.00098
       7 -> 45        -0.00168
       8 -> 10         0.06695
       8 -> 11         0.70302
       8 -> 14        -0.00765
       8 -> 16         0.01206
       8 -> 19        -0.02838
       8 -> 20         0.00843
       8 -> 21        -0.00266
       8 -> 24         0.00054
       8 -> 26        -0.00150
       8 -> 28         0.00068
       8 -> 32        -0.00028
       8 -> 34        -0.00016
       8 -> 39        -0.00018
       8 -> 41        -0.00127
       8 -> 43         0.00027
       8 -> 46         0.00176
       8 -> 51        -0.00093
       8 -> 54        -0.00013
       3 <- 12         0.00034
       3 <- 15        -0.00024
       3 <- 18         0.00087
       3 <- 25         0.00033
       3 <- 30         0.00113
       3 <- 33         0.00023
       3 <- 35         0.00048
       3 <- 40         0.00037
       3 <- 49         0.00034
       3 <- 50        -0.00016
       3 <- 53        -0.00027
       4 <- 12         0.00034
       4 <- 15         0.00070
       4 <- 18         0.00066
       4 <- 22        -0.00115
       4 <- 25         0.00128
       4 <- 30        -0.00056
       4 <- 33         0.00047
       4 <- 35         0.00016
       4 <- 42        -0.00015
       4 <- 49         0.00017
       4 <- 50        -0.00014
       5 <- 10         0.00127
       5 <- 11        -0.00110
       5 <- 14         0.00251
       5 <- 16        -0.00044
       5 <- 19         0.00099
       5 <- 20        -0.00041
       5 <- 21         0.00077
       5 <- 24         0.00131
       5 <- 26        -0.00017
       5 <- 28         0.00074
       5 <- 32         0.00106
       5 <- 34        -0.00030
       5 <- 36         0.00017
       5 <- 39         0.00012
       5 <- 41        -0.00080
       5 <- 46         0.00080
       5 <- 48         0.00013
       5 <- 51        -0.00032
       6 <- 12        -0.00032
       6 <- 15        -0.00060
       6 <- 22         0.00065
       6 <- 30         0.00061
       6 <- 33        -0.00036
       6 <- 35        -0.00119
       6 <- 40        -0.00076
       6 <- 49        -0.00085
       6 <- 50         0.00042
       7 <- 27         0.00014
       7 <- 38        -0.00078
       7 <- 45        -0.00141
       8 <- 10        -0.00069
       8 <- 11        -0.00058
       8 <- 14        -0.00381
       8 <- 16         0.00048
       8 <- 19         0.00388
       8 <- 20        -0.00112
       8 <- 21        -0.00204
       8 <- 24         0.00032
       8 <- 26        -0.00168
       8 <- 28         0.00017
       8 <- 32         0.00113
       8 <- 34         0.00121
       8 <- 39        -0.00049
       8 <- 41        -0.00111
       8 <- 43         0.00014
       8 <- 46         0.00140
       8 <- 48         0.00019
       8 <- 51        -0.00064

 Excited State   4:      Singlet-A1     7.7867 eV  159.23 nm  f=0.0507  <S**2>=0.000
       3 -> 10         0.00189
       3 -> 11        -0.00089
       3 -> 14         0.00085
       3 -> 16        -0.00018
       3 -> 20         0.00177
       3 -> 21         0.00077
       3 -> 24        -0.00061
       3 -> 26         0.00117
       3 -> 28         0.00098
       3 -> 32        -0.00010
       3 -> 34        -0.00061
       3 -> 36        -0.00021
       3 -> 41        -0.00021
       3 -> 46         0.00013
       3 -> 48         0.00030
       3 -> 51        -0.00023
       3 -> 54        -0.00020
       4 -> 10         0.00491
       4 -> 11         0.00604
       4 -> 14         0.00499
       4 -> 16         0.00035
       4 -> 19         0.00029
       4 -> 20         0.00420
       4 -> 21         0.00093
       4 -> 24         0.00716
       4 -> 26         0.00159
       4 -> 28        -0.00040
       4 -> 32         0.00064
       4 -> 34        -0.00011
       4 -> 41         0.00010
       4 -> 43         0.00016
       4 -> 46        -0.00021
       4 -> 51        -0.00015
       5 -> 12         0.00649
       5 -> 15         0.00203
       5 -> 18         0.01067
       5 -> 22        -0.00211
       5 -> 25         0.00534
       5 -> 30        -0.00013
       5 -> 33        -0.00016
       5 -> 35        -0.00077
       5 -> 50         0.00025
       5 -> 53        -0.00014
       6 -> 10         0.01241
       6 -> 11        -0.00279
       6 -> 14         0.00441
       6 -> 16         0.00102
       6 -> 19         0.00260
       6 -> 20         0.00412
       6 -> 21         0.00084
       6 -> 24         0.00346
       6 -> 28        -0.00177
       6 -> 32         0.00048
       6 -> 43         0.00013
       6 -> 48        -0.00065
       6 -> 51         0.00022
       6 -> 54        -0.00010
       7 ->  9         0.01776
       7 -> 13         0.01019
       7 -> 17         0.00279
       7 -> 23         0.00524
       7 -> 29        -0.00049
       7 -> 31         0.00089
       7 -> 37         0.00058
       7 -> 44         0.00065
       7 -> 47        -0.00034
       7 -> 52        -0.00011
       8 -> 12         0.70576
       8 -> 15        -0.00940
       8 -> 18         0.03017
       8 -> 22         0.00447
       8 -> 25         0.00355
       8 -> 30         0.00032
       8 -> 33         0.00157
       8 -> 35         0.00199
       8 -> 40        -0.00062
       8 -> 42         0.00023
       8 -> 49        -0.00042
       8 -> 50         0.00029
       8 -> 53        -0.00023
       3 <- 10         0.00061
       3 <- 14         0.00046
       3 <- 19        -0.00014
       3 <- 20         0.00081
       3 <- 21         0.00055
       3 <- 26         0.00075
       3 <- 28         0.00065
       3 <- 32        -0.00020
       3 <- 34        -0.00041
       3 <- 36        -0.00016
       3 <- 41        -0.00015
       3 <- 46         0.00022
       3 <- 48         0.00024
       3 <- 51        -0.00020
       3 <- 54        -0.00018
       4 <- 10         0.00433
       4 <- 11         0.00144
       4 <- 14         0.00368
       4 <- 16        -0.00021
       4 <- 19         0.00015
       4 <- 20         0.00241
       4 <- 21         0.00029
       4 <- 24         0.00391
       4 <- 26         0.00101
       4 <- 32         0.00075
       4 <- 34        -0.00052
       4 <- 39        -0.00017
       4 <- 43         0.00011
       4 <- 46        -0.00018
       4 <- 51        -0.00014
       5 <- 12         0.00274
       5 <- 15         0.00248
       5 <- 18         0.00374
       5 <- 22        -0.00073
       5 <- 25         0.00289
       5 <- 30        -0.00014
       5 <- 33        -0.00034
       5 <- 35        -0.00071
       5 <- 50         0.00015
       5 <- 53        -0.00012
       6 <- 10         0.00311
       6 <- 11        -0.00013
       6 <- 14         0.00172
       6 <- 16         0.00030
       6 <- 19         0.00075
       6 <- 20         0.00194
       6 <- 21         0.00020
       6 <- 24         0.00171
       6 <- 26         0.00025
       6 <- 28        -0.00113
       6 <- 32         0.00044
       6 <- 34        -0.00013
       6 <- 41         0.00013
       6 <- 46        -0.00012
       6 <- 48        -0.00054
       6 <- 51         0.00025
       7 <-  9         0.00063
       7 <- 13         0.00234
       7 <- 17         0.00067
       7 <- 23         0.00265
       7 <- 29        -0.00041
       7 <- 31         0.00061
       7 <- 37         0.00045
       7 <- 44         0.00054
       7 <- 47        -0.00029
       7 <- 52        -0.00010
       8 <- 12        -0.00098
       8 <- 15        -0.00594
       8 <- 18        -0.00195
       8 <- 22         0.00074
       8 <- 25        -0.00179
       8 <- 30        -0.00053
       8 <- 33         0.00069
       8 <- 35         0.00089
       8 <- 40        -0.00060
       8 <- 42         0.00021
       8 <- 49        -0.00045
       8 <- 50         0.00021
       8 <- 53        -0.00023

 Excited State   5:      Singlet-A2     8.2907 eV  149.55 nm  f=0.0000  <S**2>=0.000
       3 -> 27        -0.00049
       3 -> 38        -0.00044
       3 -> 45        -0.00025
       4 -> 27         0.00020
       4 -> 38         0.00049
       5 ->  9        -0.00684
       5 -> 13        -0.00401
       5 -> 17         0.00652
       5 -> 23        -0.00191
       5 -> 29        -0.00012
       5 -> 31        -0.00151
       5 -> 37        -0.00099
       5 -> 44        -0.00020
       6 -> 27         0.00023
       6 -> 38         0.00029
       6 -> 45        -0.00025
       7 -> 12        -0.00035
       7 -> 15        -0.00186
       7 -> 18         0.00199
       7 -> 22        -0.00069
       7 -> 35         0.00014
       7 -> 40         0.00011
       8 ->  9         0.04960
       8 -> 13         0.70482
       8 -> 17         0.01880
       8 -> 23         0.01715
       8 -> 29         0.00019
       8 -> 31        -0.00153
       8 -> 37        -0.00031
       8 -> 47         0.00018
       8 -> 52        -0.00011
       3 <- 27        -0.00015
       3 <- 38        -0.00029
       3 <- 45        -0.00032
       4 <- 27        -0.00012
       5 <-  9        -0.00031
       5 <- 13        -0.00033
       5 <- 17         0.00054
       5 <- 37        -0.00021
       6 <- 38         0.00019
       7 <- 12        -0.00062
       7 <- 15        -0.00097
       7 <- 18         0.00073
       7 <- 22        -0.00099
       7 <- 25        -0.00041
       7 <- 30         0.00022
       7 <- 33         0.00039
       7 <- 35         0.00062
       7 <- 40         0.00037
       8 <-  9         0.00194
       8 <- 13         0.00135
       8 <- 17         0.00024
       8 <- 23        -0.00017
       8 <- 37         0.00014

 Excited State   6:      Singlet-B1     9.4224 eV  131.58 nm  f=0.0007  <S**2>=0.000
       3 ->  9        -0.03209
       3 -> 13         0.00673
       3 -> 17        -0.00754
       3 -> 23         0.00486
       3 -> 29        -0.00313
       3 -> 31        -0.00016
       3 -> 44         0.00075
       3 -> 47        -0.00011
       3 -> 52         0.00111
       4 ->  9         0.01692
       4 -> 13        -0.00284
       4 -> 17         0.00110
       4 -> 23        -0.00246
       4 -> 29        -0.00018
       4 -> 31         0.00294
       4 -> 37        -0.00027

 The electronic state is 1-A1.
 Alpha  occ. eigenvalues --  -19.14929 -10.27450  -1.09166  -0.64122  -0.51139
 Alpha  occ. eigenvalues --   -0.46881  -0.42315  -0.27987
 Alpha virt. eigenvalues --   -0.05713   0.00861   0.03987   0.04279   0.06538
 Alpha virt. eigenvalues --    0.13055   0.18122   0.18507   0.21996   0.23103
 Alpha virt. eigenvalues --    0.27089   0.33452   0.46322   0.47058   0.50961

 Mulliken charges:
               1
     1  C    0.026344
     2  H    0.104133
     3  H    0.104133
     4  O   -0.234610
 Sum of Mulliken charges =   0.00000

 Dipole moment (field-independent basis, Debye):
    X=             -0.0000    Y=              0.0000    Z=             -2.3483  Tot=              2.3483
 Quadrupole moment (field-independent basis, Debye-Ang):
   XX=            -11.6670   YY=            -11.7546   ZZ=            -12.5122
   XY=              0.0000   XZ=              0.0000   YZ=             -0.0000

 Normal termination of Gaussian 16 at Fri Sep 17 10:52:42 2021.
