 Q-Chem 6.0, Q-Chem, Inc., Pleasanton, CA (2022)
 Q-Chem 6.0.2 for Intel X86 EM64T Linux

User input:
--------------------------------------------------------------
$molecule
0 1
C                 -0.60308027    1.24884959    0.02595850
C                  0.78318760    1.23153607   -0.00621390
C                  1.43790248    0.00979129   -0.02475940
C                 -1.30034920    0.04558663    0.03879402
H                 -1.13531042    2.19180962    0.04090714
H                  1.35342608    2.15108582   -0.01688747
N                  2.91159486   -0.00948016   -0.05899691
O                  3.45893135   -1.09359226   -0.07501963
O                  3.48723719    1.05994155   -0.06906801
C                 -0.63489100   -1.17551740    0.01999630
H                 -1.19175769   -2.10420457    0.03034090
C                  0.75132891   -1.19445736   -0.01220662
H                  1.29720829   -2.12860384   -0.02748658
Br                -3.19270661    0.07025578    0.08272467
$end

$rem
!SCF_GUESS         read
!SKIP_CIS_RPA      TRUE
METHOD             wB97XD
RPA                TRUE
BASIS              6-311+G*
CIS_N_ROOTS        100
CIS_SINGLETS       TRUE
CIS_TRIPLETS       FALSE
MAKE_CUBE_FILES    TRUE
PLOTS              TRUE
STS_MOM            TRUE
SYM_IGNORE         TRUE
SYMMETRY           FALSE
NTO_PAIRS          1
$end

$plots
grid_points                    75 75 75
total_density                  0-100
transition_density             1-100
natural_transition_orbital     1-100
$end

--------------------------------------------------------------

             Standard Nuclear Orientation (Angstroms)
    I     Atom           X                Y                Z
 ----------------------------------------------------------------
    1      C      -0.6030802700     1.2488495900     0.0259585000
    2      C       0.7831876000     1.2315360700    -0.0062139000
    3      C       1.4379024800     0.0097912900    -0.0247594000
    4      C      -1.3003492000     0.0455866300     0.0387940200
    5      H      -1.1353104200     2.1918096200     0.0409071400
    6      H       1.3534260800     2.1510858200    -0.0168874700
    7      N       2.9115948600    -0.0094801600    -0.0589969100
    8      O       3.4589313500    -1.0935922600    -0.0750196300
    9      O       3.4872371900     1.0599415500    -0.0690680100
   10      C      -0.6348910000    -1.1755174000     0.0199963000
   11      H      -1.1917576900    -2.1042045700     0.0303409000
   12      C       0.7513289100    -1.1944573600    -0.0122066200
   13      H       1.2972082900    -2.1286038400    -0.0274865800
   14      Br     -3.1927066100     0.0702557800     0.0827246700
 ----------------------------------------------------------------

   15   -3010.2741430562      7.41e-09  Convergence criterion met
 Total energy in the final basis set =    -3010.2741430562
 Excited state 100: excitation energy (eV) =   10.8721

             TDDFT Excitation Energies
 ---------------------------------------------------

 Excited state   1: excitation energy (eV) =    4.0121
 Total energy for state  1:                 -3010.12670018 au
    Multiplicity: Singlet
    Trans. Mom.:  0.0004 X  -0.0000 Y  -0.0000 Z
    Strength   :     0.0000000124
    X: D(   46) --> V(    1) amplitude =  0.7858
    X: D(   46) --> V(    4) amplitude = -0.2772
    X: D(   47) --> V(    1) amplitude =  0.5212

 Excited state   2: excitation energy (eV) =    4.5201
 Total energy for state  2:                 -3010.10803082 au
    Multiplicity: Singlet
    Trans. Mom.:  0.0015 X  -0.0001 Y   0.0545 Z
    Strength   :     0.0003292582
    X: D(   44) --> V(    1) amplitude =  0.9456
    X: D(   44) --> V(    4) amplitude = -0.3084

 Excited state   3: excitation energy (eV) =    4.9315
 Total energy for state  3:                 -3010.09291329 au
    Multiplicity: Singlet
    Trans. Mom.:  1.7106 X  -0.0223 Y  -0.0397 Z
    Strength   :     0.3537779851
    X: D(   43) --> V(    1) amplitude = -0.2234
    X: D(   49) --> V(    1) amplitude =  0.9502

 Excited state   4: excitation energy (eV) =    4.9474
 Total energy for state  4:                 -3010.09232992 au
    Multiplicity: Singlet
    Trans. Mom.: -0.0039 X  -0.3310 Y  -0.0008 Z
    Strength   :     0.0132838712
    X: D(   48) --> V(    1) amplitude =  0.8707
    X: D(   49) --> V(    2) amplitude =  0.4429

 Excited state   5: excitation energy (eV) =    5.9696
 Total energy for state  5:                 -3010.05476449 au
    Multiplicity: Singlet
    Trans. Mom.:  0.0000 X   0.0001 Y   0.0040 Z
    Strength   :     0.0000023487
    X: D(   49) --> V(    3) amplitude =  0.8907
    X: D(   49) --> V(    5) amplitude = -0.2759

 Excited state   6: excitation energy (eV) =    6.0249
 Total energy for state  6:                 -3010.05273268 au
    Multiplicity: Singlet
    Trans. Mom.:  0.0060 X   0.4559 Y   0.0010 Z
    Strength   :     0.0306865415
    X: D(   45) --> V(    1) amplitude = -0.3116
    X: D(   48) --> V(    1) amplitude = -0.4684
    X: D(   48) --> V(    4) amplitude =  0.2295
    X: D(   49) --> V(    2) amplitude =  0.7845

 Excited state   7: excitation energy (eV) =    6.2431
 Total energy for state  7:                 -3010.04471240 au
    Multiplicity: Singlet
    Trans. Mom.:  0.0000 X  -0.0001 Y  -0.0000 Z
    Strength   :     0.0000000007
    X: D(   46) --> V(    1) amplitude = -0.4831
    X: D(   47) --> V(    1) amplitude =  0.7662
    X: D(   47) --> V(    4) amplitude =  0.3580

 Excited state   8: excitation energy (eV) =    6.4913
 Total energy for state  8:                 -3010.03559096 au
    Multiplicity: Singlet
    Trans. Mom.:  0.0137 X   1.0410 Y   0.0028 Z
    Strength   :     0.1723877944
    X: D(   45) --> V(    1) amplitude =  0.9268
    X: D(   49) --> V(    2) amplitude =  0.2766

 Excited state   9: excitation energy (eV) =    6.6022
 Total energy for state  9:                 -3010.03151662 au
    Multiplicity: Singlet
    Trans. Mom.: -0.5764 X   0.0076 Y   0.0135 Z
    Strength   :     0.0537757446
    X: D(   43) --> V(    1) amplitude =  0.4862
    X: D(   48) --> V(    2) amplitude = -0.5146
    X: D(   49) --> V(    4) amplitude =  0.6701

 Excited state  10: excitation energy (eV) =    6.7106
 Total energy for state 10:                 -3010.02753343 au
    Multiplicity: Singlet
    Trans. Mom.:  0.0002 X   0.0223 Y   0.0001 Z
    Strength   :     0.0000819952
    X: D(   46) --> V(    3) amplitude = -0.4402
    X: D(   47) --> V(    3) amplitude =  0.7762
    X: D(   47) --> V(    5) amplitude = -0.3041

 Excited state  11: excitation energy (eV) =    6.8007
 Total energy for state 11:                 -3010.02422292 au
    Multiplicity: Singlet
    Trans. Mom.:  1.2666 X  -0.0166 Y  -0.0290 Z
    Strength   :     0.2674962991
    X: D(   43) --> V(    1) amplitude =  0.5442
    X: D(   48) --> V(    2) amplitude =  0.7518
    X: D(   49) --> V(    1) amplitude =  0.2239

 Excited state  12: excitation energy (eV) =    7.1999
 Total energy for state 12:                 -3010.00955174 au
    Multiplicity: Singlet
    Trans. Mom.: -0.0000 X  -0.0003 Y   0.0002 Z
    Strength   :     0.0000000252
    X: D(   48) --> V(    3) amplitude =  0.9619

 Excited state  13: excitation energy (eV) =    7.2066
 Total energy for state 13:                 -3010.00930650 au
    Multiplicity: Singlet
    Trans. Mom.:  0.0023 X  -0.0002 Y   0.1021 Z
    Strength   :     0.0018431860
    X: D(   47) --> V(    2) amplitude =  0.9769

 Excited state  14: excitation energy (eV) =    7.2639
 Total energy for state 14:                 -3010.00720091 au
    Multiplicity: Singlet
    Trans. Mom.:  0.0076 X  -0.0008 Y   0.2824 Z
    Strength   :     0.0142073452
    X: D(   49) --> V(    3) amplitude =  0.2835
    X: D(   49) --> V(    5) amplitude =  0.8794
    X: D(   49) --> V(    8) amplitude =  0.2292

 Excited state  15: excitation energy (eV) =    7.3711
 Total energy for state 15:                 -3010.00326191 au
    Multiplicity: Singlet
    Trans. Mom.: -0.0002 X  -0.0004 Y   0.0000 Z
    Strength   :     0.0000000368
    X: D(   42) --> V(    1) amplitude =  0.9531

 Excited state  16: excitation energy (eV) =    7.4231
 Total energy for state 16:                 -3010.00134864 au
    Multiplicity: Singlet
    Trans. Mom.: -0.0103 X  -0.8032 Y  -0.0020 Z
    Strength   :     0.1173350626
    X: D(   43) --> V(    2) amplitude = -0.3292
    X: D(   48) --> V(    4) amplitude =  0.8727
    X: D(   49) --> V(    2) amplitude = -0.3117

 Excited state  17: excitation energy (eV) =    7.5005
 Total energy for state 17:                 -3009.99850494 au
    Multiplicity: Singlet
    Trans. Mom.:  1.2943 X  -0.0167 Y  -0.0302 Z
    Strength   :     0.3080695445
    X: D(   43) --> V(    1) amplitude = -0.5690
    X: D(   48) --> V(    2) amplitude =  0.3406
    X: D(   49) --> V(    4) amplitude =  0.6807

 Excited state  18: excitation energy (eV) =    7.5603
 Total energy for state 18:                 -3009.99630623 au
    Multiplicity: Singlet
    Trans. Mom.: -0.0011 X   0.0003 Y  -0.0508 Z
    Strength   :     0.0004782130
    X: D(   46) --> V(    2) amplitude =  0.9807

 Excited state  19: excitation energy (eV) =    7.7018
 Total energy for state 19:                 -3009.99110890 au
    Multiplicity: Singlet
    Trans. Mom.: -0.0001 X  -0.0001 Y  -0.0000 Z
    Strength   :     0.0000000053
    X: D(   44) --> V(    2) amplitude =  0.9485

 Excited state  20: excitation energy (eV) =    7.7930
 Total energy for state 20:                 -3009.98775698 au
    Multiplicity: Singlet
    Trans. Mom.: -0.0023 X   0.0003 Y  -0.0996 Z
    Strength   :     0.0018936173
    X: D(   41) --> V(    1) amplitude =  0.7992
    X: D(   41) --> V(    4) amplitude =  0.2335
    X: D(   44) --> V(    4) amplitude =  0.4513

 Excited state  21: excitation energy (eV) =    7.8583
 Total energy for state 21:                 -3009.98535751 au
    Multiplicity: Singlet
    Trans. Mom.: -0.0003 X  -0.0000 Y  -0.0000 Z
    Strength   :     0.0000000226
    X: D(   44) --> V(    2) amplitude = -0.2295
    X: D(   46) --> V(    1) amplitude =  0.3149
    X: D(   46) --> V(    4) amplitude =  0.7271
    X: D(   47) --> V(    4) amplitude =  0.4898

 Excited state  22: excitation energy (eV) =    7.9375
 Total energy for state 22:                 -3009.98244363 au
    Multiplicity: Singlet
    Trans. Mom.:  0.0000 X   0.0002 Y   0.0001 Z
    Strength   :     0.0000000088
    X: D(   48) --> V(    5) amplitude =  0.7993
    X: D(   48) --> V(    7) amplitude = -0.3909
    X: D(   49) --> V(    6) amplitude =  0.2851

 Excited state  23: excitation energy (eV) =    8.0180
 Total energy for state 23:                 -3009.97948737 au
    Multiplicity: Singlet
    Trans. Mom.:  0.0859 X  -0.0011 Y  -0.0021 Z
    Strength   :     0.0014494451
    X: D(   45) --> V(    2) amplitude =  0.9930

 Excited state  24: excitation energy (eV) =    8.0924
 Total energy for state 24:                 -3009.97675119 au
    Multiplicity: Singlet
    Trans. Mom.: -0.0007 X  -0.0560 Y  -0.0019 Z
    Strength   :     0.0006230661
    X: D(   43) --> V(    2) amplitude = -0.5712
    X: D(   46) --> V(    5) amplitude = -0.3065
    X: D(   47) --> V(    5) amplitude =  0.6134

 Excited state  25: excitation energy (eV) =    8.0992
 Total energy for state 25:                 -3009.97650374 au
    Multiplicity: Singlet
    Trans. Mom.:  0.0044 X  -0.0005 Y   0.1924 Z
    Strength   :     0.0073522901
    X: D(   43) --> V(    3) amplitude =  0.4118
    X: D(   49) --> V(    7) amplitude =  0.7903

 Excited state  26: excitation energy (eV) =    8.1534
 Total energy for state 26:                 -3009.97451248 au
    Multiplicity: Singlet
    Trans. Mom.:  0.0018 X   0.0001 Y   0.0843 Z
    Strength   :     0.0014203515
    X: D(   43) --> V(    3) amplitude =  0.6983
    X: D(   43) --> V(    5) amplitude = -0.2715
    X: D(   49) --> V(    7) amplitude = -0.2872
    X: D(   49) --> V(    8) amplitude =  0.3771

 Excited state  27: excitation energy (eV) =    8.1634
 Total energy for state 27:                 -3009.97414427 au
    Multiplicity: Singlet
    Trans. Mom.: -0.0000 X   0.0007 Y  -0.0008 Z
    Strength   :     0.0000002257
    X: D(   49) --> V(    6) amplitude =  0.9042

 Excited state  28: excitation energy (eV) =    8.1746
 Total energy for state 28:                 -3009.97373271 au
    Multiplicity: Singlet
    Trans. Mom.:  0.0001 X   0.0007 Y   0.0023 Z
    Strength   :     0.0000011701
    X: D(   41) --> V(    1) amplitude = -0.4602
    X: D(   44) --> V(    1) amplitude =  0.2404
    X: D(   44) --> V(    4) amplitude =  0.7609

 Excited state  29: excitation energy (eV) =    8.2255
 Total energy for state 29:                 -3009.97186057 au
    Multiplicity: Singlet
    Trans. Mom.: -0.0172 X  -1.3190 Y  -0.0032 Z
    Strength   :     0.3506400968
    X: D(   43) --> V(    2) amplitude =  0.6963
    X: D(   46) --> V(    5) amplitude = -0.2776
    X: D(   47) --> V(    5) amplitude =  0.4308
    X: D(   48) --> V(    4) amplitude =  0.3078

 Excited state  30: excitation energy (eV) =    8.3848
 Total energy for state 30:                 -3009.96600701 au
    Multiplicity: Singlet
    Trans. Mom.:  0.0057 X  -0.0006 Y   0.2661 Z
    Strength   :     0.0145499021
    X: D(   42) --> V(    2) amplitude =  0.9549

 Excited state  31: excitation energy (eV) =    8.5003
 Total energy for state 31:                 -3009.96176269 au
    Multiplicity: Singlet
    Trans. Mom.: -0.0064 X   0.0013 Y  -0.4321 Z
    Strength   :     0.0388931524
    X: D(   48) --> V(    6) amplitude =  0.6828
    X: D(   49) --> V(    8) amplitude = -0.5402

 Excited state  32: excitation energy (eV) =    8.5302
 Total energy for state 32:                 -3009.96066398 au
    Multiplicity: Singlet
    Trans. Mom.:  0.1410 X  -0.0019 Y   0.0131 Z
    Strength   :     0.0041910938
    X: D(   43) --> V(    4) amplitude = -0.2374
    X: D(   49) --> V(    9) amplitude =  0.9115

 Excited state  33: excitation energy (eV) =    8.5719
 Total energy for state 33:                 -3009.95913006 au
    Multiplicity: Singlet
    Trans. Mom.: -0.0044 X  -0.3313 Y  -0.0014 Z
    Strength   :     0.0230499816
    X: D(   45) --> V(    4) amplitude =  0.8663
    X: D(   46) --> V(    7) amplitude =  0.2284

 Excited state  34: excitation energy (eV) =    8.5851
 Total energy for state 34:                 -3009.95864608 au
    Multiplicity: Singlet
    Trans. Mom.: -0.0016 X   0.0014 Y  -0.1837 Z
    Strength   :     0.0071024707
    X: D(   48) --> V(    6) amplitude =  0.6273
    X: D(   49) --> V(    5) amplitude = -0.2243
    X: D(   49) --> V(    8) amplitude =  0.5859

 Excited state  35: excitation energy (eV) =    8.5967
 Total energy for state 35:                 -3009.95821946 au
    Multiplicity: Singlet
    Trans. Mom.: -0.0001 X   0.0009 Y  -0.0003 Z
    Strength   :     0.0000001919
    X: D(   41) --> V(    2) amplitude =  0.3151
    X: D(   46) --> V(    4) amplitude = -0.4629
    X: D(   47) --> V(    1) amplitude = -0.3082
    X: D(   47) --> V(    4) amplitude =  0.6750

 Excited state  36: excitation energy (eV) =    8.6779
 Total energy for state 36:                 -3009.95523464 au
    Multiplicity: Singlet
    Trans. Mom.: -0.0070 X  -0.5293 Y  -0.0015 Z
    Strength   :     0.0595680056
    X: D(   45) --> V(    4) amplitude =  0.3746
    X: D(   46) --> V(    3) amplitude =  0.4305
    X: D(   46) --> V(    5) amplitude =  0.2939
    X: D(   46) --> V(    7) amplitude = -0.4275
    X: D(   46) --> V(   11) amplitude = -0.2201
    X: D(   47) --> V(    3) amplitude =  0.2707
    X: D(   47) --> V(    7) amplitude = -0.3387

 Excited state  37: excitation energy (eV) =    8.7882
 Total energy for state 37:                 -3009.95118156 au
    Multiplicity: Singlet
    Trans. Mom.:  0.5363 X  -0.0069 Y  -0.0131 Z
    Strength   :     0.0619692822
    X: D(   40) --> V(    1) amplitude =  0.7789
    X: D(   43) --> V(    4) amplitude = -0.4054
    X: D(   49) --> V(    9) amplitude = -0.2627

 Excited state  38: excitation energy (eV) =    8.7941
 Total energy for state 38:                 -3009.95096717 au
    Multiplicity: Singlet
    Trans. Mom.: -0.0001 X   0.0002 Y   0.0001 Z
    Strength   :     0.0000000144
    X: D(   41) --> V(    2) amplitude =  0.2346
    X: D(   48) --> V(    5) amplitude = -0.3463
    X: D(   48) --> V(    7) amplitude = -0.3177
    X: D(   48) --> V(    8) amplitude =  0.7641
    X: D(   48) --> V(   16) amplitude = -0.2462

 Excited state  39: excitation energy (eV) =    8.8210
 Total energy for state 39:                 -3009.94997714 au
    Multiplicity: Singlet
    Trans. Mom.:  0.0000 X  -0.0003 Y   0.0000 Z
    Strength   :     0.0000000145
    X: D(   41) --> V(    2) amplitude =  0.8708
    X: D(   47) --> V(    4) amplitude = -0.2376
    X: D(   48) --> V(    8) amplitude = -0.2155

 Excited state  40: excitation energy (eV) =    8.9890
 Total energy for state 40:                 -3009.94380391 au
    Multiplicity: Singlet
    Trans. Mom.: -0.0005 X   0.0010 Y   0.0001 Z
    Strength   :     0.0000002964
    X: D(   45) --> V(    3) amplitude = -0.3205
    X: D(   45) --> V(    5) amplitude = -0.2700
    X: D(   45) --> V(    7) amplitude =  0.4145
    X: D(   48) --> V(    7) amplitude =  0.4497
    X: D(   48) --> V(    8) amplitude =  0.2260
    X: D(   49) --> V(   10) amplitude =  0.4459

 Excited state  41: excitation energy (eV) =    9.0160
 Total energy for state 41:                 -3009.94281102 au
    Multiplicity: Singlet
    Trans. Mom.: -0.0009 X  -0.0013 Y   0.0002 Z
    Strength   :     0.0000005790
    X: D(   48) --> V(    7) amplitude = -0.5286
    X: D(   48) --> V(    8) amplitude = -0.3297
    X: D(   49) --> V(   10) amplitude =  0.6656

 Excited state  42: excitation energy (eV) =    9.0213
 Total energy for state 42:                 -3009.94261731 au
    Multiplicity: Singlet
    Trans. Mom.:  0.3368 X  -0.0044 Y  -0.0079 Z
    Strength   :     0.0250861496
    X: D(   44) --> V(    3) amplitude = -0.4876
    X: D(   44) --> V(    5) amplitude = -0.3640
    X: D(   44) --> V(    7) amplitude =  0.5682
    X: D(   44) --> V(   11) amplitude =  0.2463
    X: D(   46) --> V(    6) amplitude = -0.2395
    X: D(   47) --> V(    6) amplitude = -0.2216

 Excited state  43: excitation energy (eV) =    9.1334
 Total energy for state 43:                 -3009.93849781 au
    Multiplicity: Singlet
    Trans. Mom.: -0.2768 X   0.0034 Y   0.0073 Z
    Strength   :     0.0171533486
    X: D(   46) --> V(    6) amplitude = -0.3700
    X: D(   46) --> V(   10) amplitude =  0.2355
    X: D(   47) --> V(    6) amplitude =  0.7123
    X: D(   47) --> V(   10) amplitude = -0.4161

 Excited state  44: excitation energy (eV) =    9.1368
 Total energy for state 44:                 -3009.93837081 au
    Multiplicity: Singlet
    Trans. Mom.: -0.0016 X  -0.0015 Y  -0.0003 Z
    Strength   :     0.0000011083
    X: D(   45) --> V(    3) amplitude = -0.3526
    X: D(   45) --> V(    5) amplitude = -0.2757
    X: D(   45) --> V(    7) amplitude =  0.5050
    X: D(   45) --> V(   11) amplitude =  0.2321
    X: D(   48) --> V(    7) amplitude = -0.3837
    X: D(   49) --> V(   10) amplitude = -0.3958

 Excited state  45: excitation energy (eV) =    9.1753
 Total energy for state 45:                 -3009.93695729 au
    Multiplicity: Singlet
    Trans. Mom.: -0.0079 X   0.0009 Y  -0.2783 Z
    Strength   :     0.0174194235
    X: D(   43) --> V(    7) amplitude = -0.2962

 Excited state 100: excitation energy (eV) =   10.8713
  Excited state 1:   4.0355 eV (singlet)
  Excited state 2:   4.5490 eV (singlet)
  Excited state 3:   5.0132 eV (singlet)
  Excited state 4:   5.0851 eV (singlet)
  Excited state 5:   6.0122 eV (singlet)
  Excited state 6:   6.2433 eV (singlet)
  Excited state 7:   6.2466 eV (singlet)
  Excited state 8:   6.7096 eV (singlet)
  Excited state 9:   6.7714 eV (singlet)
  Excited state 10:   6.9509 eV (singlet)
  Excited state 11:   7.0449 eV (singlet)
  Excited state 12:   7.2028 eV (singlet)
  Excited state 13:   7.2116 eV (singlet)
  Excited state 14:   7.2672 eV (singlet)
  Excited state 15:   7.3825 eV (singlet)
  Excited state 16:   7.5606 eV (singlet)
  Excited state 17:   7.5634 eV (singlet)
  Excited state 18:   7.7051 eV (singlet)
  Excited state 19:   7.7353 eV (singlet)
  Excited state 20:   7.8084 eV (singlet)
  Excited state 21:   7.8609 eV (singlet)
  Excited state 22:   7.9412 eV (singlet)
  Excited state 23:   8.0244 eV (singlet)
  Excited state 24:   8.1048 eV (singlet)
  Excited state 25:   8.1143 eV (singlet)
  Excited state 26:   8.1647 eV (singlet)
  Excited state 27:   8.1767 eV (singlet)
  Excited state 28:   8.1810 eV (singlet)
  Excited state 29:   8.3839 eV (singlet)
  Excited state 30:   8.4001 eV (singlet)
  Excited state 31:   8.5064 eV (singlet)
  Excited state 32:   8.5605 eV (singlet)
  Excited state 33:   8.5897 eV (singlet)
  Excited state 34:   8.5995 eV (singlet)
  Excited state 35:   8.6360 eV (singlet)
  Excited state 36:   8.7791 eV (singlet)
  Excited state 37:   8.8010 eV (singlet)
  Excited state 38:   8.8306 eV (singlet)
  Excited state 61:   9.8259 eV (singlet)
  Excited state 62:   9.8601 eV (singlet)
  Excited state 63:   9.8806 eV (singlet)
  Excited state 64:   9.9153 eV (singlet)
  Excited state 65:   9.9628 eV (singlet)
  Excited state 66:  10.0227 eV (singlet)
  Excited state 67:  10.0274 eV (singlet)
  Excited state 68:  10.0533 eV (singlet)
  Excited state 69:  10.0554 eV (singlet)
  Excited state 70:  10.0754 eV (singlet)
  Excited state 71:  10.1001 eV (singlet)
  Excited state 72:  10.1186 eV (singlet)
  Excited state 73:  10.1582 eV (singlet)
  Excited state 74:  10.1867 eV (singlet)
  Excited state 75:  10.1958 eV (singlet)
  Excited state 76:  10.2161 eV (singlet)
  Excited state 77:  10.2502 eV (singlet)
  Excited state 78:  10.2920 eV (singlet)
  Excited state 79:  10.3621 eV (singlet)
  Excited state 80:  10.3791 eV (singlet)
  Excited state 81:  10.4316 eV (singlet)
  Excited state 82:  10.4412 eV (singlet)
  Excited state 83:  10.4415 eV (singlet)
  Excited state 84:  10.4438 eV (singlet)
  Excited state 85:  10.4511 eV (singlet)
  Excited state 86:  10.5148 eV (singlet)
  Excited state 87:  10.5535 eV (singlet)
  Excited state 88:  10.5791 eV (singlet)
  Excited state 89:  10.5899 eV (singlet)
  Excited state 90:  10.6434 eV (singlet)
  Excited state 91:  10.6490 eV (singlet)
  Excited state 92:  10.7250 eV (singlet)
  Excited state 93:  10.7427 eV (singlet)
  Excited state 94:  10.7430 eV (singlet)
  Excited state 95:  10.7597 eV (singlet)
  Excited state 96:  10.7921 eV (singlet)
  Excited state 97:  10.8044 eV (singlet)
  Excited state 98:  10.8178 eV (singlet)
  Excited state 99:  10.8318 eV (singlet)
  Excited state 100:  10.8713 eV (singlet)

                    Orbital Energies (a.u.)
 --------------------------------------------------------------

 Alpha MOs
 -- Occupied --
******** -62.6796 -56.4755 -56.4715 -56.4714 -19.2958 -19.2958 -14.6941
-10.3838 -10.3716 -10.3384 -10.3384 -10.3352 -10.3352  -8.8378  -6.6613
 -6.6479  -6.6476  -2.7614  -2.7576  -2.7573  -2.7466  -2.7464  -1.3644
 -1.1852  -1.0267  -0.9584  -0.9008  -0.8930  -0.8010  -0.7566  -0.7098
 -0.6771  -0.6531  -0.6283  -0.5974  -0.5920  -0.5770  -0.5593  -0.5164
 -0.4842  -0.4811  -0.4315  -0.4156  -0.4147  -0.4023  -0.3945  -0.3782
 -0.3540

          Ground-State Mulliken Net Atomic Charges

     Atom                 Charge (a.u.)
  ----------------------------------------
      1 C                    -0.783536
      2 C                     0.269632
      3 C                    -0.622570
      4 C                     0.874525
      5 H                     0.286589
      6 H                     0.294579
      7 N                    -0.132704
      8 O                    -0.027108
      9 O                    -0.027117
     10 C                    -0.785332
     11 H                     0.286627
     12 C                     0.268636
     13 H                     0.294544
     14 Br                   -0.196766
  ----------------------------------------
  Sum of atomic charges =     0.000000

                    Cartesian Multipole Moments
 -----------------------------------------------------------------
    Charge (ESU x 10^10)
                 0.0000
    Dipole Moment (Debye)
         X      -3.2944      Y       0.0438      Z       0.0769
       Tot       3.2956
    Quadrupole Moments (Debye-Ang)
        XX     -87.2379     XY       0.2105     YY     -63.8595
        XZ       0.3545     YZ       0.0131     ZZ     -70.7118

 Total job time:  1263.19s(wall), 12948.62s(cpu)
        *  Thank you very much for using Q-Chem.  Have a nice day.  *
