 Gaussian 16, Revision C.01,
 Gaussian 16:  ES64L-G16RevC.01  3-Jul-2019

 ----------------------------------------
 #P wB97XD/6-311+G* NoSymm #P Field=Y+136
 ----------------------------------------

 -------
 TitleMe
 -------
 Symbolic Z-matrix:
 Charge =  1 Multiplicity = 1

                          Input orientation:
 ---------------------------------------------------------------------
 Center     Atomic      Atomic             Coordinates (Angstroms)
 Number     Number       Type             X           Y           Z
 ---------------------------------------------------------------------
      1          6           0        0.519300    1.233000   -0.031900
      2          6           0        1.944500    1.269200   -0.036700
      3          6           0        2.620400    0.092800   -0.025000
      4          6           0       -0.196000    0.030100    0.001000
      5          1           0       -0.020700    2.174200   -0.043400
      6          1           0        2.482800    2.208900   -0.036100
      7          1           0       -1.277700    0.039900    0.011700
      8          7           0        4.092100    0.095900    0.036600
      9          8           0        4.639300   -1.021700    0.144600
     10          8           0        4.664900    1.198400   -0.023300
     11          6           0        0.494300   -1.167100    0.021000
     12          1           0       -0.032500   -2.114900    0.054500
     13          6           0        1.962900   -1.216500   -0.021100
     14          1           0        2.443600   -1.963100    0.615100
     15         35           0        2.173000   -1.949100   -1.906200
 ---------------------------------------------------------------------

 SCF Done:  E(RwB97XD) =  -3010.54743840     A.U. after   20 cycles

 Alpha  occ. eigenvalues -- -483.29115 -62.84103 -56.63827 -56.63221 -56.63202
 Alpha  occ. eigenvalues --  -19.46272 -19.45996 -14.85478 -10.58783 -10.56698
 Alpha  occ. eigenvalues --  -10.56146 -10.56075 -10.53541 -10.52167  -8.99882
 Alpha  occ. eigenvalues --   -6.82644  -6.80659  -6.80601  -2.92527  -2.92013
 Alpha  occ. eigenvalues --   -2.91967  -2.90379  -2.90379  -1.49785  -1.32755
 Alpha  occ. eigenvalues --   -1.21640  -1.12251  -1.11457  -1.03485  -0.99442
 Alpha  occ. eigenvalues --   -0.94575  -0.90026  -0.84637  -0.80547  -0.79847
 Alpha  occ. eigenvalues --   -0.79535  -0.77328  -0.75960  -0.74823  -0.71076
 Alpha  occ. eigenvalues --   -0.67778  -0.66951  -0.62510  -0.58723  -0.57266
 Alpha  occ. eigenvalues --   -0.56447  -0.55761  -0.53652  -0.52775
 Alpha virt. eigenvalues --   -0.29126  -0.20160  -0.14201  -0.13165  -0.12391
 Alpha virt. eigenvalues --   -0.09120  -0.06459  -0.05931  -0.04671  -0.03290
 Alpha virt. eigenvalues --   -0.01909  -0.01282  -0.00590  -0.00110   0.00711

 Mulliken charges:
               1
     1  C   -0.103479
     2  C    0.196562
     3  C   -0.106687
     4  C   -0.371272
     5  H    0.286040
     6  H    0.295673
     7  H    0.327545
     8  N   -0.245242
     9  O    0.164557
    10  O   -0.007788
    11  C   -0.181353
    12  H    0.403763
    13  C   -0.388529
    14  H    0.443429
    15  Br   0.286781
 Sum of Mulliken charges =   1.00000

 Dipole moment (field-independent basis, Debye):
    X=              2.9860    Y=             -4.9057    Z=             -1.3084  Tot=              5.8902
 Quadrupole moment (field-independent basis, Debye-Ang):
   XX=            -67.6515   YY=            -49.3596   ZZ=            -60.7348
   XY=            -11.3284   XZ=             -3.7806   YZ=              4.5759

 Normal termination of Gaussian 16 at Thu May  2 14:19:39 2024.
