 Gaussian 16, Revision C.01,
 Gaussian 16:  ES64L-G16RevC.01  3-Jul-2019

 ----------------------------------------
 #P wB97XD/6-311+G* NoSymm #P Field=X+136
 ----------------------------------------

 -------
 TitleMe
 -------
 Symbolic Z-matrix:
 Charge =  1 Multiplicity = 1

                          Input orientation:
 ---------------------------------------------------------------------
 Center     Atomic      Atomic             Coordinates (Angstroms)
 Number     Number       Type             X           Y           Z
 ---------------------------------------------------------------------
      1          6           0        0.519300    1.233000   -0.031900
      2          6           0        1.944500    1.269200   -0.036700
      3          6           0        2.620400    0.092800   -0.025000
      4          6           0       -0.196000    0.030100    0.001000
      5          1           0       -0.020700    2.174200   -0.043400
      6          1           0        2.482800    2.208900   -0.036100
      7          1           0       -1.277700    0.039900    0.011700
      8          7           0        4.092100    0.095900    0.036600
      9          8           0        4.639300   -1.021700    0.144600
     10          8           0        4.664900    1.198400   -0.023300
     11          6           0        0.494300   -1.167100    0.021000
     12          1           0       -0.032500   -2.114900    0.054500
     13          6           0        1.962900   -1.216500   -0.021100
     14          1           0        2.443600   -1.963100    0.615100
     15         35           0        2.173000   -1.949100   -1.906200
 ---------------------------------------------------------------------

 SCF Done:  E(RwB97XD) =  -3010.52736441     A.U. after   19 cycles

 Alpha  occ. eigenvalues -- -483.35815 -62.90846 -56.70531 -56.69973 -56.69964
 Alpha  occ. eigenvalues --  -19.54733 -19.54648 -14.93906 -10.64071 -10.62827
 Alpha  occ. eigenvalues --  -10.61027 -10.60438 -10.58690 -10.55739  -9.06659
 Alpha  occ. eigenvalues --   -6.89316  -6.87481  -6.87456  -2.99225  -2.98740
 Alpha  occ. eigenvalues --   -2.98720  -2.97251  -2.97251  -1.58327  -1.41375
 Alpha  occ. eigenvalues --   -1.27087  -1.17599  -1.17046  -1.09528  -1.05584
 Alpha  occ. eigenvalues --   -0.99571  -0.95452  -0.91702  -0.88425  -0.86814
 Alpha  occ. eigenvalues --   -0.85355  -0.82850  -0.81660  -0.80210  -0.76330
 Alpha  occ. eigenvalues --   -0.71852  -0.71557  -0.67556  -0.66049  -0.65437
 Alpha  occ. eigenvalues --   -0.64586  -0.64112  -0.61089  -0.59466
 Alpha virt. eigenvalues --   -0.34694  -0.27048  -0.20420  -0.17984  -0.13992
 Alpha virt. eigenvalues --   -0.11164  -0.10654  -0.10026  -0.08705  -0.07109
 Alpha virt. eigenvalues --   -0.06698  -0.05936  -0.05826  -0.05121  -0.04316

 Mulliken charges:
               1
     1  C   -0.127583
     2  C    0.181809
     3  C   -0.144179
     4  C   -0.319006
     5  H    0.379396
     6  H    0.333861
     7  H    0.392315
     8  N   -0.236575
     9  O    0.035288
    10  O    0.004126
    11  C   -0.158855
    12  H    0.390007
    13  C   -0.282238
    14  H    0.394684
    15  Br   0.156950
 Sum of Mulliken charges =   1.00000

 Dipole moment (field-independent basis, Debye):
    X=             -1.0924    Y=             -0.7103    Z=             -0.5645  Tot=              1.4201
 Quadrupole moment (field-independent basis, Debye-Ang):
   XX=            -83.3223   YY=            -51.4260   ZZ=            -62.6040
   XY=             -1.9867   XZ=             -1.4938   YZ=              2.0145

 Normal termination of Gaussian 16 at Thu May  2 14:17:59 2024.
