 Gaussian 16, Revision C.01,
 Gaussian 16:  ES64L-G16RevC.01  3-Jul-2019

 ---------------------------------------
 #P wB97XD/6-311+G* NoSymm #P Field=Y+19
 ---------------------------------------

 -------
 TitleMe
 -------
 Symbolic Z-matrix:
 Charge =  1 Multiplicity = 1

                          Input orientation:
 ---------------------------------------------------------------------
 Center     Atomic      Atomic             Coordinates (Angstroms)
 Number     Number       Type             X           Y           Z
 ---------------------------------------------------------------------
      1          6           0        0.519300    1.233000   -0.031900
      2          6           0        1.944500    1.269200   -0.036700
      3          6           0        2.620400    0.092800   -0.025000
      4          6           0       -0.196000    0.030100    0.001000
      5          1           0       -0.020700    2.174200   -0.043400
      6          1           0        2.482800    2.208900   -0.036100
      7          1           0       -1.277700    0.039900    0.011700
      8          7           0        4.092100    0.095900    0.036600
      9          8           0        4.639300   -1.021700    0.144600
     10          8           0        4.664900    1.198400   -0.023300
     11          6           0        0.494300   -1.167100    0.021000
     12          1           0       -0.032500   -2.114900    0.054500
     13          6           0        1.962900   -1.216500   -0.021100
     14          1           0        2.443600   -1.963100    0.615100
     15         35           0        2.173000   -1.949100   -1.906200
 ---------------------------------------------------------------------

 SCF Done:  E(RwB97XD) =  -3010.53279023     A.U. after   19 cycles

 Alpha  occ. eigenvalues -- -483.30741 -62.85757 -56.65457 -56.64880 -56.64868
 Alpha  occ. eigenvalues --  -19.46177 -19.46124 -14.85575 -10.59069 -10.57646
 Alpha  occ. eigenvalues --  -10.57046 -10.56825 -10.53310 -10.52562  -9.01558
 Alpha  occ. eigenvalues --   -6.84255  -6.82363  -6.82326  -2.94155  -2.93659
 Alpha  occ. eigenvalues --   -2.93629  -2.92115  -2.92114  -1.49840  -1.32801
 Alpha  occ. eigenvalues --   -1.22214  -1.12661  -1.12214  -1.04475  -1.00095
 Alpha  occ. eigenvalues --   -0.95142  -0.90404  -0.84816  -0.80774  -0.79977
 Alpha  occ. eigenvalues --   -0.79951  -0.77731  -0.76102  -0.75392  -0.71743
 Alpha  occ. eigenvalues --   -0.68337  -0.67410  -0.63131  -0.59544  -0.57313
 Alpha  occ. eigenvalues --   -0.56608  -0.55871  -0.55704  -0.54240
 Alpha virt. eigenvalues --   -0.29848  -0.20272  -0.15298  -0.12893  -0.08559
 Alpha virt. eigenvalues --   -0.06036  -0.05437  -0.04502  -0.04161  -0.03145
 Alpha virt. eigenvalues --   -0.02213  -0.01229  -0.00851  -0.00295   0.00830

 Mulliken charges:
               1
     1  C   -0.108460
     2  C    0.182849
     3  C   -0.078393
     4  C   -0.338344
     5  H    0.337403
     6  H    0.342934
     7  H    0.330120
     8  N   -0.240782
     9  O    0.098907
    10  O    0.058878
    11  C   -0.200433
    12  H    0.363472
    13  C   -0.361404
    14  H    0.415816
    15  Br   0.197438
 Sum of Mulliken charges =   1.00000

 Dipole moment (field-independent basis, Debye):
    X=              2.8102    Y=             -1.4629    Z=             -0.8271  Tot=              3.2744
 Quadrupole moment (field-independent basis, Debye-Ang):
   XX=            -67.8238   YY=            -50.8613   ZZ=            -61.9599
   XY=             -4.1334   XZ=             -2.7279   YZ=              2.7525

 Normal termination of Gaussian 16 at Thu May  2 14:18:40 2024.
