 Gaussian 16, Revision C.01,
 Gaussian 16:  ES64L-G16RevC.01  3-Jul-2019

 ---------------------------------------
 #P wB97XD/6-311+G* NoSymm #P Field=X+87
 ---------------------------------------

 -------
 TitleMe
 -------
 Symbolic Z-matrix:
 Charge =  1 Multiplicity = 1

                          Input orientation:
 ---------------------------------------------------------------------
 Center     Atomic      Atomic             Coordinates (Angstroms)
 Number     Number       Type             X           Y           Z
 ---------------------------------------------------------------------
      1          6           0        0.029500    1.339700    0.068200
      2          6           0        1.434800    1.286700    0.006400
      3          6           0        2.111800    0.051100   -0.005400
      4          6           0        1.445100   -1.137200    0.031200
      5          6           0       -0.687900    0.168200    0.110000
      6          1           0       -0.471300    2.298400    0.078100
      7          1           0        2.027300    2.196500   -0.032200
      8          1           0        1.989700   -2.076400    0.023200
      9          1           0       -1.771600    0.180400    0.158200
     10          7           0        3.586400    0.051000   -0.067500
     11          8           0        4.147100   -1.059700   -0.088100
     12          8           0        4.145000    1.163900   -0.090100
     13          6           0       -0.023600   -1.145800    0.083500
     14          1           0       -0.436700   -1.872500    0.788900
     15         35           0       -0.535900   -1.869700   -1.740800
 ---------------------------------------------------------------------

 SCF Done:  E(RwB97XD) =  -3010.54263857     A.U. after   19 cycles

 Alpha  occ. eigenvalues -- -483.31694 -62.86706 -56.66410 -56.65824 -56.65819
 Alpha  occ. eigenvalues --  -19.50150 -19.50072 -14.89523 -10.59119 -10.58832
 Alpha  occ. eigenvalues --  -10.58739 -10.58571 -10.57451 -10.53594  -9.02503
 Alpha  occ. eigenvalues --   -6.85210  -6.83293  -6.83272  -2.95108  -2.94601
 Alpha  occ. eigenvalues --   -2.94582  -2.93049  -2.93049  -1.53892  -1.36919
 Alpha  occ. eigenvalues --   -1.23928  -1.15504  -1.12833  -1.05226  -1.03164
 Alpha  occ. eigenvalues --   -0.96516  -0.92473  -0.87990  -0.83947  -0.82968
 Alpha  occ. eigenvalues --   -0.82828  -0.79567  -0.79165  -0.76949  -0.73336
 Alpha  occ. eigenvalues --   -0.70114  -0.68536  -0.64821  -0.61469  -0.61140
 Alpha  occ. eigenvalues --   -0.60568  -0.60025  -0.56634  -0.55783
 Alpha virt. eigenvalues --   -0.30514  -0.24563  -0.16494  -0.14924  -0.10127
 Alpha virt. eigenvalues --   -0.07557  -0.07155  -0.06010  -0.05828  -0.04197
 Alpha virt. eigenvalues --   -0.03347  -0.02843  -0.02416  -0.00877  -0.00446

 Mulliken charges:
               1
     1  C   -0.599137
     2  C    0.546604
     3  C   -0.738463
     4  C    0.242587
     5  C    0.032326
     6  H    0.351984
     7  H    0.350418
     8  H    0.361019
     9  H    0.388707
    10  N   -0.104086
    11  O   -0.007896
    12  O   -0.011135
    13  C   -0.454753
    14  H    0.418374
    15  Br   0.223451
 Sum of Mulliken charges =   1.00000

 Dipole moment (field-independent basis, Debye):
    X=             -3.4416    Y=             -0.8863    Z=             -0.2363  Tot=              3.5617
 Quadrupole moment (field-independent basis, Debye-Ang):
   XX=            -77.4652   YY=            -51.7223   ZZ=            -61.9939
   XY=              1.7023   XZ=              1.7798   YZ=              2.2714

 Normal termination of Gaussian 16 at Wed May  1 14:46:46 2024.
