 Gaussian 16, Revision A.03,
 Gaussian 16:  ES64L-G16RevA.03 25-Dec-2016

 --------------------------------------------------------------------
 #p B3LYP/6-311+G** #p TD=(singlets,nstates=30)IOp(6/8=3) IOp(9/40=4)
 --------------------------------------------------------------------

 ------------------------------
 Scan Step 96, Bond Length 0.98
 ------------------------------
 Symbolic Z-matrix:
 Charge =  0 Multiplicity = 1

                         Standard orientation:
 ---------------------------------------------------------------------
 Center     Atomic      Atomic             Coordinates (Angstroms)
 Number     Number       Type             X           Y           Z
 ---------------------------------------------------------------------
      1          6           0        0.000000   -0.000000   -0.416081
      2          1           0        0.000000    0.937260   -1.007431
      3          1           0       -0.000000   -0.937260   -1.007431
      4          8           0        0.000000    0.000000    0.563919
 ---------------------------------------------------------------------

 SCF Done:  E(RB3LYP) =  -114.411319216     A.U. after    9 cycles

 Excitation energies and oscillator strengths:

 Excited State   1:      Singlet-A2     5.2004 eV  238.41 nm  f=0.0000  <S**2>=0.000
       3 -> 27         0.00300
       3 -> 36         0.00246
       3 -> 46         0.00161
       4 -> 27         0.00311
       4 -> 36        -0.00075
       4 -> 46        -0.00089
       5 ->  9         0.01483
       5 -> 13        -0.00908
       5 -> 17         0.00621
       5 -> 23        -0.00302
       5 -> 28         0.00347
       5 -> 31         0.00265
       5 -> 37         0.00397
       5 -> 43         0.00064
       5 -> 52         0.00083
       6 -> 12        -0.00061
       6 -> 16         0.00160
       6 -> 18        -0.00116
       6 -> 22         0.00170
       6 -> 24         0.00094
       6 -> 29        -0.00060
       6 -> 33         0.00032
       6 -> 35         0.00054
       6 -> 40        -0.00022
       6 -> 42         0.00043
       6 -> 48         0.00065
       6 -> 50        -0.00017
       6 -> 53         0.00035
       7 -> 27         0.00075
       7 -> 36        -0.00048
       7 -> 46         0.00147
       8 ->  9         0.69828
       8 -> 13        -0.10684
       8 -> 17         0.02744
       8 -> 23        -0.01105
       8 -> 28         0.00626
       8 -> 31         0.00351
       8 -> 37        -0.00185
       8 -> 43        -0.00026
       8 -> 47        -0.00011
       8 -> 52         0.00118
       3 <- 27         0.00214
       3 <- 36         0.00209
       3 <- 46         0.00168
       4 <- 27         0.00379
       4 <- 36        -0.00031
       4 <- 46        -0.00083
       5 <-  9         0.00021
       5 <- 13        -0.00105
       5 <- 17        -0.00037
       5 <- 23         0.00041
       5 <- 28        -0.00028
       5 <- 31        -0.00112
       5 <- 37         0.00178
       5 <- 43         0.00042
       5 <- 47         0.00015
       5 <- 52         0.00021
       6 <- 12        -0.00097
       6 <- 16        -0.00386
       6 <- 18        -0.00253
       6 <- 22         0.00580
       6 <- 24        -0.00121
       6 <- 29         0.00202
       6 <- 33        -0.00115
       6 <- 35         0.00235
       6 <- 40        -0.00034
       6 <- 42         0.00097
       6 <- 48         0.00048
       6 <- 53         0.00094
       7 <- 27         0.00104
       7 <- 36        -0.00050
       7 <- 46         0.00115
       8 <-  9        -0.01359
       8 <- 13         0.00698
       8 <- 17        -0.00390
       8 <- 23         0.00063
       8 <- 28        -0.00044
       8 <- 31         0.00228
       8 <- 37        -0.00221
       8 <- 52         0.00036
 This state for optimization and/or second-order correction.
 Total Energy, E(TD-HF/TD-DFT) =  -114.220207067
 Copying the excited state density for this state as the 1-particle RhoCI density.

 Excited State   2:      Singlet-B2     6.2846 eV  197.28 nm  f=0.0698  <S**2>=0.000
       3 -> 12         0.00104
       3 -> 16         0.00025
       3 -> 18         0.00113
       3 -> 22        -0.00015
       3 -> 24         0.00124
       3 -> 29        -0.00015
       3 -> 35        -0.00018
       3 -> 50        -0.00013
       4 -> 12        -0.00531
       4 -> 18         0.00224
       4 -> 22        -0.00303
       4 -> 24         0.00398
       4 -> 29        -0.00026
       4 -> 33        -0.00092
       4 -> 35         0.00088
       4 -> 40        -0.00027
       4 -> 42         0.00042
       5 -> 10        -0.00041
       5 -> 11        -0.00828
       5 -> 14         0.00614
       5 -> 15        -0.00147
       5 -> 19         0.00351
       5 -> 20        -0.00062
       5 -> 21         0.00372
       5 -> 25         0.00077
       5 -> 26        -0.00168
       5 -> 30         0.00251
       5 -> 32        -0.00024
       5 -> 34        -0.00014
       5 -> 38        -0.00062
       5 -> 39        -0.00023
       5 -> 41         0.00017
       5 -> 44        -0.00049
       5 -> 45        -0.00058
       5 -> 49         0.00029
       6 -> 27         0.00072
       6 -> 46         0.00080
       7 -> 12         0.00181
       7 -> 16        -0.00062
       7 -> 18         0.00430
       7 -> 22        -0.00258
       7 -> 24         0.00206
       7 -> 29        -0.00013
       7 -> 42        -0.00038
       7 -> 48         0.00036
       7 -> 50         0.00051
       8 -> 10         0.70587
       8 -> 11        -0.03214
       8 -> 14        -0.00823
       8 -> 15        -0.01095
       8 -> 19         0.01901
       8 -> 20         0.00932
       8 -> 21        -0.00641
       8 -> 25         0.00083
       8 -> 26        -0.00088
       8 -> 30         0.00030
       8 -> 32         0.00215
       8 -> 34         0.00184
       8 -> 38         0.00066
       8 -> 39         0.00058
       8 -> 41        -0.00021
       8 -> 44         0.00066
       8 -> 45        -0.00096
       8 -> 49         0.00020
       8 -> 54         0.00016
       3 <- 12         0.00032
       3 <- 16         0.00033
       3 <- 18         0.00057
       3 <- 22        -0.00023
       3 <- 24         0.00086
       3 <- 29        -0.00014
       3 <- 35        -0.00017
       4 <- 12         0.00030
       4 <- 16         0.00045
       4 <- 18         0.00277
       4 <- 22        -0.00184
       4 <- 24         0.00293
       4 <- 29        -0.00020
       4 <- 33        -0.00066
       4 <- 35         0.00063
       4 <- 40        -0.00026
       4 <- 42         0.00011
       5 <- 10         0.00232
       5 <- 14         0.00466
       5 <- 15        -0.00146
       5 <- 19         0.00088
       5 <- 21         0.00207
       5 <- 25         0.00168
       5 <- 26        -0.00134
       5 <- 30         0.00088
       5 <- 32        -0.00052
       5 <- 34        -0.00023
       5 <- 38        -0.00047
       5 <- 39        -0.00017
       5 <- 41         0.00027
       5 <- 44        -0.00033
       5 <- 45        -0.00049
       5 <- 49         0.00026
       6 <- 27         0.00055
       6 <- 46         0.00068
       7 <- 12         0.00051
       7 <- 16        -0.00093
       7 <- 18         0.00181
       7 <- 22        -0.00099
       7 <- 24         0.00087
       7 <- 29         0.00053
       7 <- 33        -0.00015
       7 <- 35         0.00017
       7 <- 42        -0.00035
       7 <- 48         0.00031
       7 <- 50         0.00054
       8 <- 10        -0.00348
       8 <- 11        -0.00126
       8 <- 14        -0.01048
       8 <- 15         0.00090
       8 <- 19        -0.00073
       8 <- 20        -0.00035
       8 <- 21        -0.00368
       8 <- 25        -0.00300
       8 <- 26        -0.00046
       8 <- 30        -0.00060
       8 <- 32         0.00088
       8 <- 34         0.00162
       8 <- 38         0.00068
       8 <- 39         0.00047
       8 <- 44         0.00054
       8 <- 45        -0.00066
       8 <- 49         0.00022
       8 <- 51         0.00011

 Excited State   3:      Singlet-B2     7.0724 eV  175.31 nm  f=0.0205  <S**2>=0.000
       3 -> 12        -0.00015
       3 -> 16        -0.00069
       3 -> 18         0.00029
       3 -> 22         0.00020
       3 -> 24         0.00038
       3 -> 29         0.00123
       3 -> 33         0.00014
       3 -> 35        -0.00032
       3 -> 42        -0.00033
       3 -> 48         0.00022
       3 -> 50         0.00025
       4 -> 12         0.00309
       4 -> 16        -0.00254
       4 -> 18         0.00316
       4 -> 22        -0.00155
       4 -> 24         0.00350
       4 -> 29        -0.00108
       4 -> 33         0.00055
       4 -> 35        -0.00029
       4 -> 40        -0.00020
       4 -> 48         0.00016
       4 -> 50         0.00016
       5 -> 10        -0.00650
       5 -> 11         0.00028
       5 -> 14         0.00426
       5 -> 15        -0.00567
       5 -> 19        -0.00380
       5 -> 20        -0.00172
       5 -> 21         0.00117
       5 -> 25         0.00121
       5 -> 26         0.00118
       5 -> 30         0.00094
       5 -> 32        -0.00185
       5 -> 34        -0.00079
       5 -> 39         0.00060
       5 -> 41        -0.00084
       5 -> 45         0.00067
       5 -> 49        -0.00044
       5 -> 51        -0.00027
       6 -> 27        -0.00069
       6 -> 36        -0.00127
       6 -> 46        -0.00125
       7 -> 12        -0.00313
       7 -> 16        -0.00122
       7 -> 18        -0.00212
       7 -> 22         0.00143
       7 -> 29         0.00022
       7 -> 33        -0.00034
       7 -> 35         0.00135
       7 -> 40        -0.00041
       7 -> 42         0.00073
       7 -> 48        -0.00070
       7 -> 50        -0.00066
       7 -> 53         0.00014
       8 -> 10         0.03274
       8 -> 11         0.70537
       8 -> 14        -0.01446
       8 -> 15         0.02045
       8 -> 19        -0.02100
       8 -> 20         0.01381
       8 -> 21        -0.00219
       8 -> 25         0.00033
       8 -> 26         0.00060
       8 -> 30        -0.00152
       8 -> 34         0.00042
       8 -> 38        -0.00010
       8 -> 39         0.00030
       8 -> 41        -0.00142
       8 -> 45         0.00088
       8 -> 49        -0.00075
       8 -> 51        -0.00028
       8 -> 54        -0.00017
       3 <- 12         0.00028
       3 <- 16        -0.00046
       3 <- 18         0.00057
       3 <- 24         0.00046
       3 <- 29         0.00079
       3 <- 33         0.00019
       3 <- 35        -0.00036
       3 <- 42        -0.00028
       3 <- 48         0.00017
       3 <- 50         0.00015
       3 <- 53        -0.00022
       4 <- 12         0.00033
       4 <- 18         0.00119
       4 <- 22        -0.00126
       4 <- 24         0.00153
       4 <- 29        -0.00044
       4 <- 33         0.00053
       4 <- 40        -0.00019
       4 <- 42        -0.00015
       4 <- 48         0.00010
       4 <- 50         0.00022
       5 <- 10         0.00134
       5 <- 11        -0.00054
       5 <- 14         0.00201
       5 <- 15        -0.00049
       5 <- 19         0.00067
       5 <- 21         0.00098
       5 <- 25         0.00099
       5 <- 26         0.00084
       5 <- 30         0.00078
       5 <- 32        -0.00039
       5 <- 34        -0.00122
       5 <- 38         0.00014
       5 <- 39         0.00037
       5 <- 41        -0.00086
       5 <- 44        -0.00012
       5 <- 45         0.00065
       5 <- 49        -0.00030
       5 <- 51        -0.00026
       6 <- 27        -0.00025
       6 <- 36        -0.00103
       6 <- 46        -0.00107
       7 <- 12        -0.00036
       7 <- 18        -0.00030
       7 <- 22         0.00034
       7 <- 29        -0.00011
       7 <- 33        -0.00013
       7 <- 35         0.00097
       7 <- 40        -0.00031
       7 <- 42         0.00051
       7 <- 48        -0.00060
       7 <- 50        -0.00059
       8 <- 10        -0.00123
       8 <- 11         0.00089
       8 <- 14        -0.00529
       8 <- 15         0.00094
       8 <- 19         0.00240
       8 <- 20        -0.00165
       8 <- 21        -0.00236
       8 <- 25        -0.00019
       8 <- 26         0.00120
       8 <- 30        -0.00090
       8 <- 32         0.00115
       8 <- 34        -0.00011
       8 <- 38        -0.00025
       8 <- 41        -0.00119
       8 <- 45         0.00073
       8 <- 49        -0.00048
       8 <- 51        -0.00026

 Excited State   4:      Singlet-A1     7.2117 eV  171.92 nm  f=0.0507  <S**2>=0.000
       3 -> 10         0.00146
       3 -> 11        -0.00095
       3 -> 14         0.00031
       3 -> 15        -0.00049
       3 -> 19         0.00119
       3 -> 20         0.00067
       3 -> 26        -0.00032
       3 -> 30         0.00117
       3 -> 32        -0.00031
       3 -> 34        -0.00021
       3 -> 38        -0.00035
       3 -> 39         0.00019
       3 -> 41        -0.00018
       3 -> 49        -0.00014
       3 -> 51        -0.00033
       3 -> 54        -0.00021
       4 -> 10         0.00553
       4 -> 11         0.00930
       4 -> 14         0.00614
       4 -> 15        -0.00091
       4 -> 19         0.00069
       4 -> 20         0.00619
       4 -> 21         0.00252
       4 -> 25         0.00702
       4 -> 26        -0.00081
       4 -> 30        -0.00061
       4 -> 32        -0.00035
       4 -> 34        -0.00090
       4 -> 38        -0.00013
       4 -> 39        -0.00056
       4 -> 41         0.00021
       4 -> 45        -0.00030
       4 -> 49        -0.00024
       5 -> 12         0.00777
       5 -> 16        -0.00413
       5 -> 18         0.01065
       5 -> 22        -0.00021
       5 -> 24         0.00467
       5 -> 29         0.00042
       5 -> 33        -0.00016
       5 -> 35         0.00089
       5 -> 42        -0.00018
       5 -> 50        -0.00036
       5 -> 53        -0.00015
       6 ->  9         0.00952
       6 -> 13         0.00541
       6 -> 17         0.00504
       6 -> 23         0.00467
       6 -> 28         0.00033
       6 -> 31         0.00086
       6 -> 37         0.00054
       6 -> 43         0.00059
       6 -> 47        -0.00037
       7 -> 10         0.01338
       7 -> 11        -0.00472
       7 -> 14         0.00367
       7 -> 15         0.00140
       7 -> 19         0.00646
       7 -> 20         0.00396
       7 -> 21         0.00162
       7 -> 25         0.00220
       7 -> 26        -0.00050
       7 -> 30        -0.00031
       7 -> 32         0.00056
       7 -> 34        -0.00082
       7 -> 39        -0.00016
       7 -> 44         0.00011
       7 -> 49        -0.00019
       7 -> 51         0.00053
       8 -> 12         0.70560
       8 -> 16        -0.03364
       8 -> 18         0.01822
       8 -> 22         0.00481
       8 -> 24         0.00158
       8 -> 29         0.00242
       8 -> 33         0.00151
       8 -> 35        -0.00233
       8 -> 42         0.00118
       8 -> 48        -0.00038
       8 -> 50        -0.00021
       8 -> 53        -0.00016
       3 <- 10         0.00057
       3 <- 11        -0.00029
       3 <- 14         0.00020
       3 <- 15        -0.00019
       3 <- 19         0.00060
       3 <- 20         0.00030
       3 <- 21         0.00010
       3 <- 25         0.00023
       3 <- 26        -0.00014
       3 <- 30         0.00070
       3 <- 32        -0.00024
       3 <- 34        -0.00011
       3 <- 38        -0.00027
       3 <- 39         0.00016
       3 <- 41        -0.00017
       3 <- 45         0.00011
       3 <- 49        -0.00016
       3 <- 51        -0.00029
       3 <- 54        -0.00019
       4 <- 10         0.00538
       4 <- 11         0.00293
       4 <- 14         0.00452
       4 <- 15        -0.00116
       4 <- 19         0.00053
       4 <- 20         0.00349
       4 <- 21         0.00099
       4 <- 25         0.00411
       4 <- 26        -0.00039
       4 <- 32        -0.00063
       4 <- 34        -0.00095
       4 <- 38        -0.00020
       4 <- 39        -0.00051
       4 <- 45        -0.00028
       4 <- 49        -0.00020
       5 <- 12         0.00273
       5 <- 16        -0.00027
       5 <- 18         0.00438
       5 <- 22         0.00025
       5 <- 24         0.00253
       5 <- 33        -0.00032
       5 <- 35         0.00079
       5 <- 42        -0.00016
       5 <- 50        -0.00027
       5 <- 53        -0.00014
       6 <-  9         0.00248
       6 <- 13         0.00184
       6 <- 17         0.00201
       6 <- 23         0.00262
       6 <- 28         0.00015
       6 <- 31         0.00063
       6 <- 37         0.00043
       6 <- 43         0.00050
       6 <- 47        -0.00032
       7 <- 10         0.00419
       7 <- 11        -0.00087
       7 <- 14         0.00167
       7 <- 15         0.00047
       7 <- 19         0.00255
       7 <- 20         0.00214
       7 <- 21         0.00063
       7 <- 25         0.00125
       7 <- 26        -0.00051
       7 <- 32         0.00030
       7 <- 34        -0.00062
       7 <- 39        -0.00024
       7 <- 41         0.00013
       7 <- 51         0.00048
       8 <- 12        -0.00263
       8 <- 16        -0.00806
       8 <- 18        -0.00636
       8 <- 22         0.00021
       8 <- 24        -0.00238
       8 <- 29         0.00091
       8 <- 33         0.00099
       8 <- 35        -0.00150
       8 <- 40        -0.00012
       8 <- 42         0.00098
       8 <- 48        -0.00045
       8 <- 50        -0.00018
       8 <- 53        -0.00018

 Excited State   5:      Singlet-A2     7.7808 eV  159.35 nm  f=0.0000  <S**2>=0.000
       3 -> 27        -0.00111
       3 -> 36        -0.00096
       3 -> 46        -0.00053
       4 -> 27        -0.00021
       4 -> 36         0.00064
       4 -> 46         0.00017
       5 ->  9        -0.00984
       5 -> 13         0.00342
       5 -> 17         0.00431
       5 -> 23        -0.00017
       5 -> 31        -0.00206
       5 -> 37        -0.00180
       5 -> 43        -0.00028
       5 -> 52        -0.00026
       6 -> 12        -0.00042
       6 -> 16        -0.00199
       6 -> 18         0.00122
       6 -> 22        -0.00094
       6 -> 24        -0.00025
       6 -> 29         0.00027
       6 -> 35        -0.00026
       6 -> 42        -0.00022
       6 -> 48        -0.00022
       6 -> 53        -0.00013
       7 -> 36         0.00027
       7 -> 46        -0.00056
       8 ->  9         0.10713
       8 -> 13         0.69852
       8 -> 17         0.00570
       8 -> 23         0.02109
       8 -> 28        -0.00083
       8 -> 31        -0.00128
       8 -> 37         0.00035
       8 -> 47         0.00018
       8 -> 52        -0.00032
       3 <- 27        -0.00058
       3 <- 36        -0.00076
       3 <- 46        -0.00063
       4 <- 27        -0.00071
       4 <- 46         0.00019
       5 <-  9        -0.00026
       5 <- 17         0.00063
       5 <- 23        -0.00011
       5 <- 37        -0.00050
       5 <- 43        -0.00013
       6 <- 12        -0.00059
       6 <- 16        -0.00056
       6 <- 18         0.00060
       6 <- 22        -0.00189
       6 <- 33         0.00058
       6 <- 35        -0.00102
       6 <- 40         0.00015
       6 <- 42        -0.00056
       6 <- 53        -0.00026
       7 <- 27        -0.00022
       7 <- 36         0.00024
       7 <- 46        -0.00024
       8 <-  9         0.00497
       8 <- 13         0.00073
       8 <- 17         0.00039
       8 <- 23        -0.00040
       8 <- 28         0.00016
       8 <- 31        -0.00047
       8 <- 37         0.00054
       8 <- 52        -0.00013

 Excited State   6:      Singlet-B2    10.1410 eV  122.26 nm  f=0.2530  <S**2>=0.000
       3 -> 12        -0.00040
       3 -> 16        -0.00191
       3 -> 18        -0.00010
       3 -> 22         0.00143
       3 -> 24         0.00079
       3 -> 29         0.00134
       3 -> 33        -0.00086
       3 -> 40         0.00025

 The electronic state is 1-A1.
 Alpha  occ. eigenvalues --  -19.13879 -10.24353  -1.21365  -0.60989  -0.56694
 Alpha  occ. eigenvalues --   -0.50757  -0.50160  -0.25674
 Alpha virt. eigenvalues --   -0.00351   0.01327   0.04291   0.04389   0.07640
 Alpha virt. eigenvalues --    0.13902   0.17965   0.20269   0.21971   0.22570
 Alpha virt. eigenvalues --    0.26753   0.35933   0.49510   0.51419   0.51727

 Mulliken charges:
               1
     1  C    0.128887
     2  H    0.038577
     3  H    0.038577
     4  O   -0.206040
 Sum of Mulliken charges =   0.00000

 Dipole moment (field-independent basis, Debye):
    X=              0.0000    Y=              0.0000    Z=             -1.1886  Tot=              1.1886
 Quadrupole moment (field-independent basis, Debye-Ang):
   XX=            -11.0589   YY=            -12.0481   ZZ=            -13.0017
   XY=             -0.0000   XZ=             -0.0000   YZ=              0.0000

 Normal termination of Gaussian 16 at Fri Sep 17 10:52:36 2021.
