 Gaussian 16, Revision C.01,
 Gaussian 16:  ES64L-G16RevC.01  3-Jul-2019

 ---------------------------------------
 #P wB97XD/6-311+G* NoSymm #P Field=Z-87
 ---------------------------------------

 -------
 TitleMe
 -------
 Symbolic Z-matrix:
 Charge =  1 Multiplicity = 1

                          Input orientation:
 ---------------------------------------------------------------------
 Center     Atomic      Atomic             Coordinates (Angstroms)
 Number     Number       Type             X           Y           Z
 ---------------------------------------------------------------------
      1          6           0        0.029500    1.339700    0.068200
      2          6           0        1.434800    1.286700    0.006400
      3          6           0        2.111800    0.051100   -0.005400
      4          6           0        1.445100   -1.137200    0.031200
      5          6           0       -0.687900    0.168200    0.110000
      6          1           0       -0.471300    2.298400    0.078100
      7          1           0        2.027300    2.196500   -0.032200
      8          1           0        1.989700   -2.076400    0.023200
      9          1           0       -1.771600    0.180400    0.158200
     10          7           0        3.586400    0.051000   -0.067500
     11          8           0        4.147100   -1.059700   -0.088100
     12          8           0        4.145000    1.163900   -0.090100
     13          6           0       -0.023600   -1.145800    0.083500
     14          1           0       -0.436700   -1.872500    0.788900
     15         35           0       -0.535900   -1.869700   -1.740800
 ---------------------------------------------------------------------

 SCF Done:  E(RwB97XD) =  -3010.53785001     A.U. after   18 cycles

 Alpha  occ. eigenvalues -- -483.32470 -62.87517 -56.67181 -56.66648 -56.66646
 Alpha  occ. eigenvalues --  -19.46033 -19.45953 -14.85533 -10.58811 -10.57802
 Alpha  occ. eigenvalues --  -10.57405 -10.57221 -10.56939 -10.53111  -9.03338
 Alpha  occ. eigenvalues --   -6.85938  -6.84186  -6.84173  -2.95861  -2.95394
 Alpha  occ. eigenvalues --   -2.95382  -2.93980  -2.93979  -1.49789  -1.32763
 Alpha  occ. eigenvalues --   -1.22925  -1.14533  -1.12003  -1.05325  -1.01217
 Alpha  occ. eigenvalues --   -0.95741  -0.91154  -0.85423  -0.80927  -0.80818
 Alpha  occ. eigenvalues --   -0.80148  -0.78446  -0.76257  -0.76103  -0.72808
 Alpha  occ. eigenvalues --   -0.69561  -0.67758  -0.64185  -0.60809  -0.57992
 Alpha  occ. eigenvalues --   -0.57175  -0.56402  -0.56102  -0.55744
 Alpha virt. eigenvalues --   -0.30044  -0.21465  -0.16417  -0.13720  -0.10190
 Alpha virt. eigenvalues --   -0.07181  -0.06826  -0.06349  -0.04865  -0.03665
 Alpha virt. eigenvalues --   -0.03297  -0.02740  -0.02247  -0.02087  -0.01650

 Mulliken charges:
               1
     1  C   -0.594572
     2  C    0.545206
     3  C   -0.725056
     4  C    0.298057
     5  C    0.031013
     6  H    0.337256
     7  H    0.367337
     8  H    0.376512
     9  H    0.354541
    10  N   -0.106420
    11  O    0.031860
    12  O    0.028268
    13  C   -0.472573
    14  H    0.434124
    15  Br   0.094448
 Sum of Mulliken charges =   1.00000

 Dipole moment (field-independent basis, Debye):
    X=             -0.6175    Y=             -0.2622    Z=              1.4847  Tot=              1.6292
 Quadrupole moment (field-independent basis, Debye-Ang):
   XX=            -70.9577   YY=            -52.4445   ZZ=            -64.3049
   XY=              1.0639   XZ=              1.8029   YZ=              0.3753

 Normal termination of Gaussian 16 at Wed May  1 15:23:30 2024.
