 Gaussian 16, Revision C.01,
 Gaussian 16:  ES64L-G16RevC.01  3-Jul-2019

 ----------------------------------------
 #P wB97XD/6-311+G* NoSymm #P Field=Z-136
 ----------------------------------------

 -------
 TitleMe
 -------
 Symbolic Z-matrix:
 Charge =  1 Multiplicity = 1

                          Input orientation:
 ---------------------------------------------------------------------
 Center     Atomic      Atomic             Coordinates (Angstroms)
 Number     Number       Type             X           Y           Z
 ---------------------------------------------------------------------
      1          6           0        0.029500    1.339700    0.068200
      2          6           0        1.434800    1.286700    0.006400
      3          6           0        2.111800    0.051100   -0.005400
      4          6           0        1.445100   -1.137200    0.031200
      5          6           0       -0.687900    0.168200    0.110000
      6          1           0       -0.471300    2.298400    0.078100
      7          1           0        2.027300    2.196500   -0.032200
      8          1           0        1.989700   -2.076400    0.023200
      9          1           0       -1.771600    0.180400    0.158200
     10          7           0        3.586400    0.051000   -0.067500
     11          8           0        4.147100   -1.059700   -0.088100
     12          8           0        4.145000    1.163900   -0.090100
     13          6           0       -0.023600   -1.145800    0.083500
     14          1           0       -0.436700   -1.872500    0.788900
     15         35           0       -0.535900   -1.869700   -1.740800
 ---------------------------------------------------------------------

 SCF Done:  E(RwB97XD) =  -3010.54153004     A.U. after   18 cycles

 Alpha  occ. eigenvalues -- -483.33301 -62.88358 -56.68008 -56.67495 -56.67493
 Alpha  occ. eigenvalues --  -19.46260 -19.46175 -14.85756 -10.59245 -10.58104
 Alpha  occ. eigenvalues --  -10.57671 -10.57490 -10.57194 -10.53349  -9.04185
 Alpha  occ. eigenvalues --   -6.86747  -6.85056  -6.85044  -2.96679  -2.96227
 Alpha  occ. eigenvalues --   -2.96216  -2.94862  -2.94862  -1.50008  -1.32981
 Alpha  occ. eigenvalues --   -1.23235  -1.14963  -1.12286  -1.05968  -1.01461
 Alpha  occ. eigenvalues --   -0.96043  -0.91415  -0.85647  -0.81185  -0.81045
 Alpha  occ. eigenvalues --   -0.80376  -0.78678  -0.76490  -0.76355  -0.73265
 Alpha  occ. eigenvalues --   -0.69829  -0.68026  -0.64601  -0.61417  -0.58908
 Alpha  occ. eigenvalues --   -0.57441  -0.56877  -0.56418  -0.55964
 Alpha virt. eigenvalues --   -0.30438  -0.21702  -0.17138  -0.14075  -0.12591
 Alpha virt. eigenvalues --   -0.09123  -0.08301  -0.07364  -0.05805  -0.04836
 Alpha virt. eigenvalues --   -0.03912  -0.03268  -0.02724  -0.02300  -0.01730

 Mulliken charges:
               1
     1  C   -0.604783
     2  C    0.559584
     3  C   -0.728582
     4  C    0.302887
     5  C    0.045318
     6  H    0.339633
     7  H    0.368364
     8  H    0.378450
     9  H    0.357038
    10  N   -0.106814
    11  O    0.032866
    12  O    0.028985
    13  C   -0.472475
    14  H    0.450923
    15  Br   0.048606
 Sum of Mulliken charges =   1.00000

 Dipole moment (field-independent basis, Debye):
    X=             -0.4985    Y=             -0.0825    Z=              2.3336  Tot=              2.3877
 Quadrupole moment (field-independent basis, Debye-Ang):
   XX=            -70.7986   YY=            -52.7061   ZZ=            -65.3166
   XY=              0.9347   XZ=              2.1916   YZ=             -0.3518

 Normal termination of Gaussian 16 at Wed May  1 15:23:00 2024.
