 Gaussian 16, Revision C.01,
 Gaussian 16:  ES64L-G16RevC.01  3-Jul-2019

 ----------------------------------------
 #P wB97XD/6-311+G* NoSymm #P Field=Z+223
 ----------------------------------------

 -------
 TitleMe
 -------
 Symbolic Z-matrix:
 Charge =  1 Multiplicity = 1

                          Input orientation:
 ---------------------------------------------------------------------
 Center     Atomic      Atomic             Coordinates (Angstroms)
 Number     Number       Type             X           Y           Z
 ---------------------------------------------------------------------
      1          6           0        0.029500    1.339700    0.068200
      2          6           0        1.434800    1.286700    0.006400
      3          6           0        2.111800    0.051100   -0.005400
      4          6           0        1.445100   -1.137200    0.031200
      5          6           0       -0.687900    0.168200    0.110000
      6          1           0       -0.471300    2.298400    0.078100
      7          1           0        2.027300    2.196500   -0.032200
      8          1           0        1.989700   -2.076400    0.023200
      9          1           0       -1.771600    0.180400    0.158200
     10          7           0        3.586400    0.051000   -0.067500
     11          8           0        4.147100   -1.059700   -0.088100
     12          8           0        4.145000    1.163900   -0.090100
     13          6           0       -0.023600   -1.145800    0.083500
     14          1           0       -0.436700   -1.872500    0.788900
     15         35           0       -0.535900   -1.869700   -1.740800
 ---------------------------------------------------------------------

 SCF Done:  E(RwB97XD) =  -3010.55257865     A.U. after   18 cycles

 Alpha  occ. eigenvalues -- -483.27987 -62.82952 -56.62706 -56.62049 -56.62048
 Alpha  occ. eigenvalues --  -19.44886 -19.44831 -14.84378 -10.56591 -10.56152
 Alpha  occ. eigenvalues --  -10.56031 -10.55792 -10.55628 -10.51939  -8.98714
 Alpha  occ. eigenvalues --   -6.81552  -6.79421  -6.79413  -2.91417  -2.90854
 Alpha  occ. eigenvalues --   -2.90845  -2.89143  -2.89142  -1.48642  -1.31624
 Alpha  occ. eigenvalues --   -1.21333  -1.12485  -1.10459  -1.01586  -0.99939
 Alpha  occ. eigenvalues --   -0.94067  -0.89786  -0.84258  -0.79763  -0.79470
 Alpha  occ. eigenvalues --   -0.78924  -0.77304  -0.75058  -0.74802  -0.70558
 Alpha  occ. eigenvalues --   -0.68135  -0.66411  -0.61688  -0.58456  -0.56056
 Alpha  occ. eigenvalues --   -0.55163  -0.54616  -0.52374  -0.51767
 Alpha virt. eigenvalues --   -0.28032  -0.20367  -0.14827  -0.13535  -0.11142
 Alpha virt. eigenvalues --   -0.10042  -0.09613  -0.06516  -0.05688  -0.04985
 Alpha virt. eigenvalues --   -0.02817  -0.01494  -0.00549   0.00527   0.00804

 Mulliken charges:
               1
     1  C   -0.541012
     2  C    0.429182
     3  C   -0.687543
     4  C    0.252985
     5  C   -0.073275
     6  H    0.330669
     7  H    0.368166
     8  H    0.370631
     9  H    0.345647
    10  N   -0.114475
    11  O    0.034511
    12  O    0.032219
    13  C   -0.453469
    14  H    0.325059
    15  Br   0.380704
 Sum of Mulliken charges =   1.00000

 Dipole moment (field-independent basis, Debye):
    X=             -1.3789    Y=             -1.4617    Z=             -3.9324  Tot=              4.4160
 Quadrupole moment (field-independent basis, Debye-Ang):
   XX=            -72.0568   YY=            -50.8611   ZZ=            -58.8693
   XY=              1.9482   XZ=             -0.6982   YZ=              4.9630

 Normal termination of Gaussian 16 at Wed May  1 15:29:44 2024.
