 Gaussian 16, Revision A.03,
 Gaussian 16:  ES64L-G16RevA.03 25-Dec-2016

 --------------------------------------------------------------------
 #p B3LYP/6-311+G** #p TD=(singlets,nstates=30)IOp(6/8=3) IOp(9/40=4)
 --------------------------------------------------------------------

 --------------------------------
 Scan Step 221, Bond Length 1.605
 --------------------------------
 Symbolic Z-matrix:
 Charge =  0 Multiplicity = 1

                         Standard orientation:
 ---------------------------------------------------------------------
 Center     Atomic      Atomic             Coordinates (Angstroms)
 Number     Number       Type             X           Y           Z
 ---------------------------------------------------------------------
      1          6           0        0.000000    0.000000   -0.728581
      2          1           0        0.000000    0.937260   -1.319931
      3          1           0       -0.000000   -0.937260   -1.319931
      4          8           0        0.000000   -0.000000    0.876419
 ---------------------------------------------------------------------

 SCF Done:  E(RB3LYP) =  -114.425965124     A.U. after   10 cycles

 Excitation energies and oscillator strengths:

 Excited State   1:      Singlet-A2     1.9649 eV  630.99 nm  f=0.0000  <S**2>=0.000
       3 -> 27         0.00117
       3 -> 38         0.00086
       3 -> 46         0.00330
       4 -> 27         0.00070
       4 -> 38        -0.00013
       4 -> 46        -0.00129
       5 ->  9         0.00724
       5 -> 13         0.00094
       5 -> 18         0.00285
       5 -> 23         0.00161
       5 -> 28         0.00247
       5 -> 31        -0.00016
       5 -> 37         0.00136
       5 -> 44         0.00033
       5 -> 52         0.00034
       6 -> 27        -0.00063
       6 -> 38        -0.00076
       6 -> 46         0.00133
       7 -> 12        -0.00092
       7 -> 16         0.00476
       7 -> 19        -0.00406
       7 -> 22        -0.00080
       7 -> 25         0.00093
       7 -> 30        -0.00155
       7 -> 33         0.00036
       7 -> 49         0.00012
       7 -> 50         0.00016
       7 -> 53         0.00044
       8 ->  9         0.70858
       8 -> 13        -0.01302
       8 -> 18         0.02161
       8 -> 23        -0.00335
       8 -> 28         0.01102
       8 -> 31         0.00109
       8 -> 37         0.00063
       8 -> 48        -0.00031
       8 -> 52         0.00193
       3 <- 27         0.00053
       3 <- 38         0.00059
       3 <- 46         0.00334
       4 <- 27         0.00121
       4 <- 38         0.00023
       4 <- 46        -0.00104
       5 <-  9        -0.00022
       5 <- 13        -0.00052
       5 <- 18        -0.00067
       5 <- 23         0.00027
       5 <- 28        -0.00047
       5 <- 31         0.00035
       5 <- 37         0.00077
       5 <- 44         0.00011
       6 <- 38        -0.00062
       6 <- 46         0.00102
       7 <- 12         0.00068
       7 <- 16        -0.01007
       7 <- 19         0.00379
       7 <- 22         0.00688
       7 <- 25         0.00054
       7 <- 30         0.00528
       7 <- 33        -0.00051
       7 <- 36         0.00080
       7 <- 40         0.00048
       7 <- 42         0.00014
       7 <- 49        -0.00040
       7 <- 53         0.00146
       8 <-  9        -0.05222
       8 <- 13         0.00045
       8 <- 18        -0.00663
       8 <- 23         0.00014
       8 <- 28        -0.00239
       8 <- 31        -0.00064
       8 <- 37        -0.00045
       8 <- 52         0.00051
 This state for optimization and/or second-order correction.
 Total Energy, E(TD-HF/TD-DFT) =  -114.353756037
 Copying the excited state density for this state as the 1-particle RhoCI density.

 Excited State   2:      Singlet-A1     5.0522 eV  245.41 nm  f=0.0743  <S**2>=0.000
       3 -> 10        -0.01576
       3 -> 11        -0.01363
       3 -> 14         0.01114
       3 -> 15         0.00631
       3 -> 17        -0.00352
       3 -> 20        -0.00391
       3 -> 21        -0.00114
       3 -> 24         0.00245
       3 -> 26         0.00392
       3 -> 29        -0.00117
       3 -> 32         0.00277
       3 -> 34         0.00245
       3 -> 35        -0.00102
       3 -> 39         0.00082
       3 -> 43         0.00044
       3 -> 47         0.00226
       3 -> 51         0.00104
       3 -> 54         0.00018
       4 -> 10        -0.01183
       4 -> 11         0.01244
       4 -> 14         0.00587
       4 -> 15        -0.00978
       4 -> 17         0.00311
       4 -> 20         0.00525
       4 -> 21         0.00041
       4 -> 24        -0.00505
       4 -> 26         0.00503
       4 -> 29         0.00109
       4 -> 32        -0.00133
       4 -> 34        -0.00173
       4 -> 35         0.00040
       4 -> 41         0.00013
       4 -> 43        -0.00045
       4 -> 45        -0.00079
       4 -> 47        -0.00124
       4 -> 51        -0.00032
       4 -> 54         0.00010
       5 -> 12         0.01723
       5 -> 16         0.01101
       5 -> 19         0.00149
       5 -> 22         0.00738
       5 -> 25         0.00825
       5 -> 30        -0.00027
       5 -> 33        -0.00306
       5 -> 36         0.00275
       5 -> 40         0.00148
       5 -> 42         0.00064
       5 -> 49         0.00046
       5 -> 50        -0.00068
       5 -> 53        -0.00014
       6 -> 10         0.14294
       6 -> 11         0.10710
       6 -> 14        -0.09562
       6 -> 15        -0.06645
       6 -> 17        -0.02004
       6 -> 20        -0.01114
       6 -> 21         0.01370
       6 -> 24        -0.01408
       6 -> 26        -0.00682
       6 -> 29        -0.00800
       6 -> 32         0.00084
       6 -> 34         0.00147
       6 -> 35        -0.00073
       6 -> 39         0.00084
       6 -> 41        -0.00041
       6 -> 43         0.00081
       6 -> 45         0.00079
       6 -> 47         0.00126
       6 -> 51         0.00082
       6 -> 54        -0.00067
       7 ->  9         0.68403
       7 -> 13         0.00082
       7 -> 18        -0.01837
       7 -> 28        -0.00139
       7 -> 31        -0.00301
       7 -> 37         0.00089
       7 -> 44        -0.00105
       7 -> 48         0.00040
       7 -> 52         0.00105
       8 -> 12        -0.00730
       8 -> 16         0.06967
       8 -> 19        -0.02423
       8 -> 22        -0.02653
       8 -> 25         0.00064
       8 -> 30        -0.01203
       8 -> 33         0.00227
       8 -> 36        -0.00272
       8 -> 40        -0.00131
       8 -> 42        -0.00035
       8 -> 49         0.00058
       8 -> 50         0.00023
       8 -> 53        -0.00071
       3 <- 10        -0.01059
       3 <- 11        -0.00963
       3 <- 14         0.00826
       3 <- 15         0.00421
       3 <- 17        -0.00181
       3 <- 20        -0.00282
       3 <- 21        -0.00145
       3 <- 24         0.00152
       3 <- 26         0.00234
       3 <- 29        -0.00070
       3 <- 32         0.00253
       3 <- 34         0.00157
       3 <- 35        -0.00088
       3 <- 39         0.00073
       3 <- 43         0.00053
       3 <- 45         0.00026
       3 <- 47         0.00237
       3 <- 51         0.00102
       3 <- 54         0.00029
       4 <- 10        -0.00582
       4 <- 11         0.00783
       4 <- 14         0.00299
       4 <- 15        -0.00583
       4 <- 17         0.00158
       4 <- 20         0.00441
       4 <- 21         0.00030
       4 <- 24        -0.00345
       4 <- 26         0.00398
       4 <- 29         0.00028
       4 <- 32        -0.00163
       4 <- 34        -0.00151
       4 <- 35         0.00063
       4 <- 39        -0.00015
       4 <- 43        -0.00044
       4 <- 45        -0.00090
       4 <- 47        -0.00084
       4 <- 51        -0.00016
       5 <- 12         0.00773
       5 <- 16         0.00564
       5 <- 19         0.00103
       5 <- 22         0.00457
       5 <- 25         0.00561
       5 <- 33        -0.00237
       5 <- 36         0.00224
       5 <- 40         0.00129
       5 <- 42         0.00053
       5 <- 49         0.00041
       5 <- 50        -0.00062
       5 <- 53        -0.00013
       6 <- 10         0.04229
       6 <- 11         0.03394
       6 <- 14        -0.03738
       6 <- 15        -0.02830
       6 <- 17        -0.00972
       6 <- 20        -0.00703
       6 <- 21         0.00795
       6 <- 24        -0.00855
       6 <- 26        -0.00399
       6 <- 29        -0.00547
       6 <- 32         0.00129
       6 <- 34         0.00180
       6 <- 35        -0.00089
       6 <- 39         0.00091
       6 <- 41        -0.00029
       6 <- 43         0.00069
       6 <- 45         0.00072
       6 <- 47         0.00079
       6 <- 51         0.00065
       6 <- 54        -0.00057
       7 <-  9        -0.12417
       7 <- 13         0.00744
       7 <- 18        -0.01384
       7 <- 23         0.00351
       7 <- 28        -0.00386
       7 <- 31        -0.00138
       7 <- 37         0.00032
       7 <- 44        -0.00063
       7 <- 48        -0.00017
       7 <- 52         0.00092
       8 <- 12        -0.00170
       8 <- 16         0.02460
       8 <- 19        -0.01039
       8 <- 22        -0.01438
       8 <- 25         0.00015
       8 <- 30        -0.00868
       8 <- 33         0.00169
       8 <- 36        -0.00207
       8 <- 40        -0.00105
       8 <- 42        -0.00028
       8 <- 49         0.00038
       8 <- 50         0.00019
       8 <- 53        -0.00064

 Excited State   3:      Singlet-B1     5.3724 eV  230.78 nm  f=0.0014  <S**2>=0.000
       3 ->  9        -0.02882
       3 -> 13         0.00173
       3 -> 18        -0.00467
       3 -> 23         0.00179
       3 -> 28        -0.00095
       3 -> 31        -0.00048
       3 -> 44         0.00024
       3 -> 48         0.00096
       3 -> 52         0.00096
       4 ->  9         0.01357
       4 -> 13        -0.00267
       4 -> 18         0.00026
       4 -> 23        -0.00242
       4 -> 28         0.00024
       4 -> 31        -0.00154
       4 -> 37        -0.00041
       4 -> 44         0.00013
       4 -> 48        -0.00110
       4 -> 52        -0.00059
       5 -> 27        -0.00012
       5 -> 38         0.00201
       5 -> 46         0.00092
       6 ->  9         0.70512
       6 -> 13        -0.02020
       6 -> 18         0.01682
       6 -> 23        -0.01098
       6 -> 28         0.00429
       6 -> 31         0.00328
       6 -> 37        -0.00217
       6 -> 44        -0.00284
       6 -> 48         0.00416
       6 -> 52         0.00145
       7 -> 10         0.03833
       7 -> 11         0.02546
       7 -> 14        -0.01740
       7 -> 15        -0.00705
       7 -> 17        -0.00917
       7 -> 20         0.00293
       7 -> 21         0.00016
       7 -> 24        -0.00059
       7 -> 26        -0.00151
       7 -> 29        -0.00392
       7 -> 32        -0.00061
       7 -> 34         0.00073
       7 -> 35         0.00179
       7 -> 39         0.00014
       7 -> 41        -0.00056
       7 -> 43         0.00055
       7 -> 45        -0.00043
       7 -> 47         0.00424
       7 -> 51         0.00118
       7 -> 54         0.00041
       8 -> 27         0.00052
       8 -> 38         0.00010
       8 -> 46         0.00534
       3 <-  9        -0.00966
       3 <- 13        -0.00063
       3 <- 18        -0.00291
       3 <- 23        -0.00055
       3 <- 28        -0.00061
       3 <- 31        -0.00067
       3 <- 44        -0.00025
       3 <- 48         0.00114
       3 <- 52         0.00077
       4 <-  9         0.00674
       4 <- 13        -0.00027
       4 <- 18         0.00194
       4 <- 23        -0.00061
       4 <- 28         0.00164
       4 <- 31        -0.00104
       4 <- 37        -0.00021
       4 <- 48        -0.00095
       4 <- 52        -0.00033
       5 <- 27        -0.00067
       5 <- 38         0.00164
       5 <- 46         0.00082
       6 <-  9        -0.02539
       6 <- 13         0.00171
       6 <- 18        -0.00328
       6 <- 23        -0.00028
       6 <- 28        -0.00337
       6 <- 31         0.00124
       6 <- 37        -0.00189
       6 <- 44        -0.00153
       6 <- 48         0.00372
       6 <- 52         0.00048
       7 <- 10        -0.01597
       7 <- 11        -0.01269
       7 <- 14         0.01471
       7 <- 15         0.01271
       7 <- 17         0.00148
       7 <- 20         0.00500
       7 <- 21        -0.00434
       7 <- 24         0.00449
       7 <- 26         0.00177
       7 <- 29         0.00111
       7 <- 32        -0.00015
       7 <- 34         0.00067
       7 <- 35         0.00269
       7 <- 39         0.00044
       7 <- 41        -0.00021
       7 <- 43         0.00041
       7 <- 45        -0.00056
       7 <- 47         0.00388
       7 <- 51         0.00105
       7 <- 54         0.00107
       8 <- 27         0.00097
       8 <- 38         0.00028
       8 <- 46         0.00496

 Excited State   4:      Singlet-B2     6.0328 eV  205.52 nm  f=0.0136  <S**2>=0.000
       3 -> 12        -0.00155
       3 -> 16         0.00196
       3 -> 19        -0.00452
       3 -> 22         0.00049
       3 -> 25         0.00040
       3 -> 30        -0.00337
       3 -> 33        -0.00027
       3 -> 36         0.00216
       3 -> 40         0.00178
       3 -> 42         0.00023
       3 -> 49        -0.00268
       3 -> 50         0.00022
       3 -> 53         0.00029
       4 -> 12         0.00044
       4 -> 16        -0.00272
       4 -> 22         0.00312
       4 -> 25        -0.00198
       4 -> 30         0.00146
       4 -> 33        -0.00048
       4 -> 36         0.00053
       4 -> 40        -0.00050
       4 -> 49         0.00043
       4 -> 50        -0.00012
       5 -> 10         0.00657
       5 -> 11         0.00582
       5 -> 14        -0.01235
       5 -> 15         0.00339
       5 -> 17         0.00068
       5 -> 20         0.00208
       5 -> 21         0.00620
       5 -> 24         0.00188
       5 -> 26        -0.00182
       5 -> 29        -0.00200
       5 -> 32        -0.00158
       5 -> 34        -0.00123
       5 -> 35        -0.00048
       5 -> 39        -0.00102
       5 -> 41         0.00074
       5 -> 45         0.00019
       5 -> 47        -0.00084
       5 -> 51         0.00050
       5 -> 54        -0.00024
       6 -> 12         0.00326
       6 -> 16        -0.00167
       6 -> 19         0.00301
       6 -> 22        -0.00013
       6 -> 25        -0.00082
       6 -> 30        -0.00054
       6 -> 33         0.00034
       6 -> 36        -0.00215
       6 -> 40        -0.00174
       6 -> 42        -0.00039
       6 -> 49         0.00161
       6 -> 53        -0.00035
       7 -> 27        -0.00066
       7 -> 38         0.00086
       7 -> 46         0.00368
       8 -> 10         0.63640
       8 -> 11         0.27437
       8 -> 14        -0.12460
       8 -> 15        -0.06360
       8 -> 17        -0.01329
       8 -> 20        -0.00158
       8 -> 21         0.00679
       8 -> 24        -0.00656
       8 -> 26        -0.00562
       8 -> 29        -0.00989
       8 -> 32        -0.00293
       8 -> 34        -0.00189
       8 -> 35        -0.00040
       8 -> 39        -0.00062
       8 -> 41         0.00026
       8 -> 43        -0.00044
       8 -> 45         0.00182
       8 -> 47        -0.00431
       8 -> 51         0.00220
       8 -> 54        -0.00163
       3 <- 12        -0.00056
       3 <- 16         0.00052
       3 <- 19        -0.00213
       3 <- 22         0.00089
       3 <- 25         0.00039
       3 <- 30        -0.00134
       3 <- 33        -0.00023
       3 <- 36         0.00167
       3 <- 40         0.00158
       3 <- 42         0.00020
       3 <- 49        -0.00276
       3 <- 50         0.00019
       3 <- 53         0.00084
       4 <- 12        -0.00020
       4 <- 16        -0.00236
       4 <- 19        -0.00021
       4 <- 22         0.00277
       4 <- 25        -0.00122
       4 <- 30         0.00128
       4 <- 33        -0.00055
       4 <- 36         0.00074
       4 <- 40        -0.00017
       4 <- 42         0.00012
       4 <- 49         0.00032
       5 <- 10         0.00035
       5 <- 11        -0.00160
       5 <- 14        -0.00176
       5 <- 15         0.00388
       5 <- 17         0.00023
       5 <- 20         0.00054
       5 <- 21         0.00212
       5 <- 24         0.00258
       5 <- 26        -0.00055
       5 <- 29        -0.00050
       5 <- 34        -0.00031
       5 <- 39        -0.00034
       5 <- 41         0.00075
       5 <- 43         0.00011
       5 <- 45         0.00049
       5 <- 47        -0.00069
       5 <- 51         0.00027
       6 <- 16         0.00539
       6 <- 19        -0.00242
       6 <- 22        -0.00390
       6 <- 25        -0.00050
       6 <- 30        -0.00463
       6 <- 33         0.00062
       6 <- 36        -0.00214
       6 <- 40        -0.00174
       6 <- 42        -0.00045
       6 <- 49         0.00174
       6 <- 53        -0.00103
       7 <- 27        -0.00065
       7 <- 38         0.00067
       7 <- 46         0.00304
       8 <- 10        -0.01437
       8 <- 11        -0.01199
       8 <- 14         0.01164
       8 <- 15         0.00477
       8 <- 17         0.00035
       8 <- 20        -0.00241
       8 <- 21        -0.00233
       8 <- 24         0.00131
       8 <- 26         0.00200
       8 <- 29        -0.00082
       8 <- 32         0.00236
       8 <- 34         0.00141
       8 <- 35        -0.00022
       8 <- 39         0.00147
       8 <- 41         0.00057
       8 <- 43         0.00029
       8 <- 45         0.00242
       8 <- 47        -0.00318
       8 <- 51         0.00134
       8 <- 54        -0.00040

 Excited State   5:      Singlet-B2     7.0380 eV  176.16 nm  f=0.0019  <S**2>=0.000
       3 -> 12         0.00151
       3 -> 16         0.00141
       3 -> 19        -0.00073
       3 -> 22        -0.00036
       3 -> 25         0.00092
       3 -> 30        -0.00220
       3 -> 33         0.00012
       3 -> 36         0.00041
       3 -> 40         0.00039
       3 -> 49        -0.00062
       4 -> 12        -0.00123
       4 -> 16         0.00073
       4 -> 19         0.00095
       4 -> 22        -0.00101
       4 -> 25         0.00078
       4 -> 30         0.00115
       4 -> 33        -0.00012
       4 -> 36         0.00029
       4 -> 50        -0.00011
       5 -> 10         0.00674
       5 -> 11        -0.00406
       5 -> 14         0.00312
       5 -> 15         0.00519
       5 -> 17         0.00078
       5 -> 20         0.00157
       5 -> 24        -0.00043
       5 -> 26        -0.00027
       5 -> 29        -0.00038
       5 -> 32        -0.00145
       5 -> 34         0.00038
       5 -> 35        -0.00032
       5 -> 39        -0.00053
       5 -> 41        -0.00018
       5 -> 43        -0.00031
       5 -> 45         0.00029
       5 -> 47        -0.00033
       5 -> 51         0.00024
       6 -> 12        -0.00189
       6 -> 16        -0.00042
       6 -> 19         0.00023
       6 -> 22        -0.00088
       6 -> 25         0.00014
       6 -> 30        -0.00072
       6 -> 40        -0.00048
       6 -> 42        -0.00018
       6 -> 49         0.00114
       7 -> 27        -0.00059
       7 -> 38        -0.00026
       7 -> 46         0.00157
       8 -> 10        -0.28233
       8 -> 11         0.64724
       8 -> 14        -0.00079
       8 -> 15        -0.03217
       8 -> 17        -0.00501
       8 -> 20         0.01480
       8 -> 21         0.00374
       8 -> 24        -0.00326
       8 -> 26         0.00174
       8 -> 29        -0.00256
       8 -> 32        -0.00052
       8 -> 34        -0.00072
       8 -> 35        -0.00060
       8 -> 39         0.00013
       8 -> 43         0.00027
       8 -> 45         0.00110
       8 -> 47        -0.00181
       8 -> 51         0.00088
       8 -> 54        -0.00031

 The electronic state is 1-A1.
 Alpha  occ. eigenvalues --  -19.17220 -10.32661  -0.92803  -0.69689  -0.48855
 Alpha  occ. eigenvalues --   -0.41544  -0.33025  -0.28963
 Alpha virt. eigenvalues --   -0.14569  -0.01387   0.01189   0.04089   0.06126
 Alpha virt. eigenvalues --    0.08882   0.12975   0.14438   0.18933   0.21398
 Alpha virt. eigenvalues --    0.23967   0.30167   0.39106   0.41106   0.50936

 Mulliken charges:
               1
     1  C   -0.061684
     2  H    0.179415
     3  H    0.179415
     4  O   -0.297147
 Sum of Mulliken charges =  -0.00000

 Dipole moment (field-independent basis, Debye):
    X=             -0.0000    Y=              0.0000    Z=             -3.7644  Tot=              3.7644
 Quadrupole moment (field-independent basis, Debye-Ang):
   XX=            -12.7396   YY=            -11.8906   ZZ=            -11.2987
   XY=              0.0000   XZ=              0.0000   YZ=              0.0000

 Normal termination of Gaussian 16 at Fri Sep 17 10:53:00 2021.
