 Gaussian 16, Revision A.03,
 Gaussian 16:  ES64L-G16RevA.03 25-Dec-2016

 --------------------------------------------------------------------
 #p B3LYP/6-311+G** #p TD=(singlets,nstates=30)IOp(6/8=3) IOp(9/40=4)
 --------------------------------------------------------------------

 -------------------------------
 Scan Step 148, Bond Length 1.24
 -------------------------------
 Symbolic Z-matrix:
 Charge =  0 Multiplicity = 1

                         Standard orientation:
 ---------------------------------------------------------------------
 Center     Atomic      Atomic             Coordinates (Angstroms)
 Number     Number       Type             X           Y           Z
 ---------------------------------------------------------------------
      1          6           0        0.000000    0.000000   -0.546081
      2          1           0        0.000000    0.937260   -1.137431
      3          1           0       -0.000000   -0.937260   -1.137431
      4          8           0        0.000000   -0.000000    0.693919
 ---------------------------------------------------------------------

 SCF Done:  E(RB3LYP) =  -114.539606308     A.U. after    9 cycles

 Excitation energies and oscillator strengths:

 Excited State   1:      Singlet-A2     3.7387 eV  331.63 nm  f=0.0000  <S**2>=0.000
       3 -> 27         0.00237
       3 -> 38         0.00200
       3 -> 45         0.00258
       4 -> 27         0.00179
       4 -> 38        -0.00052
       4 -> 45        -0.00133
       5 ->  9         0.02052
       5 -> 13        -0.00259
       5 -> 17         0.00547
       5 -> 29         0.00437
       5 -> 31        -0.00206
       5 -> 37         0.00327
       5 -> 44         0.00060
       5 -> 47         0.00014
       5 -> 52         0.00074
       6 -> 27        -0.00019
       6 -> 38        -0.00085
       6 -> 45         0.00178
       7 -> 12        -0.00062
       7 -> 15         0.00299
       7 -> 18        -0.00289
       7 -> 22         0.00057
       7 -> 25         0.00142
       7 -> 30        -0.00095
       7 -> 33         0.00044
       7 -> 35        -0.00024
       7 -> 40         0.00022
       7 -> 42        -0.00011
       7 -> 49         0.00031
       7 -> 50         0.00033
       7 -> 53         0.00047
       8 ->  9         0.70571
       8 -> 13        -0.03954
       8 -> 17         0.02290
       8 -> 23        -0.00983
       8 -> 29         0.00939
       8 -> 31        -0.00230
       8 -> 44        -0.00010
       8 -> 47        -0.00026
       8 -> 52         0.00172
       3 <- 27         0.00152
       3 <- 38         0.00165
       3 <- 45         0.00267
       4 <- 27         0.00260
       4 <- 45        -0.00112
       5 <-  9        -0.00047
       5 <- 13        -0.00081
       5 <- 17        -0.00100
       5 <- 23         0.00053
       5 <- 29        -0.00069
       5 <- 31         0.00085
       5 <- 37         0.00158
       5 <- 44         0.00024
       5 <- 47         0.00015
       5 <- 52         0.00020
       6 <- 27         0.00039
       6 <- 38        -0.00076
       6 <- 45         0.00139
       7 <- 12        -0.00073
       7 <- 15        -0.00748
       7 <- 18         0.00051
       7 <- 22         0.00738
       7 <- 30         0.00359
       7 <- 33        -0.00129
       7 <- 35        -0.00232
       7 <- 40         0.00096
       7 <- 49         0.00010
       7 <- 50         0.00022
       7 <- 53         0.00131
       8 <-  9        -0.02560
       8 <- 13         0.00280
       8 <- 17        -0.00447
       8 <- 23         0.00079
       8 <- 29        -0.00106
       8 <- 31        -0.00076
       8 <- 37        -0.00136
       8 <- 52         0.00049
 This state for optimization and/or second-order correction.
 Total Energy, E(TD-HF/TD-DFT) =  -114.402213076
 Copying the excited state density for this state as the 1-particle RhoCI density.

 Excited State   2:      Singlet-B2     6.8974 eV  179.76 nm  f=0.0261  <S**2>=0.000
       3 -> 12         0.00155
       3 -> 15         0.00071
       3 -> 18         0.00121
       3 -> 22        -0.00032
       3 -> 25         0.00127
       3 -> 33         0.00021
       3 -> 35         0.00043
       3 -> 40        -0.00013
       4 -> 12        -0.00297
       4 -> 15         0.00190
       4 -> 18         0.00201
       4 -> 22        -0.00329
       4 -> 25         0.00328
       4 -> 30         0.00032
       4 -> 33        -0.00045
       4 -> 35        -0.00056
       4 -> 40         0.00045
       4 -> 42        -0.00012
       5 -> 10        -0.00724
       5 -> 11        -0.00823
       5 -> 14         0.00701
       5 -> 16        -0.00078
       5 -> 19        -0.00050
       5 -> 20         0.00257
       5 -> 21         0.00586
       5 -> 24         0.00022
       5 -> 26         0.00237
       5 -> 28         0.00112
       5 -> 32        -0.00097
       5 -> 34        -0.00100
       5 -> 36        -0.00018
       5 -> 39        -0.00028
       5 -> 41        -0.00040
       5 -> 43        -0.00053
       5 -> 46        -0.00030
       5 -> 54         0.00012
       6 -> 12        -0.00020
       6 -> 15         0.00150
       6 -> 18         0.00183
       6 -> 22        -0.00246
       6 -> 25         0.00111
       6 -> 30        -0.00053
       6 -> 33        -0.00024
       6 -> 35        -0.00043
       6 -> 40        -0.00010
       6 -> 42        -0.00019
       6 -> 49         0.00047
       6 -> 50        -0.00028
       7 -> 27         0.00014
       7 -> 38        -0.00060
       7 -> 45         0.00036
       8 -> 10         0.70280
       8 -> 11        -0.07268
       8 -> 14         0.01555
       8 -> 16        -0.00556
       8 -> 19         0.00852
       8 -> 20         0.01581
       8 -> 21        -0.00277
       8 -> 26         0.00260
       8 -> 28         0.00082
       8 -> 32         0.00100
       8 -> 34         0.00108
       8 -> 36         0.00037
       8 -> 39         0.00036
       8 -> 41        -0.00020
       8 -> 43         0.00061
       8 -> 46        -0.00055
       8 -> 48         0.00015
       8 -> 54         0.00019
       3 <- 12         0.00036
       3 <- 15         0.00053
       3 <- 18         0.00046
       3 <- 22        -0.00047
       3 <- 25         0.00073
       3 <- 30        -0.00011
       3 <- 33         0.00018
       3 <- 35         0.00039
       3 <- 40        -0.00015
       3 <- 49         0.00011
       4 <- 12         0.00076
       4 <- 15         0.00194
       4 <- 18         0.00192
       4 <- 22        -0.00204
       4 <- 25         0.00224
       4 <- 30         0.00023
       4 <- 33        -0.00025
       4 <- 35        -0.00030
       4 <- 40         0.00013
       4 <- 42        -0.00023
       4 <- 50        -0.00013
       5 <- 10         0.00235
       5 <- 11        -0.00025
       5 <- 14         0.00479
       5 <- 16        -0.00067
       5 <- 20         0.00084
       5 <- 21         0.00199
       5 <- 24         0.00198
       5 <- 26         0.00151
       5 <- 28         0.00014
       5 <- 32        -0.00068
       5 <- 34        -0.00094
       5 <- 36        -0.00027
       5 <- 39        -0.00015
       5 <- 41        -0.00021
       5 <- 43        -0.00040
       5 <- 46        -0.00027
       6 <- 15        -0.00013
       6 <- 18         0.00111
       6 <- 22        -0.00064
       6 <- 25         0.00038
       6 <- 30         0.00030
       6 <- 33        -0.00029
       6 <- 35        -0.00051
       6 <- 40        -0.00010
       6 <- 42        -0.00017
       6 <- 49         0.00039
       6 <- 50        -0.00030
       6 <- 53         0.00015
       7 <- 27         0.00013
       7 <- 38        -0.00044
       7 <- 45         0.00033
       8 <- 10        -0.00165
       8 <- 11        -0.00052
       8 <- 14        -0.00506
       8 <- 16        -0.00046
       8 <- 20        -0.00063
       8 <- 21        -0.00173
       8 <- 24        -0.00214
       8 <- 26        -0.00075
       8 <- 28        -0.00052
       8 <- 32         0.00105
       8 <- 34         0.00017
       8 <- 36         0.00034
       8 <- 39         0.00027
       8 <- 43         0.00040
       8 <- 46        -0.00034

 Excited State   3:      Singlet-B2     7.6699 eV  161.65 nm  f=0.0265  <S**2>=0.000
       3 -> 12        -0.00033
       3 -> 15        -0.00087
       3 -> 18         0.00096
       3 -> 22         0.00046
       3 -> 25         0.00010
       3 -> 30         0.00229
       3 -> 33         0.00014
       3 -> 35         0.00053
       3 -> 40        -0.00048
       3 -> 49         0.00052
       3 -> 50        -0.00020
       4 -> 12         0.00262
       4 -> 15         0.00021
       4 -> 18         0.00216
       4 -> 22        -0.00149
       4 -> 25         0.00291
       4 -> 30        -0.00131
       4 -> 33         0.00049
       4 -> 35         0.00056
       4 -> 42        -0.00012
       4 -> 49         0.00024
       5 -> 10        -0.00657
       5 -> 11        -0.00018
       5 -> 14         0.00918
       5 -> 16        -0.00704
       5 -> 19        -0.00156
       5 -> 20        -0.00474
       5 -> 21         0.00192
       5 -> 24         0.00096
       5 -> 26         0.00129
       5 -> 28         0.00159
       5 -> 32        -0.00019
       5 -> 34        -0.00099
       5 -> 36        -0.00031
       5 -> 39         0.00042
       5 -> 41        -0.00071
       5 -> 43         0.00016
       5 -> 46         0.00090
       5 -> 51        -0.00042
       6 -> 12        -0.00298
       6 -> 15        -0.00163
       6 -> 18        -0.00081
       6 -> 22         0.00121
       6 -> 25         0.00016
       6 -> 30         0.00108
       6 -> 33        -0.00055
       6 -> 35        -0.00149
       6 -> 40         0.00108
       6 -> 49        -0.00120
       6 -> 50         0.00037
       6 -> 53         0.00011
       7 -> 38        -0.00088
       7 -> 45        -0.00187
       8 -> 10         0.07299
       8 -> 11         0.70236
       8 -> 14        -0.00415
       8 -> 16         0.00969
       8 -> 19        -0.03213
       8 -> 20         0.00368
       8 -> 21        -0.00294
       8 -> 24         0.00010
       8 -> 26        -0.00102
       8 -> 28         0.00158
       8 -> 32         0.00016
       8 -> 34        -0.00020
       8 -> 36        -0.00016
       8 -> 39        -0.00024
       8 -> 41        -0.00117
       8 -> 43         0.00035
       8 -> 46         0.00212
       8 -> 48        -0.00013
       8 -> 51        -0.00101
       3 <- 12         0.00034
       3 <- 15        -0.00027
       3 <- 18         0.00095
       3 <- 25         0.00027
       3 <- 30         0.00126
       3 <- 33         0.00025
       3 <- 35         0.00057
       3 <- 40        -0.00044
       3 <- 49         0.00046
       3 <- 50        -0.00013
       3 <- 53        -0.00030
       4 <- 12         0.00032
       4 <- 15         0.00080
       4 <- 18         0.00050
       4 <- 22        -0.00115
       4 <- 25         0.00123
       4 <- 30        -0.00066
       4 <- 33         0.00046
       4 <- 35         0.00024
       4 <- 42        -0.00012
       4 <- 49         0.00018
       5 <- 10         0.00123
       5 <- 11        -0.00127
       5 <- 14         0.00267
       5 <- 16        -0.00043
       5 <- 19         0.00125
       5 <- 20        -0.00046
       5 <- 21         0.00077
       5 <- 24         0.00139
       5 <- 28         0.00068
       5 <- 32        -0.00098
       5 <- 36         0.00015
       5 <- 39         0.00011
       5 <- 41        -0.00074
       5 <- 46         0.00084
       5 <- 48        -0.00013
       5 <- 51        -0.00030
       6 <- 12        -0.00030
       6 <- 15        -0.00087
       6 <- 18         0.00023
       6 <- 22         0.00080
       6 <- 25        -0.00013
       6 <- 30         0.00092
       6 <- 33        -0.00043
       6 <- 35        -0.00125
       6 <- 40         0.00084
       6 <- 49        -0.00098
       6 <- 50         0.00029
       7 <- 27         0.00028
       7 <- 38        -0.00070
       7 <- 45        -0.00157
       8 <- 10        -0.00073
       8 <- 11        -0.00130
       8 <- 14        -0.00364
       8 <- 16         0.00043
       8 <- 19         0.00474
       8 <- 20        -0.00054
       8 <- 21        -0.00199
       8 <- 24         0.00041
       8 <- 26        -0.00166
       8 <- 28         0.00046
       8 <- 32        -0.00119
       8 <- 34         0.00149
       8 <- 39        -0.00063
       8 <- 41        -0.00106
       8 <- 43         0.00017
       8 <- 46         0.00169
       8 <- 48        -0.00028
       8 <- 51        -0.00068

 Excited State   4:      Singlet-A1     7.8939 eV  157.06 nm  f=0.0446  <S**2>=0.000
       3 -> 10         0.00208
       3 -> 11        -0.00060
       3 -> 14         0.00112
       3 -> 19        -0.00111
       3 -> 20         0.00213
       3 -> 21         0.00098
       3 -> 24        -0.00076
       3 -> 26         0.00126
       3 -> 28         0.00087
       3 -> 32         0.00012
       3 -> 34        -0.00075
       3 -> 36        -0.00016
       3 -> 41        -0.00020
       3 -> 46         0.00017
       3 -> 48        -0.00031
       3 -> 51        -0.00017
       3 -> 54        -0.00018
       4 -> 10         0.00476
       4 -> 11         0.00484
       4 -> 14         0.00458
       4 -> 16         0.00057
       4 -> 19         0.00020
       4 -> 20         0.00336
       4 -> 21        -0.00013
       4 -> 24         0.00695
       4 -> 26         0.00203
       4 -> 28        -0.00032
       4 -> 32        -0.00063
       4 -> 34         0.00014
       4 -> 43         0.00016
       4 -> 46        -0.00020
       4 -> 51        -0.00014
       5 -> 12         0.00573
       5 -> 15         0.00298
       5 -> 18         0.00961
       5 -> 22        -0.00251
       5 -> 25         0.00542
       5 -> 30        -0.00028
       5 -> 33        -0.00019
       5 -> 35        -0.00074
       5 -> 50         0.00018
       5 -> 53        -0.00012
       6 -> 10         0.01126
       6 -> 11        -0.00233
       6 -> 14         0.00421
       6 -> 16         0.00019
       6 -> 19         0.00183
       6 -> 20         0.00287
       6 -> 21        -0.00053
       6 -> 24         0.00427
       6 -> 26        -0.00030
       6 -> 28        -0.00213
       6 -> 32        -0.00031
       6 -> 39         0.00018
       6 -> 43         0.00015
       6 -> 48         0.00069
       6 -> 51         0.00019
       6 -> 54        -0.00011
       7 ->  9         0.02630
       7 -> 13         0.01163
       7 -> 17         0.00130
       7 -> 23         0.00518
       7 -> 29        -0.00077
       7 -> 31        -0.00095
       7 -> 37         0.00058
       7 -> 44         0.00063
       7 -> 47        -0.00032
       7 -> 52        -0.00011
       8 -> 12         0.70559
       8 -> 15        -0.00192
       8 -> 18         0.02984
       8 -> 22         0.00318
       8 -> 25         0.00441
       8 -> 30        -0.00048
       8 -> 33         0.00165
       8 -> 35         0.00197
       8 -> 40         0.00045
       8 -> 42         0.00012
       8 -> 49        -0.00046
       8 -> 50         0.00025
       8 -> 53        -0.00025
       3 <- 10         0.00064
       3 <- 11         0.00024
       3 <- 14         0.00058
       3 <- 16         0.00013
       3 <- 19        -0.00074
       3 <- 20         0.00094
       3 <- 21         0.00066
       3 <- 24        -0.00018
       3 <- 26         0.00085
       3 <- 28         0.00058
       3 <- 32         0.00023
       3 <- 34        -0.00052
       3 <- 36        -0.00012
       3 <- 41        -0.00012
       3 <- 46         0.00026
       3 <- 48        -0.00025
       3 <- 51        -0.00014
       3 <- 54        -0.00016
       4 <- 10         0.00403
       4 <- 11         0.00100
       4 <- 14         0.00338
       4 <- 20         0.00194
       4 <- 21        -0.00024
       4 <- 24         0.00375
       4 <- 26         0.00124
       4 <- 32        -0.00080
       4 <- 34        -0.00026
       4 <- 39        -0.00011
       4 <- 41        -0.00011
       4 <- 43         0.00012
       4 <- 46        -0.00015
       4 <- 51        -0.00013
       5 <- 12         0.00270
       5 <- 15         0.00284
       5 <- 18         0.00339
       5 <- 22        -0.00095
       5 <- 25         0.00295
       5 <- 30        -0.00016
       5 <- 33        -0.00035
       5 <- 35        -0.00067
       5 <- 50         0.00011
       5 <- 53        -0.00011
       6 <- 10         0.00268
       6 <- 14         0.00159
       6 <- 19         0.00043
       6 <- 20         0.00130
       6 <- 21        -0.00045
       6 <- 24         0.00207
       6 <- 28        -0.00139
       6 <- 32        -0.00036
       6 <- 34        -0.00014
       6 <- 41         0.00011
       6 <- 46        -0.00015
       6 <- 48         0.00057
       6 <- 51         0.00022
       6 <- 54        -0.00010
       7 <-  9        -0.00103
       7 <- 13         0.00241
       7 <- 23         0.00259
       7 <- 29        -0.00061
       7 <- 31        -0.00064
       7 <- 37         0.00045
       7 <- 44         0.00052
       7 <- 47        -0.00028
       8 <- 12        -0.00055
       8 <- 15        -0.00446
       8 <- 18        -0.00165
       8 <- 22         0.00039
       8 <- 25        -0.00144
       8 <- 30        -0.00097
       8 <- 33         0.00064
       8 <- 35         0.00076
       8 <- 40         0.00049
       8 <- 42         0.00013
       8 <- 49        -0.00046
       8 <- 50         0.00016
       8 <- 53        -0.00025

 Excited State   5:      Singlet-A2     8.4076 eV  147.47 nm  f=0.0000  <S**2>=0.000
       3 -> 27        -0.00041
       3 -> 38        -0.00036
       3 -> 45        -0.00017
       4 -> 27         0.00017
       4 -> 38         0.00045
       5 ->  9        -0.00322
       5 -> 13        -0.00546
       5 -> 17         0.00665
       5 -> 23        -0.00218
       5 -> 29        -0.00021
       5 -> 31         0.00130
       5 -> 37        -0.00088
       5 -> 44        -0.00018
       6 -> 27         0.00023
       6 -> 38         0.00030
       6 -> 45        -0.00018
       7 -> 15        -0.00192
       7 -> 18         0.00203
       7 -> 22        -0.00073
       7 -> 35         0.00012
       8 ->  9         0.03905
       8 -> 13         0.70544
       8 -> 17         0.02181
       8 -> 23         0.01608
       8 -> 29         0.00022
       8 -> 31         0.00170
       8 -> 37        -0.00039
       8 -> 47         0.00017
       3 <- 27        -0.00010
       3 <- 38        -0.00021
       3 <- 45        -0.00025
       5 <-  9        -0.00039
       5 <- 13        -0.00032
       5 <- 17         0.00048
       5 <- 37        -0.00018
       6 <- 38         0.00018
       7 <- 12        -0.00055
       7 <- 15        -0.00107
       7 <- 18         0.00078
       7 <- 22        -0.00086
       7 <- 25        -0.00042
       7 <- 30         0.00023
       7 <- 33         0.00034
       7 <- 35         0.00055
       7 <- 40        -0.00034
       8 <-  9         0.00135
       8 <- 13         0.00121
       8 <- 17         0.00024
       8 <- 23        -0.00012
       8 <- 37         0.00011

 Excited State   6:      Singlet-B1     8.6662 eV  143.07 nm  f=0.0011  <S**2>=0.000
       3 ->  9        -0.03315
       3 -> 13         0.00549
       3 -> 17        -0.00719
       3 -> 23         0.00426
       3 -> 29        -0.00275
       3 -> 31        -0.00013
       3 -> 44         0.00069
       3 -> 52         0.00113
       4 ->  9         0.01697
       4 -> 13        -0.00279
       4 -> 17         0.00104
       4 -> 23        -0.00248
       4 -> 31        -0.00264
       4 -> 37        -0.00037
       4 -> 44        -0.00010
       4 -> 47        -0.00165
       4 -> 52        -0.00099
       5 -> 27        -0.00183
       5 -> 38         0.00218
       5 -> 45         0.00312
       6 ->  9         0.70475
       6 -> 13        -0.03778

 The electronic state is 1-A1.
 Alpha  occ. eigenvalues --  -19.15351 -10.28499  -1.05682  -0.65122  -0.50184
 Alpha  occ. eigenvalues --   -0.45987  -0.40265  -0.28425
 Alpha virt. eigenvalues --   -0.07421   0.00664   0.03831   0.04240   0.06400
 Alpha virt. eigenvalues --    0.12750   0.17404   0.18658   0.21948   0.23331
 Alpha virt. eigenvalues --    0.26444   0.32033   0.44555   0.45835   0.50922

 Mulliken charges:
               1
     1  C    0.009757
     2  H    0.121237
     3  H    0.121237
     4  O   -0.252231
 Sum of Mulliken charges =  -0.00000

 Dipole moment (field-independent basis, Debye):
    X=             -0.0000    Y=             -0.0000    Z=             -2.6507  Tot=              2.6507
 Quadrupole moment (field-independent basis, Debye-Ang):
   XX=            -11.8627   YY=            -11.7322   ZZ=            -12.3399
   XY=              0.0000   XZ=              0.0000   YZ=              0.0000

 Normal termination of Gaussian 16 at Fri Sep 17 10:52:45 2021.
