 Gaussian 16, Revision A.03,
 Gaussian 16:  ES64L-G16RevA.03 25-Dec-2016

 --------------------------------------------------------------------
 #p B3LYP/6-311+G** #p TD=(singlets,nstates=30)IOp(6/8=3) IOp(9/40=4)
 --------------------------------------------------------------------

 -------------------------------
 Scan Step 292, Bond Length 1.96
 -------------------------------
 Symbolic Z-matrix:
 Charge =  0 Multiplicity = 1

                         Standard orientation:
 ---------------------------------------------------------------------
 Center     Atomic      Atomic             Coordinates (Angstroms)
 Number     Number       Type             X           Y           Z
 ---------------------------------------------------------------------
      1          6           0        0.000000   -0.000000   -0.906081
      2          1           0        0.000000    0.937260   -1.497431
      3          1           0       -0.000000   -0.937260   -1.497431
      4          8           0        0.000000    0.000000    1.053919
 ---------------------------------------------------------------------

 SCF Done:  E(RB3LYP) =  -114.307446298     A.U. after   13 cycles

 Excitation energies and oscillator strengths:

 Excited State   1:      Singlet-A2     1.0391 eV 1193.22 nm  f=0.0000  <S**2>=0.000
       3 -> 27         0.00056
       3 -> 38         0.00032
       3 -> 47         0.00326
       4 -> 27         0.00027
       4 -> 47        -0.00077
       5 -> 14         0.00103
       5 -> 18         0.00126
       5 -> 23         0.00116
       5 -> 28         0.00090
       5 -> 37         0.00055
       5 -> 44         0.00016
       5 -> 52         0.00012
       6 -> 27        -0.00051
       6 -> 38        -0.00046
       6 -> 47         0.00076
       7 -> 12        -0.00147
       7 -> 16         0.00540
       7 -> 19        -0.00499
       7 -> 22        -0.00113
       7 -> 25        -0.00041
       7 -> 30        -0.00206
       7 -> 33         0.00025
       7 -> 49         0.00012
       7 -> 53         0.00035
       8 ->  9         0.71222
       8 -> 14        -0.00477
       8 -> 18         0.02016
       8 -> 23        -0.00025
       8 -> 28         0.00966
       8 -> 31         0.00156
       8 -> 37         0.00045
       8 -> 46        -0.00027
       8 -> 52         0.00178
       3 <- 38         0.00012
       3 <- 47         0.00328
       4 <- 27         0.00053
       4 <- 38         0.00015
       4 <- 47        -0.00058
       5 <-  9         0.00065
       5 <- 14        -0.00026
       5 <- 18        -0.00026
       5 <- 23         0.00013
       5 <- 28        -0.00021
       5 <- 31         0.00018
       5 <- 37         0.00031
       6 <- 38        -0.00033
       6 <- 47         0.00053
       7 <- 12         0.00232
       7 <- 16        -0.01042
       7 <- 19         0.00635
       7 <- 22         0.00494
       7 <- 25        -0.00063
       7 <- 30         0.00566
       7 <- 33        -0.00033
       7 <- 49        -0.00046
       7 <- 53         0.00142
       8 <-  9        -0.08701
       8 <- 14        -0.00079
       8 <- 18        -0.00807
       8 <- 23        -0.00049
       8 <- 28        -0.00281
       8 <- 31        -0.00086
       8 <- 37        -0.00013
       8 <- 46         0.00013
       8 <- 52         0.00040
 This state for optimization and/or second-order correction.
 Total Energy, E(TD-HF/TD-DFT) =  -114.269261235
 Copying the excited state density for this state as the 1-particle RhoCI density.

 Excited State   2:      Singlet-B2     2.6804 eV  462.56 nm  f=0.0012  <S**2>=0.000
       3 -> 12        -0.00099
       3 -> 16         0.00079
       3 -> 19        -0.00327
       3 -> 22         0.00113
       3 -> 25        -0.00087
       3 -> 30        -0.00211
       3 -> 33         0.00036
       3 -> 35         0.00097
       3 -> 40        -0.00102
       3 -> 42        -0.00026
       3 -> 49        -0.00409
       3 -> 51         0.00013
       3 -> 53         0.00022
       4 -> 12         0.00029
       4 -> 16        -0.00108
       4 -> 19         0.00025
       4 -> 22         0.00136
       4 -> 25         0.00038
       4 -> 30         0.00061
       4 -> 33        -0.00025
       4 -> 35         0.00038
       4 -> 40         0.00018
       4 -> 49         0.00071
       5 -> 10         0.00850
       5 -> 11         0.00078
       5 -> 13        -0.00193
       5 -> 15         0.00231
       5 -> 17        -0.00052
       5 -> 20         0.00175
       5 -> 21         0.00214
       5 -> 24         0.00120
       5 -> 26        -0.00016
       5 -> 29        -0.00198
       5 -> 32        -0.00053
       5 -> 39         0.00048
       5 -> 41         0.00031
       5 -> 48        -0.00025
       5 -> 50         0.00017
       5 -> 54        -0.00015
       6 -> 12         0.00233
       6 -> 16        -0.00293
       6 -> 19         0.00439
       6 -> 22        -0.00071
       6 -> 25         0.00115
       6 -> 30         0.00053
       6 -> 33        -0.00024
       6 -> 35        -0.00093
       6 -> 40         0.00055
       6 -> 42         0.00050
       6 -> 49         0.00089
       6 -> 53        -0.00044
       7 -> 27        -0.00041
       7 -> 38         0.00022
       7 -> 47         0.00254
       8 -> 10         0.70721
       8 -> 11         0.03958
       8 -> 13        -0.03743
       8 -> 15        -0.01652
       8 -> 17        -0.01645
       8 -> 20         0.00738
       8 -> 21         0.00434
       8 -> 24        -0.00470
       8 -> 26        -0.00339
       8 -> 29        -0.01372
       8 -> 32         0.00206
       8 -> 34        -0.00085
       8 -> 36         0.00190
       8 -> 39         0.00019
       8 -> 41        -0.00017
       8 -> 45        -0.00073
       8 -> 48        -0.00309
       8 -> 50         0.00100
       8 -> 54        -0.00252
       3 <- 12        -0.00034
       3 <- 16         0.00031
       3 <- 19        -0.00166
       3 <- 22         0.00085
       3 <- 25        -0.00079
       3 <- 30        -0.00087
       3 <- 33         0.00034
       3 <- 35         0.00057
       3 <- 40        -0.00088
       3 <- 42        -0.00010
       3 <- 49        -0.00413
       3 <- 51         0.00013
       3 <- 53         0.00062
       4 <- 12         0.00012
       4 <- 16        -0.00144
       4 <- 19         0.00019
       4 <- 22         0.00177
       4 <- 25         0.00016
       4 <- 30         0.00092
       4 <- 33        -0.00025
       4 <- 35         0.00053
       4 <- 49         0.00049
       5 <- 10        -0.00097
       5 <- 11        -0.00039
       5 <- 13        -0.00032
       5 <- 15         0.00192
       5 <- 17         0.00019
       5 <- 20         0.00074
       5 <- 21         0.00133
       5 <- 24         0.00129
       5 <- 29        -0.00044
       5 <- 32        -0.00019
       5 <- 39         0.00025
       5 <- 41         0.00034
       5 <- 45        -0.00016
       5 <- 48        -0.00027
       6 <- 12        -0.00122
       6 <- 16         0.00847
       6 <- 19        -0.00503
       6 <- 22        -0.00520
       6 <- 25         0.00141
       6 <- 30        -0.00633
       6 <- 33         0.00013
       6 <- 35        -0.00070
       6 <- 40         0.00053
       6 <- 42         0.00045
       6 <- 49         0.00144
       6 <- 53        -0.00146
       7 <- 27        -0.00043
       7 <- 38         0.00018
       7 <- 47         0.00222
       8 <- 10        -0.06165
       8 <- 11        -0.00688
       8 <- 13         0.00650
       8 <- 15         0.00225
       8 <- 17         0.00300
       8 <- 20        -0.00377
       8 <- 21        -0.00086
       8 <- 24         0.00131
       8 <- 26         0.00078
       8 <- 29         0.00316
       8 <- 32         0.00179
       8 <- 34         0.00072
       8 <- 36        -0.00096
       8 <- 39        -0.00071
       8 <- 41         0.00012
       8 <- 43         0.00025
       8 <- 45        -0.00135
       8 <- 48        -0.00262
       8 <- 50         0.00102
       8 <- 54        -0.00065

 Excited State   3:      Singlet-A1     2.7038 eV  458.56 nm  f=0.0188  <S**2>=0.000
       3 -> 10        -0.01102
       3 -> 11        -0.00179
       3 -> 13        -0.00016
       3 -> 17        -0.00278
       3 -> 20        -0.00302
       3 -> 21         0.00074
       3 -> 26         0.00052
       3 -> 29         0.00023
       3 -> 32         0.00248
       3 -> 34         0.00088
       3 -> 36        -0.00085
       3 -> 39        -0.00024
       3 -> 43         0.00040
       3 -> 45        -0.00135
       3 -> 48         0.00231
       3 -> 50         0.00169
       3 -> 54        -0.00015
       4 -> 10         0.00043
       4 -> 11         0.00850
       4 -> 13         0.00110
       4 -> 15        -0.00662
       4 -> 17         0.00179
       4 -> 20         0.00123
       4 -> 21         0.00016
       4 -> 24        -0.00346
       4 -> 26         0.00243
       4 -> 32        -0.00093
       4 -> 34        -0.00058
       4 -> 39        -0.00030
       4 -> 43        -0.00038
       4 -> 45         0.00072
       4 -> 48        -0.00061
       4 -> 50        -0.00020
       4 -> 54         0.00012
       5 -> 12         0.00710
       5 -> 16         0.00068
       5 -> 19         0.00088
       5 -> 22         0.00591
       5 -> 25        -0.00322
       5 -> 30         0.00030
       5 -> 33        -0.00215
       5 -> 35         0.00267
       5 -> 40        -0.00083
       5 -> 42        -0.00097
       5 -> 51        -0.00092
       6 -> 10         0.26804
       6 -> 11         0.02543
       6 -> 13        -0.02651
       6 -> 15        -0.01658
       6 -> 17        -0.01375
       6 -> 20         0.00031
       6 -> 21         0.00311
       6 -> 24        -0.00590
       6 -> 26        -0.00198
       6 -> 29        -0.00143
       6 -> 32         0.00484
       6 -> 34         0.00135
       6 -> 36         0.00084
       6 -> 39        -0.00160
       6 -> 43         0.00074
       6 -> 45        -0.00101
       6 -> 48         0.00064
       6 -> 50         0.00039
       6 -> 54        -0.00099
       7 ->  9         0.67202
       7 -> 14        -0.00843
       7 -> 18        -0.00759
       7 -> 23        -0.00321
       7 -> 28         0.00187
       7 -> 31        -0.00330
       7 -> 37         0.00136
       7 -> 44        -0.00095
       7 -> 52         0.00104
       8 -> 12        -0.00670
       8 -> 16         0.02679
       8 -> 19        -0.01583
       8 -> 22        -0.00837
       8 -> 30        -0.00647
       8 -> 33         0.00070
       8 -> 35        -0.00033
       8 -> 42         0.00013
       8 -> 49        -0.00012
       8 -> 51         0.00011
       8 -> 53        -0.00046
       3 <- 10        -0.00932
       3 <- 11        -0.00183
       3 <- 13        -0.00020
       3 <- 15        -0.00043
       3 <- 17        -0.00168
       3 <- 20        -0.00281
       3 <- 21         0.00034
       3 <- 24        -0.00043
       3 <- 26        -0.00022
       3 <- 29         0.00048
       3 <- 32         0.00207
       3 <- 34         0.00045
       3 <- 36        -0.00094
       3 <- 39        -0.00016
       3 <- 43         0.00041
       3 <- 45        -0.00143
       3 <- 48         0.00230
       3 <- 50         0.00170
       4 <- 10         0.00144
       4 <- 11         0.00671
       4 <- 13         0.00109
       4 <- 15        -0.00485
       4 <- 17         0.00116
       4 <- 20         0.00188
       4 <- 24        -0.00277
       4 <- 26         0.00226
       4 <- 29        -0.00042
       4 <- 32        -0.00087
       4 <- 34        -0.00050
       4 <- 36         0.00018
       4 <- 39        -0.00035
       4 <- 43        -0.00034
       4 <- 45         0.00062
       4 <- 48        -0.00036
       4 <- 54         0.00010
       5 <- 12         0.00478
       5 <- 16         0.00056
       5 <- 19         0.00077
       5 <- 22         0.00453
       5 <- 25        -0.00266
       5 <- 30         0.00031
       5 <- 33        -0.00186
       5 <- 35         0.00237
       5 <- 40        -0.00077
       5 <- 42        -0.00088
       5 <- 51        -0.00087
       6 <- 10         0.09585
       6 <- 11         0.01196
       6 <- 13        -0.01425
       6 <- 15        -0.00980
       6 <- 17        -0.00907
       6 <- 20        -0.00112
       6 <- 21         0.00244
       6 <- 24        -0.00405
       6 <- 26        -0.00077
       6 <- 29        -0.00044
       6 <- 32         0.00448
       6 <- 34         0.00150
       6 <- 36         0.00038
       6 <- 39        -0.00143
       6 <- 43         0.00064
       6 <- 45        -0.00073
       6 <- 48         0.00035
       6 <- 50         0.00026
       6 <- 54        -0.00093
       7 <-  9        -0.12839
       7 <- 14         0.00172
       7 <- 18        -0.00997
       7 <- 23        -0.00019
       7 <- 28        -0.00094
       7 <- 31        -0.00155
       7 <- 37         0.00066
       7 <- 44        -0.00087
       7 <- 46        -0.00047
       7 <- 52         0.00098
       8 <- 12        -0.00336
       8 <- 16         0.01541
       8 <- 19        -0.01025
       8 <- 22        -0.00602
       8 <- 25         0.00012
       8 <- 30        -0.00542
       8 <- 33         0.00057
       8 <- 35        -0.00025
       8 <- 49        -0.00022
       8 <- 53        -0.00043

 Excited State   4:      Singlet-B1     2.9605 eV  418.79 nm  f=0.0002  <S**2>=0.000
       3 ->  9        -0.01669
       3 -> 14         0.00045
       3 -> 18        -0.00325
       3 -> 23         0.00101
       3 -> 28        -0.00145
       3 -> 31        -0.00113
       3 -> 37         0.00016
       3 -> 44         0.00013
       3 -> 46        -0.00159
       3 -> 52         0.00043
       4 ->  9        -0.00520
       4 -> 14         0.00081
       4 -> 18         0.00026
       4 -> 23         0.00063
       4 -> 28         0.00064
       4 -> 31        -0.00071
       4 -> 46         0.00016
       4 -> 52        -0.00011
       5 -> 27        -0.00216
       5 -> 38        -0.00016
       5 -> 47         0.00028
       6 ->  9         0.43008
       6 -> 14        -0.01161
       6 -> 18         0.01106
       6 -> 23        -0.00720
       6 -> 28         0.00377
       6 -> 31         0.00017
       6 -> 44        -0.00078
       6 -> 46         0.00201
       6 -> 52         0.00027
       7 -> 10         0.56716
       7 -> 11         0.03245
       7 -> 13        -0.03203
       7 -> 15        -0.01598
       7 -> 17        -0.01306
       7 -> 20         0.00475
       7 -> 21         0.00247
       7 -> 24        -0.00608
       7 -> 26        -0.00438
       7 -> 29        -0.00853
       7 -> 32         0.00191
       7 -> 34        -0.00087
       7 -> 36         0.00093
       7 -> 41        -0.00013
       7 -> 43         0.00044
       7 -> 45        -0.00111
       7 -> 48         0.00277
       7 -> 50         0.00083
       7 -> 54        -0.00124
       8 -> 27         0.00013
       8 -> 47         0.00335
       3 <-  9        -0.00556
       3 <- 14        -0.00043
       3 <- 18        -0.00207
       3 <- 23        -0.00010
       3 <- 28        -0.00094
       3 <- 31        -0.00063
       3 <- 44        -0.00018
       3 <- 46        -0.00154
       3 <- 52         0.00059
       4 <-  9        -0.00228
       4 <- 14         0.00084
       4 <- 18         0.00102
       4 <- 23         0.00065
       4 <- 28         0.00132
       4 <- 31        -0.00055
       4 <- 44        -0.00036
       5 <- 27        -0.00206
       5 <- 47         0.00027
       6 <-  9        -0.06560
       6 <- 14         0.00232
       6 <- 18        -0.00697
       6 <- 23         0.00092
       6 <- 28        -0.00416
       6 <- 31        -0.00244
       6 <- 37         0.00022
       6 <- 44         0.00045
       6 <- 46         0.00202
       6 <- 52        -0.00082
       7 <- 10        -0.07275
       7 <- 11        -0.00822
       7 <- 13         0.01048
       7 <- 15         0.00485
       7 <- 17         0.00389
       7 <- 20        -0.00079
       7 <- 21        -0.00261
       7 <- 24         0.00244
       7 <- 26         0.00156
       7 <- 29         0.00245
       7 <- 36        -0.00035
       7 <- 39        -0.00032
       7 <- 41         0.00024
       7 <- 43         0.00023
       7 <- 45        -0.00080
       7 <- 48         0.00254
       7 <- 50         0.00112
       7 <- 54         0.00017
       8 <- 27         0.00039
       8 <- 47         0.00305

 Excited State   5:      Singlet-B1     3.5351 eV  350.73 nm  f=0.0051  <S**2>=0.000
       3 ->  9        -0.00733
       3 -> 14         0.00032
       3 -> 23         0.00025
       3 -> 28         0.00149
       3 -> 31         0.00072
       3 -> 44         0.00041
       3 -> 46         0.00313
       3 -> 52         0.00045
       4 ->  9         0.02799
       4 -> 14        -0.00570
       4 -> 18        -0.00051
       4 -> 23        -0.00456
       4 -> 28        -0.00024
       4 -> 31        -0.00090
       4 -> 37        -0.00035
       4 -> 44         0.00037
       4 -> 46        -0.00090
       4 -> 52        -0.00021
       5 -> 27         0.00534
       5 -> 38         0.00378
       6 ->  9         0.56435
       6 -> 14        -0.01074
       6 -> 18         0.00528
       6 -> 23        -0.00701
       6 -> 28        -0.00105
       6 -> 31         0.00448
       6 -> 37        -0.00287
       6 -> 44        -0.00144
       6 -> 46         0.00198
       6 -> 52         0.00109
       7 -> 10        -0.42424
       7 -> 11        -0.01805
       7 -> 13         0.01908
       7 -> 15         0.01630
       7 -> 17         0.00328
       7 -> 20         0.00239
       7 -> 21        -0.00093
       7 -> 24         0.00547
       7 -> 26         0.00255
       7 -> 29         0.00488
       7 -> 34         0.00301
       7 -> 36         0.00149
       7 -> 39        -0.00059
       7 -> 43        -0.00021
       7 -> 45         0.00039
       7 -> 48         0.00105
       7 -> 50         0.00053
       7 -> 54         0.00138
       8 -> 27        -0.00039
       8 -> 38        -0.00016
       8 -> 47         0.00122
       3 <-  9        -0.00243
       3 <- 14        -0.00098
       3 <- 18        -0.00046
       3 <- 23        -0.00066
       3 <- 28         0.00119
       3 <- 31        -0.00030
       3 <- 37         0.00034
       3 <- 44         0.00040
       3 <- 46         0.00321
       3 <- 52         0.00013
       4 <-  9         0.01540
       4 <- 14        -0.00299
       4 <- 18         0.00039
       4 <- 23        -0.00304
       4 <- 31        -0.00068
       4 <- 37        -0.00030
       4 <- 44         0.00041
       4 <- 46        -0.00056
       4 <- 52        -0.00015
       5 <- 27         0.00393
       5 <- 38         0.00327
       6 <-  9         0.00522
       6 <- 14         0.00167
       6 <- 18         0.00046
       6 <- 23        -0.00030
       6 <- 28        -0.00188
       6 <- 31         0.00451
       6 <- 37        -0.00271
       6 <- 44        -0.00088
       6 <- 46         0.00123
       6 <- 52         0.00108
       7 <- 10        -0.01339
       7 <- 11        -0.00233
       7 <- 13         0.00459
       7 <- 15         0.00801
       7 <- 17         0.00110
       7 <- 20         0.00489
       7 <- 21        -0.00037
       7 <- 24         0.00403
       7 <- 26         0.00116
       7 <- 29         0.00101
       7 <- 32        -0.00118
       7 <- 34         0.00213
       7 <- 36         0.00231
       7 <- 39        -0.00030
       7 <- 43        -0.00032
       7 <- 45         0.00053
       7 <- 48         0.00112
       7 <- 50         0.00083
       7 <- 54         0.00113
       8 <- 47         0.00138

 Excited State   6:      Singlet-A2     6.6886 eV  185.37 nm  f=0.0000  <S**2>=0.000
       3 -> 27        -0.00092
       3 -> 38        -0.00024
       4 -> 27        -0.00604
       4 -> 38         0.00044
       4 -> 47        -0.00016

 The electronic state is 1-A1.
 Alpha  occ. eigenvalues --  -19.17821 -10.34374  -0.88030  -0.72115  -0.49511
 Alpha  occ. eigenvalues --   -0.37459  -0.29803  -0.28518
 Alpha virt. eigenvalues --   -0.18229  -0.10641  -0.00334   0.04024   0.06059
 Alpha virt. eigenvalues --    0.06081   0.11454   0.12838   0.18558   0.20816
 Alpha virt. eigenvalues --    0.23857   0.30408   0.38471   0.39038   0.50366

 Mulliken charges:
               1
     1  C   -0.111657
     2  H    0.195154
     3  H    0.195154
     4  O   -0.278651
 Sum of Mulliken charges =  -0.00000

 Dipole moment (field-independent basis, Debye):
    X=             -0.0000    Y=              0.0000    Z=             -4.3863  Tot=              4.3863
 Quadrupole moment (field-independent basis, Debye-Ang):
   XX=            -13.1309   YY=            -12.1188   ZZ=            -10.2576
   XY=              0.0000   XZ=              0.0000   YZ=             -0.0000

 Normal termination of Gaussian 16 at Fri Sep 17 10:53:16 2021.
