 Gaussian 16, Revision A.03,
 Gaussian 16:  ES64L-G16RevA.03 25-Dec-2016

 --------------------------------------------------------------------
 #p B3LYP/6-311+G** #p TD=(singlets,nstates=30)IOp(6/8=3) IOp(9/40=4)
 --------------------------------------------------------------------

 --------------------------------
 Scan Step 249, Bond Length 1.745
 --------------------------------
 Symbolic Z-matrix:
 Charge =  0 Multiplicity = 1

                         Standard orientation:
 ---------------------------------------------------------------------
 Center     Atomic      Atomic             Coordinates (Angstroms)
 Number     Number       Type             X           Y           Z
 ---------------------------------------------------------------------
      1          6           0        0.000000    0.000000   -0.798581
      2          1           0        0.000000    0.937260   -1.389931
      3          1           0       -0.000000   -0.937260   -1.389931
      4          8           0        0.000000   -0.000000    0.946419
 ---------------------------------------------------------------------

 SCF Done:  E(RB3LYP) =  -114.375255230     A.U. after   11 cycles

 Excitation energies and oscillator strengths:

 Excited State   1:      Singlet-A2     1.5123 eV  819.83 nm  f=0.0000  <S**2>=0.000
       3 -> 27         0.00086
       3 -> 38         0.00058
       3 -> 46         0.00336
       4 -> 27         0.00048
       4 -> 46        -0.00110
       5 ->  9         0.00345
       5 -> 13         0.00111
       5 -> 18         0.00209
       5 -> 23         0.00150
       5 -> 28         0.00170
       5 -> 37         0.00094
       5 -> 44         0.00025
       5 -> 52         0.00023
       6 -> 27        -0.00061
       6 -> 38        -0.00064
       6 -> 46         0.00109
       7 -> 12        -0.00114
       7 -> 16         0.00514
       7 -> 19        -0.00444
       7 -> 22        -0.00104
       7 -> 25        -0.00070
       7 -> 29        -0.00178
       7 -> 33         0.00031
       7 -> 49         0.00013
       7 -> 51         0.00011
       7 -> 53         0.00041
       8 ->  9         0.70987
       8 -> 13        -0.00877
       8 -> 18         0.02116
       8 -> 23        -0.00172
       8 -> 28         0.01065
       8 -> 31         0.00151
       8 -> 37         0.00054
       8 -> 48        -0.00031
       8 -> 52         0.00190
       3 <- 27         0.00030
       3 <- 38         0.00034
       3 <- 46         0.00339
       4 <- 27         0.00088
       4 <- 38         0.00021
       4 <- 46        -0.00087
       5 <-  9         0.00013
       5 <- 13        -0.00040
       5 <- 18        -0.00048
       5 <- 23         0.00020
       5 <- 28        -0.00034
       5 <- 31         0.00026
       5 <- 37         0.00054
       6 <- 38        -0.00050
       6 <- 46         0.00081
       7 <- 12         0.00138
       7 <- 16        -0.01046
       7 <- 19         0.00493
       7 <- 22         0.00623
       7 <- 25        -0.00061
       7 <- 29         0.00553
       7 <- 33        -0.00038
       7 <- 35         0.00035
       7 <- 40        -0.00023
       7 <- 42         0.00016
       7 <- 49        -0.00047
       7 <- 53         0.00146
       8 <-  9        -0.06611
       8 <- 13        -0.00013
       8 <- 18        -0.00735
       8 <- 23        -0.00017
       8 <- 28        -0.00265
       8 <- 31        -0.00075
       8 <- 37        -0.00028
       8 <- 48         0.00012
       8 <- 52         0.00047
 This state for optimization and/or second-order correction.
 Total Energy, E(TD-HF/TD-DFT) =  -114.319678959
 Copying the excited state density for this state as the 1-particle RhoCI density.

 Excited State   2:      Singlet-A1     3.9616 eV  312.96 nm  f=0.0443  <S**2>=0.000
       3 -> 10        -0.01721
       3 -> 11        -0.00533
       3 -> 14         0.00393
       3 -> 15         0.00136
       3 -> 17        -0.00327
       3 -> 20        -0.00385
       3 -> 24         0.00113
       3 -> 26         0.00217
       3 -> 30        -0.00116
       3 -> 32         0.00276
       3 -> 34        -0.00139
       3 -> 36        -0.00113
       3 -> 39         0.00056
       3 -> 43         0.00052
       3 -> 45         0.00068
       3 -> 47         0.00230
       3 -> 50         0.00139
       4 -> 10        -0.00397
       4 -> 11         0.01206
       4 -> 14         0.00279
       4 -> 15        -0.00871
       4 -> 17         0.00260
       4 -> 20         0.00312
       4 -> 21         0.00035
       4 -> 24        -0.00418
       4 -> 26         0.00399
       4 -> 30         0.00071
       4 -> 32        -0.00134
       4 -> 34         0.00104
       4 -> 36         0.00030
       4 -> 41         0.00010
       4 -> 43        -0.00051
       4 -> 45        -0.00081
       4 -> 47        -0.00092
       4 -> 50        -0.00031
       4 -> 54         0.00014
       5 -> 12         0.01213
       5 -> 16         0.00509
       5 -> 19         0.00132
       5 -> 22         0.00734
       5 -> 25        -0.00588
       5 -> 29         0.00025
       5 -> 33        -0.00265
       5 -> 35         0.00277
       5 -> 40        -0.00121
       5 -> 42         0.00086
       5 -> 49         0.00026
       5 -> 51        -0.00079
       6 -> 10         0.22680
       6 -> 11         0.05554
       6 -> 14        -0.06171
       6 -> 15        -0.03223
       6 -> 17        -0.01749
       6 -> 20        -0.00420
       6 -> 21         0.00805
       6 -> 24        -0.00995
       6 -> 26        -0.00438
       6 -> 30        -0.00598
       6 -> 32         0.00259
       6 -> 34        -0.00140
       6 -> 36         0.00012
       6 -> 39         0.00116
       6 -> 41        -0.00021
       6 -> 43         0.00086
       6 -> 45         0.00083
       6 -> 47         0.00093
       6 -> 50         0.00068
       6 -> 54        -0.00088
       7 ->  9         0.67923
       7 -> 13        -0.00485
       7 -> 18        -0.01315
       7 -> 23        -0.00187
       7 -> 28         0.00042
       7 -> 31        -0.00324
       7 -> 37         0.00121
       7 -> 44        -0.00100
       7 -> 48         0.00019
       7 -> 52         0.00106
       8 -> 12        -0.00788
       8 -> 16         0.04704
       8 -> 19        -0.02074
       8 -> 22        -0.01712
       8 -> 25        -0.00010
       8 -> 29        -0.00945
       8 -> 33         0.00131
       8 -> 35        -0.00126
       8 -> 40         0.00057
       8 -> 42        -0.00034
       8 -> 49         0.00031
       8 -> 51         0.00018
       8 -> 53        -0.00057
       3 <- 10        -0.01281
       3 <- 11        -0.00434
       3 <- 14         0.00317
       3 <- 15         0.00065
       3 <- 17        -0.00180
       3 <- 20        -0.00312
       3 <- 21        -0.00042
       3 <- 24         0.00050
       3 <- 26         0.00105
       3 <- 30        -0.00065
       3 <- 32         0.00247
       3 <- 34        -0.00078
       3 <- 36        -0.00105
       3 <- 39         0.00053
       3 <- 43         0.00060
       3 <- 45         0.00084
       3 <- 47         0.00233
       3 <- 50         0.00138
       3 <- 54         0.00013
       4 <- 10        -0.00136
       4 <- 11         0.00830
       4 <- 14         0.00181
       4 <- 15        -0.00566
       4 <- 17         0.00148
       4 <- 20         0.00325
       4 <- 21         0.00019
       4 <- 24        -0.00306
       4 <- 26         0.00338
       4 <- 32        -0.00153
       4 <- 34         0.00088
       4 <- 36         0.00058
       4 <- 43        -0.00047
       4 <- 45        -0.00080
       4 <- 47        -0.00057
       4 <- 50        -0.00017
       4 <- 54         0.00011
       5 <- 12         0.00660
       5 <- 16         0.00306
       5 <- 19         0.00100
       5 <- 22         0.00501
       5 <- 25        -0.00437
       5 <- 29         0.00030
       5 <- 33        -0.00216
       5 <- 35         0.00235
       5 <- 40        -0.00108
       5 <- 42         0.00075
       5 <- 49         0.00025
       5 <- 51        -0.00074
       6 <- 10         0.07465
       6 <- 11         0.02094
       6 <- 14        -0.02760
       6 <- 15        -0.01588
       6 <- 17        -0.00980
       6 <- 20        -0.00374
       6 <- 21         0.00522
       6 <- 24        -0.00641
       6 <- 26        -0.00243
       6 <- 30        -0.00418
       6 <- 32         0.00279
       6 <- 34        -0.00161
       6 <- 36        -0.00036
       6 <- 39         0.00110
       6 <- 41        -0.00017
       6 <- 43         0.00071
       6 <- 45         0.00064
       6 <- 47         0.00054
       6 <- 50         0.00054
       6 <- 54        -0.00079
       7 <-  9        -0.13007
       7 <- 13         0.00483
       7 <- 18        -0.01238
       7 <- 23         0.00171
       7 <- 28        -0.00246
       7 <- 31        -0.00158
       7 <- 37         0.00055
       7 <- 44        -0.00072
       7 <- 48        -0.00034
       7 <- 52         0.00096
       8 <- 12        -0.00270
       8 <- 16         0.02097
       8 <- 19        -0.01085
       8 <- 22        -0.01058
       8 <- 29        -0.00731
       8 <- 33         0.00102
       8 <- 35        -0.00099
       8 <- 40         0.00046
       8 <- 42        -0.00027
       8 <- 49         0.00015
       8 <- 51         0.00015
       8 <- 53        -0.00053

 Excited State   3:      Singlet-B1     4.4193 eV  280.55 nm  f=0.0009  <S**2>=0.000
       3 ->  9        -0.02529
       3 -> 13         0.00113
       3 -> 18        -0.00395
       3 -> 23         0.00137
       3 -> 28        -0.00078
       3 -> 31        -0.00057
       3 -> 37         0.00010
       3 -> 44         0.00028
       3 -> 48         0.00085
       3 -> 52         0.00083
       4 ->  9         0.01067
       4 -> 13        -0.00231
       4 -> 18         0.00013
       4 -> 23        -0.00207
       4 -> 28         0.00039
       4 -> 31        -0.00133
       4 -> 37        -0.00033
       4 -> 44         0.00010
       4 -> 48        -0.00077
       4 -> 52        -0.00041
       5 -> 27         0.00013
       5 -> 38         0.00188
       5 -> 46         0.00058
       6 ->  9         0.69369
       6 -> 13        -0.01786
       6 -> 18         0.01497
       6 -> 23        -0.01044
       6 -> 28         0.00365
       6 -> 31         0.00265
       6 -> 37        -0.00179
       6 -> 44        -0.00221
       6 -> 48         0.00366
       6 -> 52         0.00117
       7 -> 10         0.13765
       7 -> 11         0.02547
       7 -> 14        -0.02265
       7 -> 15        -0.00664
       7 -> 17        -0.00915
       7 -> 20         0.00350
       7 -> 21         0.00116
       7 -> 24        -0.00177
       7 -> 26        -0.00232
       7 -> 30        -0.00410
       7 -> 32        -0.00017
       7 -> 34        -0.00085
       7 -> 36         0.00156
       7 -> 39         0.00018
       7 -> 41        -0.00027
       7 -> 43         0.00048
       7 -> 45         0.00034
       7 -> 47         0.00378
       7 -> 50         0.00121
       7 -> 54         0.00011
       8 -> 27         0.00018
       8 -> 46         0.00467
       3 <-  9        -0.00854
       3 <- 13        -0.00083
       3 <- 18        -0.00263
       3 <- 23        -0.00060
       3 <- 28        -0.00044
       3 <- 31        -0.00074
       3 <- 37         0.00015
       3 <- 44        -0.00011
       3 <- 48         0.00097
       3 <- 52         0.00071
       4 <-  9         0.00618
       4 <- 13        -0.00042
       4 <- 18         0.00159
       4 <- 23        -0.00075
       4 <- 28         0.00143
       4 <- 31        -0.00090
       4 <- 37        -0.00021
       4 <- 48        -0.00067
       4 <- 52        -0.00022
       5 <- 27        -0.00041
       5 <- 38         0.00159
       5 <- 46         0.00051
       6 <-  9        -0.03267
       6 <- 13         0.00191
       6 <- 18        -0.00406
       6 <- 28        -0.00376
       6 <- 31         0.00058
       6 <- 37        -0.00150
       6 <- 44        -0.00090
       6 <- 48         0.00328
       6 <- 52         0.00024
       7 <- 10        -0.03572
       7 <- 11        -0.00993
       7 <- 14         0.01416
       7 <- 15         0.00929
       7 <- 17         0.00248
       7 <- 20         0.00377
       7 <- 21        -0.00361
       7 <- 24         0.00427
       7 <- 26         0.00171
       7 <- 30         0.00171
       7 <- 32         0.00034
       7 <- 34        -0.00109
       7 <- 36         0.00189
       7 <- 39         0.00056
       7 <- 43         0.00029
       7 <- 45         0.00013
       7 <- 47         0.00351
       7 <- 50         0.00125
       7 <- 54         0.00094
       8 <- 27         0.00066
       8 <- 38         0.00015
       8 <- 46         0.00438

 Excited State   4:      Singlet-B2     4.5714 eV  271.22 nm  f=0.0047  <S**2>=0.000
       3 -> 12        -0.00138
       3 -> 16         0.00170
       3 -> 19        -0.00440
       3 -> 22         0.00091
       3 -> 25        -0.00079
       3 -> 29        -0.00302
       3 -> 35         0.00182
       3 -> 40        -0.00161
       3 -> 42         0.00049
       3 -> 49        -0.00352
       3 -> 51         0.00020
       3 -> 53         0.00030
       4 -> 12         0.00045
       4 -> 16        -0.00195
       4 -> 19         0.00043
       4 -> 22         0.00225
       4 -> 25         0.00100
       4 -> 29         0.00119
       4 -> 33        -0.00040
       4 -> 35         0.00048
       4 -> 40         0.00039
       4 -> 42        -0.00011
       4 -> 49         0.00067
       4 -> 51        -0.00012
       5 -> 10         0.01094
       5 -> 11         0.00245
       5 -> 14        -0.00588
       5 -> 15         0.00398
       5 -> 17        -0.00034
       5 -> 20         0.00211
       5 -> 21         0.00422
       5 -> 24         0.00165
       5 -> 26        -0.00097
       5 -> 30        -0.00199
       5 -> 32        -0.00187
       5 -> 34         0.00058
       5 -> 39        -0.00086
       5 -> 41         0.00053
       5 -> 47        -0.00058
       5 -> 50         0.00036
       5 -> 54        -0.00023
       6 -> 12         0.00270
       6 -> 16        -0.00246
       6 -> 19         0.00386
       6 -> 22        -0.00051
       6 -> 25         0.00104
       6 -> 29        -0.00017
       6 -> 35        -0.00162
       6 -> 40         0.00125
       6 -> 42        -0.00066
       6 -> 49         0.00149
       6 -> 53        -0.00044
       7 -> 27        -0.00063
       7 -> 38         0.00051
       7 -> 46         0.00350
       8 -> 10         0.69425
       8 -> 11         0.10309
       8 -> 14        -0.08281
       8 -> 15        -0.03228
       8 -> 17        -0.01630
       8 -> 20         0.00248
       8 -> 21         0.00720
       8 -> 24        -0.00661
       8 -> 26        -0.00515
       8 -> 30        -0.01187
       8 -> 32        -0.00353
       8 -> 34         0.00163
       8 -> 36         0.00079
       8 -> 39        -0.00073
       8 -> 43        -0.00010
       8 -> 45         0.00106
       8 -> 47        -0.00432
       8 -> 50         0.00188
       8 -> 54        -0.00224
       3 <- 12        -0.00049
       3 <- 16         0.00054
       3 <- 19        -0.00212
       3 <- 22         0.00096
       3 <- 25        -0.00071
       3 <- 29        -0.00120
       3 <- 35         0.00130
       3 <- 40        -0.00140
       3 <- 42         0.00038
       3 <- 49        -0.00360
       3 <- 51         0.00018
       3 <- 53         0.00082
       4 <- 16        -0.00197
       4 <- 19         0.00013
       4 <- 22         0.00239
       4 <- 25         0.00062
       4 <- 29         0.00128
       4 <- 33        -0.00045
       4 <- 35         0.00071
       4 <- 40         0.00015
       4 <- 49         0.00048
       5 <- 10        -0.00077
       5 <- 11        -0.00101
       5 <- 14        -0.00067
       5 <- 15         0.00309
       5 <- 17         0.00020
       5 <- 20         0.00075
       5 <- 21         0.00190
       5 <- 24         0.00198
       5 <- 26        -0.00025
       5 <- 30        -0.00043
       5 <- 32        -0.00030
       5 <- 39        -0.00034
       5 <- 41         0.00056
       5 <- 45         0.00030
       5 <- 47        -0.00055
       5 <- 50         0.00020
       6 <- 12        -0.00041
       6 <- 16         0.00700
       6 <- 19        -0.00344
       6 <- 22        -0.00492
       6 <- 25         0.00096
       6 <- 29        -0.00572
       6 <- 33         0.00035
       6 <- 35        -0.00154
       6 <- 40         0.00127
       6 <- 42        -0.00072
       6 <- 49         0.00186
       6 <- 53        -0.00132
       7 <- 27        -0.00062
       7 <- 38         0.00041
       7 <- 46         0.00297
       8 <- 10        -0.03157
       8 <- 11        -0.00890
       8 <- 14         0.00947
       8 <- 15         0.00262
       8 <- 17         0.00120
       8 <- 20        -0.00292
       8 <- 21        -0.00179
       8 <- 24         0.00161
       8 <- 26         0.00158
       8 <- 30         0.00021
       8 <- 32         0.00305
       8 <- 34        -0.00104
       8 <- 36        -0.00060
       8 <- 39         0.00138
       8 <- 41         0.00034
       8 <- 43         0.00049
       8 <- 45         0.00183
       8 <- 47        -0.00346
       8 <- 50         0.00132
       8 <- 54        -0.00060

 Excited State   5:      Singlet-B1     5.4618 eV  227.00 nm  f=0.0077  <S**2>=0.000
       3 ->  9        -0.01023
       3 -> 13         0.00052
       3 -> 18        -0.00274
       3 -> 23         0.00072
       3 -> 28        -0.00302
       3 -> 31        -0.00158
       3 -> 37         0.00011
       3 -> 44         0.00038
       3 -> 48        -0.00269
       4 ->  9        -0.03206
       4 -> 13         0.00616
       4 -> 18         0.00118
       4 -> 23         0.00462
       4 -> 28         0.00154
       4 -> 37         0.00033
       4 -> 44        -0.00046
       4 -> 48         0.00071
       4 -> 52         0.00013
       5 -> 27        -0.00688
       5 -> 38        -0.00324
       5 -> 46         0.00036
       6 ->  9        -0.13916
       6 -> 13        -0.00097
       6 -> 18         0.00167
       6 -> 28         0.00324
       6 -> 31        -0.00371
       6 -> 37         0.00211
       6 -> 44         0.00039
       6 -> 48         0.00039
       6 -> 52        -0.00065
       7 -> 10         0.68250
       7 -> 11         0.08792
       7 -> 14        -0.07417
       7 -> 15        -0.03816
       7 -> 17        -0.00978
       7 -> 20        -0.00353
       7 -> 21         0.00379
       7 -> 24        -0.00992
       7 -> 26        -0.00678
       7 -> 30        -0.00709
       7 -> 32        -0.00202
       7 -> 34         0.00390
       7 -> 36        -0.00157
       7 -> 39        -0.00064
       7 -> 43         0.00062
       7 -> 45         0.00096
       7 -> 47         0.00153
       7 -> 50         0.00075
       7 -> 54        -0.00155
       8 -> 27         0.00085
       8 -> 38         0.00025
       8 -> 46         0.00183
       3 <-  9        -0.00222
       3 <- 13         0.00065
       3 <- 18        -0.00109
       3 <- 23         0.00059
       3 <- 28        -0.00196
       3 <- 31        -0.00028
       3 <- 37        -0.00021
       3 <- 44         0.00013
       3 <- 48        -0.00285
       3 <- 52         0.00036
       4 <-  9        -0.01219
       4 <- 13         0.00262
       4 <- 18         0.00041
       4 <- 23         0.00253
       4 <- 28         0.00147
       4 <- 37         0.00038
       4 <- 44        -0.00067
       4 <- 48         0.00030
       4 <- 52         0.00012
       5 <- 27        -0.00477
       5 <- 38        -0.00255
       5 <- 46         0.00035
       6 <-  9        -0.02765
       6 <- 18        -0.00374
       6 <- 23         0.00048
       6 <- 28        -0.00054
       6 <- 31        -0.00442
       6 <- 37         0.00191

 The electronic state is 1-A1.
 Alpha  occ. eigenvalues --  -19.17598 -10.33546  -0.90307  -0.70863  -0.49070
 Alpha  occ. eigenvalues --   -0.39882  -0.31468  -0.28815
 Alpha virt. eigenvalues --   -0.16316  -0.04832   0.00220   0.04060   0.06101
 Alpha virt. eigenvalues --    0.06944   0.12053   0.13695   0.18825   0.21152
 Alpha virt. eigenvalues --    0.23980   0.30340   0.38647   0.40064   0.50769

 Mulliken charges:
               1
     1  C   -0.085513
     2  H    0.188816
     3  H    0.188816
     4  O   -0.292120
 Sum of Mulliken charges =  -0.00000

 Dipole moment (field-independent basis, Debye):
    X=             -0.0000    Y=              0.0000    Z=             -4.0352  Tot=              4.0352
 Quadrupole moment (field-independent basis, Debye-Ang):
   XX=            -12.9482   YY=            -11.9857   ZZ=            -10.8850
   XY=              0.0000   XZ=              0.0000   YZ=              0.0000

 Normal termination of Gaussian 16 at Fri Sep 17 10:53:04 2021.
