 Gaussian 16, Revision C.01,
 Gaussian 16:  ES64L-G16RevC.01  3-Jul-2019

 ----------------------------------------
 #P wB97XD/6-311+G* NoSymm #P Field=X+272
 ----------------------------------------

 -------
 TitleMe
 -------
 Symbolic Z-matrix:
 Charge =  1 Multiplicity = 1

                          Input orientation:
 ---------------------------------------------------------------------
 Center     Atomic      Atomic             Coordinates (Angstroms)
 Number     Number       Type             X           Y           Z
 ---------------------------------------------------------------------
      1          6           0        0.519300    1.233000   -0.031900
      2          6           0        1.944500    1.269200   -0.036700
      3          6           0        2.620400    0.092800   -0.025000
      4          6           0       -0.196000    0.030100    0.001000
      5          1           0       -0.020700    2.174200   -0.043400
      6          1           0        2.482800    2.208900   -0.036100
      7          1           0       -1.277700    0.039900    0.011700
      8          7           0        4.092100    0.095900    0.036600
      9          8           0        4.639300   -1.021700    0.144600
     10          8           0        4.664900    1.198400   -0.023300
     11          6           0        0.494300   -1.167100    0.021000
     12          1           0       -0.032500   -2.114900    0.054500
     13          6           0        1.962900   -1.216500   -0.021100
     14          1           0        2.443600   -1.963100    0.615100
     15         35           0        2.173000   -1.949100   -1.906200
 ---------------------------------------------------------------------

 SCF Done:  E(RwB97XD) =  -3010.54386635     A.U. after   19 cycles

 Alpha  occ. eigenvalues -- -483.40907 -62.95943 -56.75616 -56.75075 -56.75065
 Alpha  occ. eigenvalues --  -19.63223 -19.63071 -15.02106 -10.69288 -10.67958
 Alpha  occ. eigenvalues --  -10.65125 -10.64485 -10.64048 -10.59172  -9.11759
 Alpha  occ. eigenvalues --   -6.94384  -6.92602  -6.92570  -3.04301  -3.03831
 Alpha  occ. eigenvalues --   -3.03805  -3.02379  -3.02378  -1.66746  -1.49871
 Alpha  occ. eigenvalues --   -1.32303  -1.23104  -1.21762  -1.14646  -1.11059
 Alpha  occ. eigenvalues --   -1.04156  -1.01656  -0.98259  -0.96556  -0.95175
 Alpha  occ. eigenvalues --   -0.90258  -0.87790  -0.85612  -0.85196  -0.81109
 Alpha  occ. eigenvalues --   -0.75709  -0.75439  -0.74570  -0.74098  -0.73208
 Alpha  occ. eigenvalues --   -0.72058  -0.68803  -0.66309  -0.64342
 Alpha virt. eigenvalues --   -0.40128  -0.33957  -0.25538  -0.24143  -0.22987
 Alpha virt. eigenvalues --   -0.20843  -0.19047  -0.18203  -0.16769  -0.14327
 Alpha virt. eigenvalues --   -0.13675  -0.12462  -0.11972  -0.10523  -0.09804

 Mulliken charges:
               1
     1  C   -0.151236
     2  C    0.153994
     3  C   -0.200126
     4  C   -0.279023
     5  H    0.411863
     6  H    0.319251
     7  H    0.447814
     8  N   -0.240641
     9  O   -0.019215
    10  O   -0.062969
    11  C   -0.137670
    12  H    0.422659
    13  C   -0.182406
    14  H    0.379742
    15  Br   0.137963
 Sum of Mulliken charges =   1.00000

 Dipole moment (field-independent basis, Debye):
    X=             -5.1230    Y=             -0.5480    Z=             -0.4071  Tot=              5.1683
 Quadrupole moment (field-independent basis, Debye-Ang):
   XX=           -100.2916   YY=            -51.7610   ZZ=            -63.0615
   XY=             -0.9844   XZ=             -0.4699   YZ=              1.6383

 Normal termination of Gaussian 16 at Thu May  2 14:18:13 2024.
