 Gaussian 16, Revision A.03,
 Gaussian 16:  ES64L-G16RevA.03 25-Dec-2016

 --------------------------------------------------------------------
 #p B3LYP/6-311+G** #p TD=(singlets,nstates=30)IOp(6/8=3) IOp(9/40=4)
 --------------------------------------------------------------------

 -------------------------------
 Scan Step 134, Bond Length 1.17
 -------------------------------
 Symbolic Z-matrix:
 Charge =  0 Multiplicity = 1

                         Standard orientation:
 ---------------------------------------------------------------------
 Center     Atomic      Atomic             Coordinates (Angstroms)
 Number     Number       Type             X           Y           Z
 ---------------------------------------------------------------------
      1          6           0        0.000000    0.000000   -0.511081
      2          1           0        0.000000    0.937260   -1.102431
      3          1           0       -0.000000   -0.937260   -1.102431
      4          8           0        0.000000   -0.000000    0.658919
 ---------------------------------------------------------------------

 SCF Done:  E(RB3LYP) =  -114.540086124     A.U. after    9 cycles

 Excitation energies and oscillator strengths:

 Excited State   1:      Singlet-A2     4.1495 eV  298.79 nm  f=0.0000  <S**2>=0.000
       3 -> 27         0.00261
       3 -> 38         0.00221
       3 -> 45         0.00235
       4 -> 27         0.00211
       4 -> 38        -0.00061
       4 -> 45        -0.00124
       5 ->  9         0.02128
       5 -> 13        -0.00419
       5 -> 17         0.00585
       5 -> 23        -0.00071
       5 -> 29         0.00429
       5 -> 31         0.00258
       5 -> 37         0.00363
       5 -> 44         0.00065
       5 -> 47         0.00014
       5 -> 52         0.00081
       6 -> 38        -0.00080
       6 -> 45         0.00177
       7 -> 12        -0.00062
       7 -> 15         0.00255
       7 -> 18        -0.00257
       7 -> 22         0.00093
       7 -> 24         0.00141
       7 -> 30        -0.00087
       7 -> 33         0.00042
       7 -> 35        -0.00033
       7 -> 40        -0.00030
       7 -> 49         0.00043
       7 -> 50         0.00030
       7 -> 53         0.00045
       8 ->  9         0.70480
       8 -> 13        -0.05080
       8 -> 17         0.02348
       8 -> 23        -0.01096
       8 -> 29         0.00853
       8 -> 31         0.00295
       8 -> 37        -0.00041
       8 -> 44        -0.00016
       8 -> 47        -0.00024
       8 -> 52         0.00161
       3 <- 27         0.00173
       3 <- 38         0.00185
       3 <- 45         0.00244
       4 <- 27         0.00294
       4 <- 45        -0.00107
       5 <-  9        -0.00030
       5 <- 13        -0.00086
       5 <- 17        -0.00093
       5 <- 23         0.00055
       5 <- 29        -0.00062
       5 <- 31        -0.00097
       5 <- 37         0.00170
       5 <- 44         0.00029
       5 <- 47         0.00017
       5 <- 52         0.00021
       6 <- 27         0.00056
       6 <- 38        -0.00072
       6 <- 45         0.00137
       7 <- 12        -0.00086
       7 <- 15        -0.00673
       7 <- 18        -0.00015
       7 <- 22         0.00717
       7 <- 24        -0.00030
       7 <- 30         0.00312
       7 <- 33        -0.00134
       7 <- 35        -0.00248
       7 <- 40        -0.00101
       7 <- 42         0.00014
       7 <- 49         0.00024
       7 <- 50         0.00018
       7 <- 53         0.00123
       8 <-  9        -0.02214
       8 <- 13         0.00357
       8 <- 17        -0.00415
       8 <- 23         0.00080
       8 <- 29        -0.00081
       8 <- 31         0.00105
       8 <- 37        -0.00161
       8 <- 52         0.00046
 This state for optimization and/or second-order correction.
 Total Energy, E(TD-HF/TD-DFT) =  -114.387595489
 Copying the excited state density for this state as the 1-particle RhoCI density.

 Excited State   2:      Singlet-B2     6.8046 eV  182.21 nm  f=0.0361  <S**2>=0.000
       3 -> 12         0.00141
       3 -> 15         0.00071
       3 -> 18         0.00115
       3 -> 22        -0.00030
       3 -> 24         0.00130
       3 -> 30        -0.00011
       3 -> 33         0.00016
       3 -> 35         0.00035
       4 -> 12        -0.00354
       4 -> 15         0.00166
       4 -> 18         0.00218
       4 -> 22        -0.00335
       4 -> 24         0.00351
       4 -> 30         0.00022
       4 -> 33        -0.00060
       4 -> 35        -0.00068
       4 -> 40        -0.00048
       5 -> 10        -0.00563
       5 -> 11        -0.00910
       5 -> 14         0.00698
       5 -> 16        -0.00097
       5 -> 19         0.00134
       5 -> 20         0.00156
       5 -> 21         0.00555
       5 -> 26         0.00262
       5 -> 28         0.00144
       5 -> 32         0.00070
       5 -> 34        -0.00102
       5 -> 36        -0.00024
       5 -> 39        -0.00031
       5 -> 41        -0.00027
       5 -> 43        -0.00056
       5 -> 46        -0.00041
       5 -> 54         0.00011
       6 -> 12         0.00044
       6 -> 15         0.00147
       6 -> 18         0.00257
       6 -> 22        -0.00263
       6 -> 24         0.00133
       6 -> 30        -0.00047
       6 -> 33        -0.00019
       6 -> 35        -0.00026
       6 -> 40         0.00018
       6 -> 42        -0.00021
       6 -> 49         0.00045
       6 -> 50        -0.00039
       7 -> 27         0.00026
       7 -> 38        -0.00048
       7 -> 45         0.00053
       8 -> 10         0.70355
       8 -> 11        -0.06581
       8 -> 14         0.01022
       8 -> 16        -0.00726
       8 -> 19         0.01381
       8 -> 20         0.01303
       8 -> 21        -0.00354
       8 -> 25         0.00037
       8 -> 26         0.00212
       8 -> 28         0.00066
       8 -> 32        -0.00088
       8 -> 34         0.00161
       8 -> 36         0.00044
       8 -> 39         0.00042
       8 -> 41        -0.00017
       8 -> 43         0.00064
       8 -> 46        -0.00071
       8 -> 48        -0.00012
       8 -> 54         0.00018
       3 <- 12         0.00035
       3 <- 15         0.00054
       3 <- 18         0.00045
       3 <- 22        -0.00042
       3 <- 24         0.00079
       3 <- 30        -0.00011
       3 <- 33         0.00014
       3 <- 35         0.00033
       4 <- 12         0.00070
       4 <- 15         0.00184
       4 <- 18         0.00214
       4 <- 22        -0.00205
       4 <- 24         0.00243
       4 <- 30         0.00017
       4 <- 33        -0.00037
       4 <- 35        -0.00041
       4 <- 40        -0.00016
       4 <- 42        -0.00022
       4 <- 49        -0.00010
       4 <- 50        -0.00011
       5 <- 10         0.00243
       5 <- 11        -0.00025
       5 <- 14         0.00493
       5 <- 16        -0.00086
       5 <- 19         0.00030
       5 <- 20         0.00069
       5 <- 21         0.00224
       5 <- 25         0.00179
       5 <- 26         0.00158
       5 <- 28         0.00026
       5 <- 32         0.00044
       5 <- 34        -0.00100
       5 <- 36        -0.00031
       5 <- 39        -0.00017
       5 <- 43        -0.00041
       5 <- 46        -0.00035
       6 <- 12         0.00018
       6 <- 18         0.00133
       6 <- 22        -0.00081
       6 <- 24         0.00047
       6 <- 30         0.00030
       6 <- 33        -0.00025
       6 <- 35        -0.00039
       6 <- 40         0.00018
       6 <- 42        -0.00020
       6 <- 49         0.00038
       6 <- 50        -0.00039
       6 <- 53         0.00013
       7 <- 27         0.00021
       7 <- 38        -0.00036
       7 <- 45         0.00046
       8 <- 10        -0.00202
       8 <- 11        -0.00055
       8 <- 14        -0.00624
       8 <- 16        -0.00027
       8 <- 19        -0.00027
       8 <- 20        -0.00049
       8 <- 21        -0.00223
       8 <- 25        -0.00249
       8 <- 26        -0.00051
       8 <- 28        -0.00063
       8 <- 32        -0.00110
       8 <- 34         0.00059
       8 <- 36         0.00040
       8 <- 39         0.00034
       8 <- 43         0.00046
       8 <- 46        -0.00047

 Excited State   3:      Singlet-B2     7.5963 eV  163.22 nm  f=0.0241  <S**2>=0.000
       3 -> 12        -0.00028
       3 -> 15        -0.00073
       3 -> 18         0.00076
       3 -> 22         0.00037
       3 -> 24         0.00020
       3 -> 30         0.00195
       3 -> 33         0.00013
       3 -> 35         0.00042
       3 -> 40         0.00040
       3 -> 49         0.00039
       3 -> 50        -0.00025
       4 -> 12         0.00287
       4 -> 15        -0.00017
       4 -> 18         0.00268
       4 -> 22        -0.00151
       4 -> 24         0.00309
       4 -> 30        -0.00118
       4 -> 33         0.00051
       4 -> 35         0.00050
       4 -> 42        -0.00015
       4 -> 49         0.00023
       5 -> 10        -0.00750
       5 -> 14         0.00782
       5 -> 16        -0.00710
       5 -> 19        -0.00291
       5 -> 20        -0.00414
       5 -> 21         0.00125
       5 -> 25         0.00126
       5 -> 26         0.00058
       5 -> 28         0.00163
       5 -> 32         0.00013
       5 -> 34        -0.00130
       5 -> 36        -0.00020
       5 -> 39         0.00041
       5 -> 41        -0.00078
       5 -> 43         0.00010
       5 -> 46         0.00086
       5 -> 51        -0.00042
       6 -> 12        -0.00316
       6 -> 15        -0.00185
       6 -> 18        -0.00103
       6 -> 22         0.00136
       6 -> 24         0.00014
       6 -> 30         0.00088
       6 -> 33        -0.00052
       6 -> 35        -0.00149
       6 -> 40        -0.00100
       6 -> 49        -0.00103
       6 -> 50         0.00053
       6 -> 53         0.00011
       7 -> 27        -0.00014
       7 -> 38        -0.00099
       7 -> 45        -0.00167
       8 -> 10         0.06632
       8 -> 11         0.70308
       8 -> 14        -0.00789
       8 -> 16         0.01227
       8 -> 19        -0.02814
       8 -> 20         0.00869
       8 -> 21        -0.00263
       8 -> 25         0.00056
       8 -> 26        -0.00153
       8 -> 28         0.00061
       8 -> 32        -0.00029
       8 -> 34        -0.00016
       8 -> 39        -0.00017
       8 -> 41        -0.00128
       8 -> 43         0.00026
       8 -> 46         0.00173
       8 -> 51        -0.00092
       8 -> 54        -0.00013
       3 <- 12         0.00034
       3 <- 15        -0.00024
       3 <- 18         0.00087
       3 <- 24         0.00034
       3 <- 30         0.00112
       3 <- 33         0.00023
       3 <- 35         0.00048
       3 <- 40         0.00036
       3 <- 49         0.00033
       3 <- 50        -0.00016
       3 <- 53        -0.00026
       4 <- 12         0.00035
       4 <- 15         0.00069
       4 <- 18         0.00068
       4 <- 22        -0.00115
       4 <- 24         0.00128
       4 <- 30        -0.00055
       4 <- 33         0.00047
       4 <- 35         0.00015
       4 <- 42        -0.00016
       4 <- 49         0.00017
       4 <- 50        -0.00014
       5 <- 10         0.00128
       5 <- 11        -0.00109
       5 <- 14         0.00250
       5 <- 16        -0.00044
       5 <- 19         0.00098
       5 <- 20        -0.00040
       5 <- 21         0.00078
       5 <- 25         0.00130
       5 <- 26        -0.00019
       5 <- 28         0.00074
       5 <- 32         0.00106
       5 <- 34        -0.00033
       5 <- 36         0.00017
       5 <- 39         0.00013
       5 <- 41        -0.00081
       5 <- 46         0.00080
       5 <- 48         0.00013
       5 <- 51        -0.00032
       6 <- 12        -0.00032
       6 <- 15        -0.00058
       6 <- 22         0.00064
       6 <- 30         0.00059
       6 <- 33        -0.00036
       6 <- 35        -0.00118
       6 <- 40        -0.00075
       6 <- 49        -0.00084
       6 <- 50         0.00043
       7 <- 27         0.00013
       7 <- 38        -0.00079
       7 <- 45        -0.00140
       8 <- 10        -0.00070
       8 <- 11        -0.00053
       8 <- 14        -0.00383
       8 <- 16         0.00048
       8 <- 19         0.00382
       8 <- 20        -0.00114
       8 <- 21        -0.00204
       8 <- 25         0.00031
       8 <- 26        -0.00168
       8 <- 28         0.00015
       8 <- 32         0.00113
       8 <- 34         0.00118
       8 <- 39        -0.00048
       8 <- 41        -0.00112
       8 <- 43         0.00013
       8 <- 46         0.00138
       8 <- 48         0.00018
       8 <- 51        -0.00064

 Excited State   4:      Singlet-A1     7.7768 eV  159.43 nm  f=0.0510  <S**2>=0.000
       3 -> 10         0.00187
       3 -> 11        -0.00090
       3 -> 14         0.00083
       3 -> 16        -0.00018
       3 -> 20         0.00173
       3 -> 21         0.00075
       3 -> 25        -0.00060
       3 -> 26         0.00116
       3 -> 28         0.00099
       3 -> 32        -0.00011
       3 -> 34        -0.00060
       3 -> 36        -0.00022
       3 -> 41        -0.00021
       3 -> 46         0.00013
       3 -> 48         0.00029
       3 -> 51        -0.00023
       3 -> 54        -0.00020
       4 -> 10         0.00493
       4 -> 11         0.00613
       4 -> 14         0.00502
       4 -> 16         0.00033
       4 -> 19         0.00030
       4 -> 20         0.00427
       4 -> 21         0.00101
       4 -> 25         0.00717
       4 -> 26         0.00156
       4 -> 28        -0.00040
       4 -> 32         0.00064
       4 -> 34        -0.00014
       4 -> 39        -0.00011
       4 -> 41         0.00011
       4 -> 43         0.00016
       4 -> 46        -0.00021
       4 -> 51        -0.00015
       5 -> 12         0.00655
       5 -> 15         0.00196
       5 -> 18         0.01074
       5 -> 22        -0.00207
       5 -> 24         0.00533
       5 -> 30        -0.00012
       5 -> 33        -0.00016
       5 -> 35        -0.00077
       5 -> 50         0.00025
       5 -> 53        -0.00014
       6 -> 10         0.01248
       6 -> 11        -0.00284
       6 -> 14         0.00441
       6 -> 16         0.00106
       6 -> 19         0.00269
       6 -> 20         0.00418
       6 -> 21         0.00092
       6 -> 25         0.00340
       6 -> 28        -0.00174
       6 -> 32         0.00049
       6 -> 43         0.00013
       6 -> 48        -0.00064
       6 -> 51         0.00022
       6 -> 54        -0.00010
       7 ->  9         0.01737
       7 -> 13         0.01008
       7 -> 17         0.00289
       7 -> 23         0.00524
       7 -> 29        -0.00047
       7 -> 31         0.00088
       7 -> 37         0.00058
       7 -> 44         0.00065
       7 -> 47        -0.00034
       7 -> 52        -0.00011
       8 -> 12         0.70576
       8 -> 15        -0.00993
       8 -> 18         0.03015
       8 -> 22         0.00454
       8 -> 24         0.00348
       8 -> 30         0.00037
       8 -> 33         0.00157
       8 -> 35         0.00200
       8 -> 40        -0.00063
       8 -> 42         0.00024
       8 -> 49        -0.00042
       8 -> 50         0.00029
       8 -> 53        -0.00023
       3 <- 10         0.00061
       3 <- 14         0.00046
       3 <- 19        -0.00011
       3 <- 20         0.00079
       3 <- 21         0.00054
       3 <- 26         0.00074
       3 <- 28         0.00065
       3 <- 32        -0.00020
       3 <- 34        -0.00040
       3 <- 36        -0.00017
       3 <- 41        -0.00015
       3 <- 46         0.00022
       3 <- 48         0.00024
       3 <- 51        -0.00020
       3 <- 54        -0.00018
       4 <- 10         0.00436
       4 <- 11         0.00147
       4 <- 14         0.00370
       4 <- 16        -0.00022
       4 <- 19         0.00016
       4 <- 20         0.00244
       4 <- 21         0.00033
       4 <- 25         0.00392
       4 <- 26         0.00099
       4 <- 32         0.00074
       4 <- 34        -0.00054
       4 <- 39        -0.00018
       4 <- 43         0.00011
       4 <- 46        -0.00018
       4 <- 51        -0.00014
       5 <- 12         0.00274
       5 <- 15         0.00245
       5 <- 18         0.00377
       5 <- 22        -0.00071
       5 <- 24         0.00289
       5 <- 30        -0.00013
       5 <- 33        -0.00034
       5 <- 35        -0.00071
       5 <- 50         0.00016
       5 <- 53        -0.00012
       6 <- 10         0.00314
       6 <- 11        -0.00015
       6 <- 14         0.00172
       6 <- 16         0.00031
       6 <- 19         0.00078
       6 <- 20         0.00197
       6 <- 21         0.00024
       6 <- 25         0.00169
       6 <- 26         0.00027
       6 <- 28        -0.00111
       6 <- 32         0.00045
       6 <- 34        -0.00014
       6 <- 41         0.00013
       6 <- 46        -0.00012
       6 <- 48        -0.00053
       6 <- 51         0.00026
       7 <-  9         0.00071
       7 <- 13         0.00234
       7 <- 17         0.00071
       7 <- 23         0.00266
       7 <- 29        -0.00040
       7 <- 31         0.00061
       7 <- 37         0.00045
       7 <- 44         0.00054
       7 <- 47        -0.00029
       7 <- 52        -0.00010
       8 <- 12        -0.00102
       8 <- 15        -0.00604
       8 <- 18        -0.00198
       8 <- 22         0.00075
       8 <- 24        -0.00182
       8 <- 30        -0.00050
       8 <- 33         0.00070
       8 <- 35         0.00091
       8 <- 40        -0.00061
       8 <- 42         0.00021
       8 <- 49        -0.00044
       8 <- 50         0.00021
       8 <- 53        -0.00023

 Excited State   5:      Singlet-A2     8.2803 eV  149.73 nm  f=0.0000  <S**2>=0.000
       3 -> 27        -0.00050
       3 -> 38        -0.00045
       3 -> 45        -0.00025
       4 -> 27         0.00020
       4 -> 38         0.00050
       5 ->  9        -0.00702
       5 -> 13        -0.00388
       5 -> 17         0.00650
       5 -> 23        -0.00188
       5 -> 29        -0.00012
       5 -> 31        -0.00152
       5 -> 37        -0.00101
       5 -> 44        -0.00020
       6 -> 27         0.00023
       6 -> 38         0.00029
       6 -> 45        -0.00026
       7 -> 12        -0.00037
       7 -> 15        -0.00185
       7 -> 18         0.00199
       7 -> 22        -0.00069
       7 -> 35         0.00014
       7 -> 40         0.00011
       7 -> 49        -0.00010
       8 ->  9         0.05056
       8 -> 13         0.70476
       8 -> 17         0.01856
       8 -> 23         0.01724
       8 -> 29         0.00018
       8 -> 31        -0.00152
       8 -> 37        -0.00030
       8 -> 47         0.00018
       8 -> 52        -0.00012
       3 <- 27        -0.00015
       3 <- 38        -0.00029
       3 <- 45        -0.00033
       4 <- 27        -0.00013
       5 <-  9        -0.00030
       5 <- 13        -0.00033
       5 <- 17         0.00055
       5 <- 37        -0.00021
       6 <- 38         0.00019
       7 <- 12        -0.00062
       7 <- 15        -0.00096
       7 <- 18         0.00073
       7 <- 22        -0.00101
       7 <- 24        -0.00041
       7 <- 30         0.00021
       7 <- 33         0.00039
       7 <- 35         0.00062
       7 <- 40         0.00037
       7 <- 42        -0.00010
       8 <-  9         0.00199
       8 <- 13         0.00136
       8 <- 17         0.00024
       8 <- 23        -0.00018
       8 <- 37         0.00015

 Excited State   6:      Singlet-B1     9.4830 eV  130.74 nm  f=0.0007  <S**2>=0.000
       3 ->  9        -0.03198
       3 -> 13         0.00684
       3 -> 17        -0.00756
       3 -> 23         0.00491
       3 -> 29        -0.00315
       3 -> 31        -0.00018
       3 -> 44         0.00076
       3 -> 47        -0.00012
       3 -> 52         0.00111
       4 ->  9         0.01690
       4 -> 13        -0.00285
       4 -> 17         0.00110
       4 -> 23        -0.00245

 The electronic state is 1-A1.
 Alpha  occ. eigenvalues --  -19.14897 -10.27367  -1.09449  -0.64043  -0.51228
 Alpha  occ. eigenvalues --   -0.46953  -0.42486  -0.27947
 Alpha virt. eigenvalues --   -0.05577   0.00875   0.03997   0.04282   0.06551
 Alpha virt. eigenvalues --    0.13078   0.18180   0.18495   0.21998   0.23085
 Alpha virt. eigenvalues --    0.27111   0.33553   0.46447   0.47157   0.50967

 Mulliken charges:
               1
     1  C    0.027832
     2  H    0.102721
     3  H    0.102721
     4  O   -0.233274
 Sum of Mulliken charges =  -0.00000

 Dipole moment (field-independent basis, Debye):
    X=             -0.0000    Y=              0.0000    Z=             -2.3234  Tot=              2.3234
 Quadrupole moment (field-independent basis, Debye-Ang):
   XX=            -11.6517   YY=            -11.7576   ZZ=            -12.5253
   XY=              0.0000   XZ=              0.0000   YZ=             -0.0000

 Normal termination of Gaussian 16 at Fri Sep 17 10:52:42 2021.
