 Gaussian 16, Revision C.01,
 Gaussian 16:  ES64L-G16RevC.01  3-Jul-2019

 ----------------------------------------
 #P wB97XD/6-311+G* NoSymm #P Field=Z-136
 ----------------------------------------

 -------
 TitleMe
 -------
 Symbolic Z-matrix:
 Charge =  1 Multiplicity = 1

                          Input orientation:
 ---------------------------------------------------------------------
 Center     Atomic      Atomic             Coordinates (Angstroms)
 Number     Number       Type             X           Y           Z
 ---------------------------------------------------------------------
      1          6           0        0.519300    1.233000   -0.031900
      2          6           0        1.944500    1.269200   -0.036700
      3          6           0        2.620400    0.092800   -0.025000
      4          6           0       -0.196000    0.030100    0.001000
      5          1           0       -0.020700    2.174200   -0.043400
      6          1           0        2.482800    2.208900   -0.036100
      7          1           0       -1.277700    0.039900    0.011700
      8          7           0        4.092100    0.095900    0.036600
      9          8           0        4.639300   -1.021700    0.144600
     10          8           0        4.664900    1.198400   -0.023300
     11          6           0        0.494300   -1.167100    0.021000
     12          1           0       -0.032500   -2.114900    0.054500
     13          6           0        1.962900   -1.216500   -0.021100
     14          1           0        2.443600   -1.963100    0.615100
     15         35           0        2.173000   -1.949100   -1.906200
 ---------------------------------------------------------------------

 SCF Done:  E(RwB97XD) =  -3010.53440948     A.U. after   19 cycles

 Alpha  occ. eigenvalues -- -483.33408 -62.88460 -56.68114 -56.67598 -56.67591
 Alpha  occ. eigenvalues --  -19.46574 -19.46530 -14.86013 -10.59961 -10.59288
 Alpha  occ. eigenvalues --  -10.58075 -10.57875 -10.54108 -10.53431  -9.04286
 Alpha  occ. eigenvalues --   -6.86861  -6.85151  -6.85134  -2.96789  -2.96334
 Alpha  occ. eigenvalues --   -2.96320  -2.94951  -2.94951  -1.50245  -1.33195
 Alpha  occ. eigenvalues --   -1.23325  -1.14010  -1.13246  -1.06355  -1.01160
 Alpha  occ. eigenvalues --   -0.96176  -0.91296  -0.85453  -0.81472  -0.80779
 Alpha  occ. eigenvalues --   -0.80521  -0.78579  -0.76641  -0.76298  -0.73171
 Alpha  occ. eigenvalues --   -0.69305  -0.68324  -0.64588  -0.61350  -0.58942
 Alpha  occ. eigenvalues --   -0.57758  -0.57306  -0.56292  -0.55873
 Alpha virt. eigenvalues --   -0.31169  -0.20945  -0.17571  -0.13708  -0.12817
 Alpha virt. eigenvalues --   -0.09629  -0.08481  -0.07415  -0.06364  -0.05159
 Alpha virt. eigenvalues --   -0.04445  -0.03497  -0.02259  -0.01415  -0.01333

 Mulliken charges:
               1
     1  C   -0.074430
     2  C    0.126951
     3  C   -0.092653
     4  C   -0.347465
     5  H    0.349300
     6  H    0.354301
     7  H    0.336275
     8  N   -0.213964
     9  O    0.090332
    10  O    0.072943
    11  C   -0.163289
    12  H    0.362314
    13  C   -0.304207
    14  H    0.454996
    15  Br   0.048595
 Sum of Mulliken charges =   1.00000

 Dipole moment (field-independent basis, Debye):
    X=              2.5979    Y=             -0.3718    Z=              1.6878  Tot=              3.1202
 Quadrupole moment (field-independent basis, Debye-Ang):
   XX=            -67.8049   YY=            -52.0113   ZZ=            -65.4615
   XY=             -1.9079   XZ=              2.4652   YZ=              0.0710

 Normal termination of Gaussian 16 at Thu May  2 14:19:10 2024.
