 Gaussian 16, Revision A.03,
 Gaussian 16:  ES64L-G16RevA.03 25-Dec-2016

 --------------------------------------------------------------------
 #p B3LYP/6-311+G** #p TD=(singlets,nstates=30)IOp(6/8=3) IOp(9/40=4)
 --------------------------------------------------------------------

 ------------------------------
 Scan Step 44, Bond Length 0.72
 ------------------------------
 Symbolic Z-matrix:
 Charge =  0 Multiplicity = 1

                         Standard orientation:
 ---------------------------------------------------------------------
 Center     Atomic      Atomic             Coordinates (Angstroms)
 Number     Number       Type             X           Y           Z
 ---------------------------------------------------------------------
      1          6           0        0.000000    0.000000   -0.286081
      2          1           0        0.000000    0.937260   -0.877431
      3          1           0       -0.000000   -0.937260   -0.877431
      4          8           0        0.000000   -0.000000    0.433919
 ---------------------------------------------------------------------

 SCF Done:  E(RB3LYP) =  -113.253870941     A.U. after   10 cycles

 Excitation energies and oscillator strengths:

 Excited State   1:      Singlet-B2     5.0550 eV  245.27 nm  f=0.1155  <S**2>=0.000
       3 -> 11         0.00075
       3 -> 16         0.00052
       3 -> 19         0.00079
       3 -> 23         0.00033
       3 -> 24        -0.00099
       3 -> 29        -0.00021
       3 -> 32        -0.00014
       3 -> 40         0.00017
       3 -> 43         0.00020
       3 -> 50        -0.00012
       3 -> 53         0.00014
       4 ->  9        -0.00289
       4 -> 12         0.00367
       4 -> 14         0.00384
       4 -> 15         0.00158
       4 -> 18         0.00313
       4 -> 20         0.00193
       4 -> 21         0.00186
       4 -> 25         0.00151
       4 -> 26        -0.00079
       4 -> 30         0.00013
       4 -> 31         0.00169
       4 -> 34         0.00038
       4 -> 38        -0.00072
       4 -> 42        -0.00051
       4 -> 44        -0.00034
       4 -> 46        -0.00076
       4 -> 49         0.00022
       5 -> 28         0.00165
       5 -> 35         0.00070
       5 -> 45         0.00083
       6 -> 11        -0.00622
       6 -> 16         0.00285
       6 -> 19         0.00060
       6 -> 23        -0.00133
       6 -> 24        -0.00466
       6 -> 29        -0.00082
       6 -> 32        -0.00092
       6 -> 36         0.00045
       6 -> 43         0.00024
       6 -> 47         0.00024
       7 -> 11         0.00646
       7 -> 16         0.00379
       7 -> 19         0.00282
       7 -> 23        -0.00037
       7 -> 24        -0.00123
       7 -> 29         0.00083
       7 -> 32         0.00063
       7 -> 36        -0.00065
       7 -> 43        -0.00043
       7 -> 47         0.00044
       7 -> 50         0.00045
       7 -> 53        -0.00011
       8 ->  9         0.70561
       8 -> 12        -0.00016
       8 -> 14         0.04199
       8 -> 15        -0.00799
       8 -> 18        -0.02172
       8 -> 20         0.00575
       8 -> 21         0.00978
       8 -> 25        -0.00026
       8 -> 26        -0.00012
       8 -> 30         0.00237
       8 -> 31        -0.00265
       8 -> 34        -0.00115
       8 -> 38        -0.00111
       8 -> 39         0.00022
       8 -> 42        -0.00072
       8 -> 44         0.00025
       8 -> 46         0.00085
       8 -> 49        -0.00030
       8 -> 51         0.00011
       3 <- 11         0.00030
       3 <- 16         0.00019
       3 <- 19         0.00052
       3 <- 23         0.00024
       3 <- 24        -0.00075
       3 <- 29        -0.00019
       3 <- 32        -0.00016
       3 <- 40         0.00017
       3 <- 43         0.00019
       3 <- 53         0.00015
       4 <-  9        -0.00144
       4 <- 12        -0.00024
       4 <- 14         0.00314
       4 <- 15         0.00186
       4 <- 18         0.00070
       4 <- 20         0.00104
       4 <- 21         0.00138
       4 <- 25         0.00136
       4 <- 26        -0.00130
       4 <- 31         0.00068
       4 <- 34         0.00026
       4 <- 38        -0.00046
       4 <- 39         0.00016
       4 <- 42        -0.00043
       4 <- 44        -0.00026
       4 <- 46        -0.00068
       4 <- 49         0.00016
       5 <- 28         0.00135
       5 <- 35         0.00057
       5 <- 45         0.00070
       6 <- 11        -0.00081
       6 <- 16         0.00268
       6 <- 19         0.00122
       6 <- 23        -0.00048
       6 <- 24        -0.00347
       6 <- 29        -0.00045
       6 <- 32        -0.00077
       6 <- 36         0.00043
       6 <- 43         0.00014
       6 <- 47         0.00021
       6 <- 50         0.00011
       7 <- 11         0.00129
       7 <- 16         0.00188
       7 <- 19         0.00027
       7 <- 23        -0.00013
       7 <- 24        -0.00029
       7 <- 29         0.00137
       7 <- 32         0.00047
       7 <- 36        -0.00036
       7 <- 43        -0.00030
       7 <- 47         0.00046
       7 <- 50         0.00052
       8 <-  9        -0.00722
       8 <- 12        -0.00459
       8 <- 14         0.01835
       8 <- 15         0.00527
       8 <- 18         0.00148
       8 <- 20         0.00028
       8 <- 21         0.00496
       8 <- 25         0.00314
       8 <- 26         0.00029
       8 <- 30         0.00157
       8 <- 31        -0.00163
       8 <- 34        -0.00144
       8 <- 38        -0.00106
       8 <- 39         0.00018
       8 <- 42        -0.00058
       8 <- 46         0.00071
       8 <- 49        -0.00023
 This state for optimization and/or second-order correction.
 Total Energy, E(TD-HF/TD-DFT) =  -113.068102615
 Copying the excited state density for this state as the 1-particle RhoCI density.

 Excited State   2:      Singlet-A2     5.3241 eV  232.87 nm  f=0.0000  <S**2>=0.000
       3 -> 28        -0.00197
       3 -> 35        -0.00130
       3 -> 45        -0.00051
       4 -> 10        -0.00123
       4 -> 13        -0.00219
       4 -> 17        -0.00428
       4 -> 22         0.00214
       4 -> 27        -0.00234
       4 -> 33        -0.00020
       4 -> 37        -0.00180
       4 -> 41        -0.00021
       4 -> 48        -0.00013
       4 -> 52        -0.00034
       5 -> 11         0.00034
       5 -> 19         0.00037
       5 -> 23        -0.00107
       5 -> 24        -0.00017
       5 -> 29        -0.00013
       5 -> 32        -0.00014
       5 -> 36        -0.00036
       5 -> 43        -0.00040
       5 -> 47        -0.00042
       5 -> 50         0.00019
       5 -> 53        -0.00012
       6 -> 28        -0.00357
       6 -> 35         0.00052
       6 -> 45         0.00014
       7 -> 28         0.00069
       7 -> 35        -0.00021
       7 -> 45        -0.00056
       8 -> 10         0.70523
       8 -> 13         0.04299
       8 -> 17         0.02895
       8 -> 22         0.00188
       8 -> 27         0.00227
       8 -> 33         0.00317
       8 -> 37        -0.00209
       8 -> 41         0.00014
       8 -> 48         0.00012
       8 -> 52         0.00044
       3 <- 28        -0.00159
       3 <- 35        -0.00113
       3 <- 45        -0.00050
       4 <- 10        -0.00017
       4 <- 13        -0.00085
       4 <- 17        -0.00067
       4 <- 27        -0.00030
       4 <- 33         0.00082
       4 <- 37        -0.00095
       4 <- 41        -0.00028
       5 <- 11         0.00069
       5 <- 16        -0.00066
       5 <- 19         0.00180
       5 <- 23        -0.00177
       5 <- 24        -0.00138
       5 <- 29        -0.00137
       5 <- 32         0.00031
       5 <- 36        -0.00091
       5 <- 43        -0.00048
       5 <- 47        -0.00039
       5 <- 53        -0.00032
       6 <- 28        -0.00354
       6 <- 35         0.00065
       6 <- 45         0.00014
       7 <- 28         0.00079
       7 <- 35        -0.00023
       7 <- 45        -0.00053
       8 <- 10         0.00017
       8 <- 13        -0.00638
       8 <- 17        -0.00557
       8 <- 22         0.00020
       8 <- 27        -0.00044
       8 <- 33         0.00304
       8 <- 37        -0.00170
       8 <- 41         0.00014
       8 <- 52         0.00015

 Excited State   3:      Singlet-B2     5.9411 eV  208.69 nm  f=0.0312  <S**2>=0.000
       3 -> 11        -0.00012
       3 -> 16         0.00050
       3 -> 19        -0.00024
       3 -> 23         0.00027
       3 -> 24        -0.00039
       3 -> 29         0.00051
       3 -> 32         0.00013
       3 -> 36        -0.00023
       3 -> 43        -0.00024
       3 -> 47         0.00016
       3 -> 50         0.00013
       3 -> 53        -0.00016
       4 ->  9         0.00239
       4 -> 12         0.00035
       4 -> 14         0.00152
       4 -> 15         0.00290
       4 -> 18        -0.00174
       4 -> 20        -0.00036
       4 -> 21         0.00133
       4 -> 25         0.00083
       4 -> 26         0.00076
       4 -> 30         0.00198
       4 -> 31        -0.00117
       4 -> 34        -0.00013
       4 -> 38         0.00017
       4 -> 39        -0.00096
       4 -> 42         0.00036
       4 -> 46         0.00057
       4 -> 49        -0.00016
       4 -> 51        -0.00010
       5 -> 28        -0.00098
       5 -> 35        -0.00127
       5 -> 45        -0.00076
       6 -> 11         0.00028
       6 -> 16         0.00451
       6 -> 19        -0.00109
       6 -> 23        -0.00028
       6 -> 24        -0.00287
       6 -> 29        -0.00178
       6 -> 32         0.00046
       6 -> 36         0.00048
       6 -> 40        -0.00040
       6 -> 43         0.00026
       6 -> 47        -0.00017
       6 -> 50        -0.00017
       7 -> 11        -0.00264
       7 -> 16        -0.00317
       7 -> 19        -0.00179
       7 -> 23         0.00099
       7 -> 24         0.00255
       7 -> 29         0.00049
       7 -> 32        -0.00037
       7 -> 36         0.00076
       7 -> 40        -0.00016
       7 -> 43         0.00031
       7 -> 47        -0.00063
       7 -> 50        -0.00039
       7 -> 53         0.00017
       8 ->  9        -0.00067
       8 -> 12         0.70584
       8 -> 14         0.02760
       8 -> 15         0.02682
       8 -> 18         0.01036
       8 -> 20         0.01581
       8 -> 21         0.00498
       8 -> 25        -0.00080
       8 -> 26         0.00152
       8 -> 30         0.00237
       8 -> 34        -0.00030
       8 -> 38        -0.00018
       8 -> 39         0.00135
       8 -> 42        -0.00088
       8 -> 46        -0.00055
       8 -> 49         0.00018
       8 -> 54        -0.00015
       3 <- 16         0.00050
       3 <- 23         0.00012
       3 <- 24        -0.00044
       3 <- 29         0.00033
       3 <- 32         0.00013
       3 <- 36        -0.00025
       3 <- 43        -0.00021
       3 <- 47         0.00012
       3 <- 53        -0.00022
       4 <-  9        -0.00127
       4 <- 14         0.00142
       4 <- 15         0.00070
       4 <- 18         0.00063
       4 <- 20        -0.00043
       4 <- 21         0.00091
       4 <- 25         0.00096
       4 <- 26         0.00076
       4 <- 30         0.00138
       4 <- 31        -0.00037
       4 <- 34        -0.00065
       4 <- 38         0.00012
       4 <- 39        -0.00072
       4 <- 42         0.00036
       4 <- 46         0.00055
       5 <- 28        -0.00056
       5 <- 35        -0.00109
       5 <- 45        -0.00067
       6 <- 11        -0.00026
       6 <- 16         0.00102
       6 <- 19         0.00060
       6 <- 23        -0.00079
       6 <- 24        -0.00197
       6 <- 29        -0.00118
       6 <- 32         0.00061
       6 <- 36         0.00054
       6 <- 40        -0.00036
       6 <- 43         0.00017
       6 <- 47        -0.00015
       7 <- 11        -0.00023
       7 <- 16        -0.00112
       7 <- 19        -0.00050
       7 <- 23         0.00047
       7 <- 24         0.00125
       7 <- 29        -0.00015
       7 <- 32        -0.00024
       7 <- 36         0.00038
       7 <- 40        -0.00011
       7 <- 43         0.00021
       7 <- 47        -0.00055
       7 <- 50        -0.00045
       8 <-  9        -0.00423
       8 <- 12         0.00127
       8 <- 14         0.01003
       8 <- 15         0.00363
       8 <- 18        -0.00123
       8 <- 20        -0.00282
       8 <- 21         0.00327
       8 <- 25         0.00064
       8 <- 26        -0.00022
       8 <- 30         0.00210
       8 <- 39         0.00113
       8 <- 42        -0.00077
       8 <- 46        -0.00045

 Excited State   4:      Singlet-A1     6.0951 eV  203.41 nm  f=0.0160  <S**2>=0.000
       3 ->  9         0.00122
       3 -> 12        -0.00056
       3 -> 14         0.00016
       3 -> 15        -0.00066
       3 -> 18        -0.00142
       3 -> 21         0.00067
       3 -> 25        -0.00050
       3 -> 26        -0.00024
       3 -> 30        -0.00087
       3 -> 31        -0.00052
       3 -> 34         0.00034
       3 -> 38         0.00032
       3 -> 39         0.00032
       3 -> 46        -0.00012
       3 -> 51         0.00020
       3 -> 54        -0.00016
       4 -> 11        -0.00644
       4 -> 16        -0.00707
       4 -> 19        -0.00469
       4 -> 23        -0.00211
       4 -> 24         0.00336
       4 -> 29        -0.00054
       4 -> 32         0.00010
       4 -> 36        -0.00104
       4 -> 43         0.00028
       4 -> 50         0.00025
       5 -> 10        -0.00428
       5 -> 13         0.00302
       5 -> 17        -0.00379
       5 -> 22        -0.00339
       5 -> 27        -0.00102
       5 -> 33        -0.00092
       5 -> 37        -0.00058
       5 -> 41        -0.00020
       5 -> 48         0.00028
       6 ->  9         0.00995
       6 -> 12         0.00847
       6 -> 14        -0.00509
       6 -> 15        -0.00420
       6 -> 18        -0.00550
       6 -> 20         0.00601
       6 -> 21         0.00034
       6 -> 25        -0.00635
       6 -> 26         0.00110
       6 -> 30         0.00045
       6 -> 31         0.00137
       6 -> 34         0.00177
       6 -> 38         0.00102
       6 -> 39        -0.00123
       6 -> 44         0.00052
       6 -> 49         0.00046
       7 ->  9         0.00910
       7 -> 12        -0.01031
       7 -> 14         0.00075
       7 -> 15         0.00327
       7 -> 18        -0.00791
       7 -> 20        -0.00229
       7 -> 25         0.00087
       7 -> 26        -0.00200
       7 -> 30         0.00016
       7 -> 31        -0.00156
       7 -> 34         0.00046
       7 -> 38        -0.00024
       7 -> 39         0.00030
       7 -> 44        -0.00021
       7 -> 51        -0.00020
       8 -> 11         0.70495
       8 -> 16         0.04981
       8 -> 19        -0.01664
       8 -> 23         0.00014
       8 -> 24        -0.00473
       8 -> 29         0.00413
       8 -> 32         0.00181
       8 -> 36        -0.00306
       8 -> 40         0.00029
       8 -> 43         0.00177
       8 -> 47        -0.00076
       8 -> 50         0.00013
       3 <-  9         0.00062
       3 <- 12        -0.00026
       3 <- 14         0.00011
       3 <- 15        -0.00039
       3 <- 18        -0.00088
       3 <- 21         0.00040
       3 <- 25        -0.00041
       3 <- 26        -0.00020
       3 <- 30        -0.00061
       3 <- 31        -0.00031
       3 <- 34         0.00030
       3 <- 38         0.00023
       3 <- 39         0.00027
       3 <- 46        -0.00016
       3 <- 51         0.00017
       3 <- 54        -0.00014
       4 <- 11        -0.00249
       4 <- 16        -0.00275
       4 <- 19        -0.00260
       4 <- 23        -0.00156
       4 <- 24         0.00180
       4 <- 29        -0.00026
       4 <- 32         0.00019
       4 <- 36        -0.00087
       4 <- 43         0.00025
       4 <- 50         0.00022
       5 <- 10        -0.00217
       5 <- 13         0.00160
       5 <- 17        -0.00217
       5 <- 22        -0.00227
       5 <- 27        -0.00072
       5 <- 33        -0.00075
       5 <- 37        -0.00049
       5 <- 41        -0.00017
       5 <- 48         0.00025
       6 <-  9         0.00781
       6 <- 12         0.00391
       6 <- 14        -0.00398
       6 <- 15        -0.00349
       6 <- 18        -0.00305
       6 <- 20         0.00340
       6 <- 21         0.00108
       6 <- 25        -0.00417
       6 <- 26         0.00063
       6 <- 30        -0.00011
       6 <- 31         0.00110
       6 <- 34         0.00127
       6 <- 38         0.00106
       6 <- 39        -0.00097
       6 <- 44         0.00053
       6 <- 49         0.00037
       7 <-  9         0.00172
       7 <- 12        -0.00392
       7 <- 14         0.00112
       7 <- 15         0.00225
       7 <- 18        -0.00370
       7 <- 20        -0.00104
       7 <- 21        -0.00016
       7 <- 25         0.00060
       7 <- 26        -0.00123
       7 <- 30         0.00024
       7 <- 31        -0.00122
       7 <- 34         0.00031
       7 <- 38        -0.00022
       7 <- 39         0.00012
       7 <- 44        -0.00022
       7 <- 46         0.00010
       7 <- 51        -0.00019
       8 <- 11        -0.00758
       8 <- 16         0.00488
       8 <- 19        -0.01450
       8 <- 23        -0.00343
       8 <- 24        -0.00099
       8 <- 29         0.00274
       8 <- 32         0.00159
       8 <- 36        -0.00238
       8 <- 43         0.00141
       8 <- 47        -0.00076
       8 <- 50         0.00013

 Excited State   5:      Singlet-A2     7.9355 eV  156.24 nm  f=0.0000  <S**2>=0.000
       3 -> 28        -0.00267
       3 -> 35        -0.00187
       3 -> 45        -0.00070
       4 -> 10        -0.00188
       4 -> 13        -0.00896
       4 -> 17        -0.00112
       4 -> 22         0.00348
       4 -> 27        -0.00077
       4 -> 33        -0.00144
       4 -> 37        -0.00297
       4 -> 41        -0.00013
       4 -> 52        -0.00043
       5 -> 16         0.00093
       5 -> 19         0.00043
       5 -> 23        -0.00164
       5 -> 24        -0.00052
       5 -> 29         0.00016
       5 -> 32        -0.00012
       5 -> 36        -0.00050
       5 -> 43        -0.00063
       5 -> 47        -0.00053
       5 -> 50         0.00012
       5 -> 53        -0.00017
       6 -> 28        -0.00291
       6 -> 35         0.00078
       7 -> 28         0.00054
       7 -> 35        -0.00031
       7 -> 45        -0.00073
       8 -> 10        -0.04468
       8 -> 13         0.70390
       8 -> 17         0.04463
       8 -> 22        -0.02210
       8 -> 27         0.00301
       8 -> 33         0.00271
       8 -> 37        -0.00273
       8 -> 52         0.00048
       3 <- 28        -0.00181
       3 <- 35        -0.00154
       3 <- 45        -0.00077
       4 <- 10        -0.00033
       4 <- 13        -0.00083
       4 <- 17        -0.00025
       4 <- 22         0.00012
       4 <- 27        -0.00016
       4 <- 33         0.00065
       4 <- 37        -0.00111
       4 <- 41        -0.00035
       4 <- 52        -0.00014
       5 <- 11        -0.00030
       5 <- 16         0.00031
       5 <- 19         0.00081
       5 <- 23        -0.00234
       5 <- 24        -0.00163
       5 <- 29        -0.00043
       5 <- 32         0.00069
       5 <- 36        -0.00139
       5 <- 43        -0.00082
       5 <- 47        -0.00024
       5 <- 53        -0.00038
       6 <- 28        -0.00322
       6 <- 35         0.00048
       6 <- 45         0.00015
       7 <- 28         0.00060
       7 <- 45        -0.00046
       8 <- 10        -0.00634
       8 <- 13        -0.00415
       8 <- 17        -0.00340
       8 <- 22         0.00075
       8 <- 27        -0.00046
       8 <- 33         0.00289
       8 <- 37        -0.00174
       8 <- 41         0.00017
       8 <- 52         0.00019

 The electronic state is 1-A1.
 Alpha  occ. eigenvalues --  -19.16940 -10.27880  -1.32857  -0.73977  -0.70589
 Alpha  occ. eigenvalues --   -0.57766  -0.54924  -0.21176
 Alpha virt. eigenvalues --    0.01034   0.02807   0.04436   0.04613   0.13501
 Alpha virt. eigenvalues --    0.14429   0.17687   0.19016   0.21678   0.24095
 Alpha virt. eigenvalues --    0.26164   0.36557   0.50661   0.56592   0.56896

 Mulliken charges:
               1
     1  C    0.337497
     2  H   -0.077379
     3  H   -0.077379
     4  O   -0.182740
 Sum of Mulliken charges =  -0.00000

 Dipole moment (field-independent basis, Debye):
    X=              0.0000    Y=              0.0000    Z=              0.7957  Tot=              0.7957
 Quadrupole moment (field-independent basis, Debye-Ang):
   XX=            -10.3321   YY=            -13.3009   ZZ=            -13.5656
   XY=             -0.0000   XZ=             -0.0000   YZ=              0.0000

 Normal termination of Gaussian 16 at Fri Sep 17 10:52:23 2021.
