 Gaussian 16, Revision A.03,
 Gaussian 16:  ES64L-G16RevA.03 25-Dec-2016

 --------------------------------------------------------------------
 #p B3LYP/6-311+G** #p TD=(singlets,nstates=30)IOp(6/8=3) IOp(9/40=4)
 --------------------------------------------------------------------

 -------------------------------
 Scan Step 294, Bond Length 1.97
 -------------------------------
 Symbolic Z-matrix:
 Charge =  0 Multiplicity = 1

                         Standard orientation:
 ---------------------------------------------------------------------
 Center     Atomic      Atomic             Coordinates (Angstroms)
 Number     Number       Type             X           Y           Z
 ---------------------------------------------------------------------
      1          6           0        0.000000    0.000000   -0.911081
      2          1           0        0.000000    0.937260   -1.502431
      3          1           0       -0.000000   -0.937260   -1.502431
      4          8           0        0.000000   -0.000000    1.058919
 ---------------------------------------------------------------------

 SCF Done:  E(RB3LYP) =  -114.304644659     A.U. after   13 cycles

 Excitation energies and oscillator strengths:

 Excited State   1:      Singlet-A2     1.0229 eV 1212.08 nm  f=0.0000  <S**2>=0.000
       3 -> 27         0.00055
       3 -> 38         0.00031
       3 -> 47         0.00325
       4 -> 27         0.00027
       4 -> 47        -0.00075
       5 ->  9        -0.00020
       5 -> 14         0.00102
       5 -> 18         0.00123
       5 -> 23         0.00114
       5 -> 28         0.00087
       5 -> 37         0.00053
       5 -> 44         0.00015
       5 -> 52         0.00012
       6 -> 27        -0.00050
       6 -> 38        -0.00045
       6 -> 47         0.00075
       7 -> 12        -0.00148
       7 -> 16         0.00540
       7 -> 19        -0.00501
       7 -> 22        -0.00113
       7 -> 25        -0.00040
       7 -> 30        -0.00207
       7 -> 33         0.00024
       7 -> 49         0.00012
       7 -> 53         0.00034
       8 ->  9         0.71232
       8 -> 14        -0.00463
       8 -> 18         0.02010
       8 -> 23        -0.00021
       8 -> 28         0.00960
       8 -> 31         0.00154
       8 -> 37         0.00045
       8 -> 46        -0.00026
       8 -> 52         0.00177
       3 <- 38         0.00011
       3 <- 47         0.00327
       4 <- 27         0.00052
       4 <- 38         0.00015
       4 <- 47        -0.00056
       5 <-  9         0.00067
       5 <- 14        -0.00025
       5 <- 18        -0.00025
       5 <- 23         0.00012
       5 <- 28        -0.00021
       5 <- 31         0.00018
       5 <- 37         0.00031
       6 <- 38        -0.00033
       6 <- 47         0.00052
       7 <- 12         0.00236
       7 <- 16        -0.01039
       7 <- 19         0.00640
       7 <- 22         0.00488
       7 <- 25        -0.00062
       7 <- 30         0.00566
       7 <- 33        -0.00033
       7 <- 49        -0.00045
       7 <- 53         0.00142
       8 <-  9        -0.08778
       8 <- 14        -0.00081
       8 <- 18        -0.00809
       8 <- 23        -0.00050
       8 <- 28        -0.00281
       8 <- 31        -0.00086
       8 <- 37        -0.00013
       8 <- 46         0.00013
       8 <- 52         0.00039
 This state for optimization and/or second-order correction.
 Total Energy, E(TD-HF/TD-DFT) =  -114.267053505
 Copying the excited state density for this state as the 1-particle RhoCI density.

 Excited State   2:      Singlet-B2     2.6075 eV  475.49 nm  f=0.0011  <S**2>=0.000
       3 -> 12        -0.00097
       3 -> 16         0.00076
       3 -> 19        -0.00321
       3 -> 22         0.00113
       3 -> 25        -0.00086
       3 -> 30        -0.00208
       3 -> 33         0.00037
       3 -> 35         0.00093
       3 -> 40        -0.00100
       3 -> 42        -0.00023
       3 -> 49        -0.00410
       3 -> 51         0.00013
       3 -> 53         0.00021
       4 -> 12         0.00029
       4 -> 16        -0.00105
       4 -> 19         0.00024
       4 -> 22         0.00133
       4 -> 25         0.00036
       4 -> 30         0.00059
       4 -> 33        -0.00025
       4 -> 35         0.00037
       4 -> 40         0.00018
       4 -> 49         0.00071
       5 -> 10         0.00837
       5 -> 11         0.00076
       5 -> 13        -0.00183
       5 -> 15         0.00224
       5 -> 17        -0.00052
       5 -> 20         0.00173
       5 -> 21         0.00207
       5 -> 24         0.00118
       5 -> 26        -0.00013
       5 -> 29        -0.00196
       5 -> 32        -0.00049
       5 -> 39         0.00047
       5 -> 41         0.00031
       5 -> 48        -0.00024
       5 -> 50         0.00016
       5 -> 54        -0.00015
       6 -> 12         0.00232
       6 -> 16        -0.00294
       6 -> 19         0.00441
       6 -> 22        -0.00071
       6 -> 25         0.00115
       6 -> 30         0.00056
       6 -> 33        -0.00025
       6 -> 35        -0.00091
       6 -> 40         0.00054
       6 -> 42         0.00048
       6 -> 49         0.00086
       6 -> 53        -0.00043
       7 -> 27        -0.00040
       7 -> 38         0.00021
       7 -> 47         0.00249
       8 -> 10         0.70752
       8 -> 11         0.03850
       8 -> 13        -0.03630
       8 -> 15        -0.01615
       8 -> 17        -0.01645
       8 -> 20         0.00759
       8 -> 21         0.00420
       8 -> 24        -0.00460
       8 -> 26        -0.00329
       8 -> 29        -0.01375
       8 -> 32         0.00226
       8 -> 34        -0.00083
       8 -> 36         0.00194
       8 -> 39         0.00016
       8 -> 41        -0.00016
       8 -> 45        -0.00072
       8 -> 48        -0.00304
       8 -> 50         0.00096
       8 -> 54        -0.00252
       3 <- 12        -0.00033
       3 <- 16         0.00030
       3 <- 19        -0.00163
       3 <- 22         0.00084
       3 <- 25        -0.00078
       3 <- 30        -0.00086
       3 <- 33         0.00034
       3 <- 35         0.00054
       3 <- 40        -0.00086
       3 <- 49        -0.00414
       3 <- 51         0.00013
       3 <- 53         0.00061
       4 <- 12         0.00012
       4 <- 16        -0.00142
       4 <- 19         0.00019
       4 <- 22         0.00175
       4 <- 25         0.00014
       4 <- 30         0.00091
       4 <- 33        -0.00025
       4 <- 35         0.00052
       4 <- 49         0.00049
       5 <- 10        -0.00097
       5 <- 11        -0.00037
       5 <- 13        -0.00031
       5 <- 15         0.00188
       5 <- 17         0.00018
       5 <- 20         0.00074
       5 <- 21         0.00131
       5 <- 24         0.00126
       5 <- 29        -0.00044
       5 <- 32        -0.00018
       5 <- 39         0.00025
       5 <- 41         0.00033
       5 <- 45        -0.00015
       5 <- 48        -0.00027
       6 <- 12        -0.00126
       6 <- 16         0.00853
       6 <- 19        -0.00511
       6 <- 22        -0.00520
       6 <- 25         0.00142
       6 <- 30        -0.00634
       6 <- 33         0.00012
       6 <- 35        -0.00068
       6 <- 40         0.00051
       6 <- 42         0.00043
       6 <- 49         0.00142
       6 <- 53        -0.00146
       7 <- 27        -0.00042
       7 <- 38         0.00017
       7 <- 47         0.00219
       8 <- 10        -0.06361
       8 <- 11        -0.00687
       8 <- 13         0.00643
       8 <- 15         0.00226
       8 <- 17         0.00310
       8 <- 20        -0.00383
       8 <- 21        -0.00082
       8 <- 24         0.00128
       8 <- 26         0.00074
       8 <- 29         0.00326
       8 <- 32         0.00170
       8 <- 34         0.00071
       8 <- 36        -0.00098
       8 <- 39        -0.00068
       8 <- 41         0.00012
       8 <- 43         0.00024
       8 <- 45        -0.00133
       8 <- 48        -0.00258
       8 <- 50         0.00101
       8 <- 54        -0.00064

 Excited State   3:      Singlet-A1     2.6560 eV  466.80 nm  f=0.0180  <S**2>=0.000
       3 -> 10        -0.01076
       3 -> 11        -0.00172
       3 -> 13        -0.00024
       3 -> 17        -0.00276
       3 -> 20        -0.00298
       3 -> 21         0.00075
       3 -> 26         0.00046
       3 -> 29         0.00027
       3 -> 32         0.00245
       3 -> 34         0.00087
       3 -> 36        -0.00084
       3 -> 39        -0.00023
       3 -> 43         0.00039
       3 -> 45        -0.00138
       3 -> 48         0.00231
       3 -> 50         0.00170
       3 -> 54        -0.00015
       4 -> 10         0.00056
       4 -> 11         0.00836
       4 -> 13         0.00105
       4 -> 15        -0.00653
       4 -> 17         0.00176
       4 -> 20         0.00117
       4 -> 21         0.00015
       4 -> 24        -0.00343
       4 -> 26         0.00236
       4 -> 32        -0.00091
       4 -> 34        -0.00057
       4 -> 39        -0.00031
       4 -> 43        -0.00037
       4 -> 45         0.00071
       4 -> 48        -0.00060
       4 -> 50        -0.00020
       4 -> 54         0.00012
       5 -> 12         0.00692
       5 -> 16         0.00056
       5 -> 19         0.00086
       5 -> 22         0.00583
       5 -> 25        -0.00312
       5 -> 30         0.00029
       5 -> 33        -0.00213
       5 -> 35         0.00267
       5 -> 40        -0.00082
       5 -> 42        -0.00096
       5 -> 51        -0.00092
       6 -> 10         0.26906
       6 -> 11         0.02474
       6 -> 13        -0.02556
       6 -> 15        -0.01619
       6 -> 17        -0.01360
       6 -> 20         0.00041
       6 -> 21         0.00295
       6 -> 24        -0.00576
       6 -> 26        -0.00189
       6 -> 29        -0.00127
       6 -> 32         0.00484
       6 -> 34         0.00134
       6 -> 36         0.00086
       6 -> 39        -0.00162
       6 -> 43         0.00073
       6 -> 45        -0.00102
       6 -> 48         0.00063
       6 -> 50         0.00038
       6 -> 54        -0.00099
       7 ->  9         0.67173
       7 -> 14        -0.00852
       7 -> 18        -0.00740
       7 -> 23        -0.00324
       7 -> 28         0.00190
       7 -> 31        -0.00330
       7 -> 37         0.00136
       7 -> 44        -0.00094
       7 -> 52         0.00104
       8 -> 12        -0.00662
       8 -> 16         0.02614
       8 -> 19        -0.01563
       8 -> 22        -0.00809
       8 -> 30        -0.00637
       8 -> 33         0.00068
       8 -> 35        -0.00031
       8 -> 42         0.00012
       8 -> 49        -0.00014
       8 -> 51         0.00011
       8 -> 53        -0.00045
       3 <- 10        -0.00915
       3 <- 11        -0.00178
       3 <- 13        -0.00027
       3 <- 15        -0.00045
       3 <- 17        -0.00167
       3 <- 20        -0.00279
       3 <- 21         0.00036
       3 <- 24        -0.00046
       3 <- 26        -0.00027
       3 <- 29         0.00050
       3 <- 32         0.00204
       3 <- 34         0.00044
       3 <- 36        -0.00093
       3 <- 39        -0.00014
       3 <- 43         0.00040
       3 <- 45        -0.00145
       3 <- 48         0.00230
       3 <- 50         0.00171
       4 <- 10         0.00154
       4 <- 11         0.00663
       4 <- 13         0.00107
       4 <- 15        -0.00481
       4 <- 17         0.00115
       4 <- 20         0.00183
       4 <- 24        -0.00276
       4 <- 26         0.00221
       4 <- 29        -0.00041
       4 <- 32        -0.00084
       4 <- 34        -0.00049
       4 <- 36         0.00016
       4 <- 39        -0.00035
       4 <- 43        -0.00033
       4 <- 45         0.00062
       4 <- 48        -0.00035
       4 <- 54         0.00010
       5 <- 12         0.00470
       5 <- 16         0.00047
       5 <- 19         0.00075
       5 <- 22         0.00449
       5 <- 25        -0.00259
       5 <- 30         0.00030
       5 <- 33        -0.00184
       5 <- 35         0.00237
       5 <- 40        -0.00077
       5 <- 42        -0.00087
       5 <- 51        -0.00088
       6 <- 10         0.09654
       6 <- 11         0.01174
       6 <- 13        -0.01384
       6 <- 15        -0.00964
       6 <- 17        -0.00903
       6 <- 20        -0.00105
       6 <- 21         0.00235
       6 <- 24        -0.00396
       6 <- 26        -0.00071
       6 <- 29        -0.00031
       6 <- 32         0.00447
       6 <- 34         0.00149
       6 <- 36         0.00041
       6 <- 39        -0.00145
       6 <- 43         0.00063
       6 <- 45        -0.00074
       6 <- 48         0.00034
       6 <- 50         0.00024
       6 <- 54        -0.00093
       7 <-  9        -0.12800
       7 <- 14         0.00160
       7 <- 18        -0.00987
       7 <- 23        -0.00026
       7 <- 28        -0.00089
       7 <- 31        -0.00155
       7 <- 37         0.00066
       7 <- 44        -0.00088
       7 <- 46        -0.00047
       7 <- 52         0.00098
       8 <- 12        -0.00337
       8 <- 16         0.01517
       8 <- 19        -0.01020
       8 <- 22        -0.00585
       8 <- 25         0.00012
       8 <- 30        -0.00535
       8 <- 33         0.00056
       8 <- 35        -0.00023
       8 <- 49        -0.00023
       8 <- 53        -0.00043

 Excited State   4:      Singlet-B1     2.8864 eV  429.54 nm  f=0.0002  <S**2>=0.000
       3 ->  9        -0.01609
       3 -> 14         0.00042
       3 -> 18        -0.00318
       3 -> 23         0.00099
       3 -> 28        -0.00146
       3 -> 31        -0.00113
       3 -> 37         0.00016
       3 -> 44         0.00010
       3 -> 46        -0.00171
       3 -> 52         0.00041
       4 ->  9        -0.00575
       4 -> 14         0.00092
       4 -> 18         0.00025
       4 -> 23         0.00074
       4 -> 28         0.00062
       4 -> 31        -0.00068
       4 -> 46         0.00019
       4 -> 52        -0.00010
       5 -> 27        -0.00223
       5 -> 38        -0.00025
       5 -> 47         0.00027
       6 ->  9         0.41224
       6 -> 14        -0.01121
       6 -> 18         0.01082
       6 -> 23        -0.00697
       6 -> 28         0.00374
       6 -> 44        -0.00072
       6 -> 46         0.00190
       6 -> 52         0.00023
       7 -> 10         0.58067
       7 -> 11         0.03220
       7 -> 13        -0.03172
       7 -> 15        -0.01609
       7 -> 17        -0.01316
       7 -> 20         0.00487
       7 -> 21         0.00243
       7 -> 24        -0.00614
       7 -> 26        -0.00436
       7 -> 29        -0.00871
       7 -> 32         0.00202
       7 -> 34        -0.00092
       7 -> 36         0.00092
       7 -> 41        -0.00012
       7 -> 43         0.00043
       7 -> 45        -0.00112
       7 -> 48         0.00269
       7 -> 50         0.00079
       7 -> 54        -0.00129
       8 -> 27         0.00012
       8 -> 47         0.00326
       3 <-  9        -0.00536
       3 <- 14        -0.00040
       3 <- 18        -0.00202
       3 <- 28        -0.00095
       3 <- 31        -0.00062
       3 <- 44        -0.00020
       3 <- 46        -0.00166
       3 <- 52         0.00058
       4 <-  9        -0.00267
       4 <- 14         0.00090
       4 <- 18         0.00099
       4 <- 23         0.00072
       4 <- 28         0.00130
       4 <- 31        -0.00052
       4 <- 44        -0.00037
       5 <- 27        -0.00211
       5 <- 38        -0.00018
       5 <- 47         0.00026
       6 <-  9        -0.06712
       6 <- 14         0.00231
       6 <- 18        -0.00706
       6 <- 23         0.00096
       6 <- 28        -0.00415
       6 <- 31        -0.00256
       6 <- 37         0.00030
       6 <- 44         0.00050
       6 <- 46         0.00194
       6 <- 52        -0.00086
       7 <- 10        -0.07431
       7 <- 11        -0.00812
       7 <- 13         0.01025
       7 <- 15         0.00464
       7 <- 17         0.00393
       7 <- 20        -0.00100
       7 <- 21        -0.00254
       7 <- 24         0.00233
       7 <- 26         0.00152
       7 <- 29         0.00246
       7 <- 34        -0.00010
       7 <- 36        -0.00043
       7 <- 39        -0.00030
       7 <- 41         0.00024
       7 <- 43         0.00022
       7 <- 45        -0.00081
       7 <- 48         0.00247
       7 <- 50         0.00109
       7 <- 54         0.00013
       8 <- 27         0.00038
       8 <- 47         0.00296

 Excited State   5:      Singlet-B1     3.4781 eV  356.47 nm  f=0.0050  <S**2>=0.000
       3 ->  9        -0.00777
       3 -> 14         0.00033
       3 -> 18        -0.00010
       3 -> 23         0.00027
       3 -> 28         0.00144
       3 -> 31         0.00068
       3 -> 44         0.00044
       3 -> 46         0.00309
       3 -> 52         0.00046
       4 ->  9         0.02777
       4 -> 14        -0.00566
       4 -> 18        -0.00049
       4 -> 23        -0.00453
       4 -> 28        -0.00020
       4 -> 31        -0.00092
       4 -> 37        -0.00034
       4 -> 44         0.00037
       4 -> 46        -0.00088
       4 -> 52        -0.00020
       5 -> 27         0.00528
       5 -> 38         0.00378
       6 ->  9         0.57768
       6 -> 14        -0.01111
       6 -> 18         0.00547
       6 -> 23        -0.00725
       6 -> 28        -0.00097
       6 -> 31         0.00450
       6 -> 37        -0.00288
       6 -> 44        -0.00146
       6 -> 46         0.00203
       6 -> 52         0.00108
       7 -> 10        -0.40614
       7 -> 11        -0.01654
       7 -> 13         0.01755
       7 -> 15         0.01559
       7 -> 17         0.00295
       7 -> 20         0.00242
       7 -> 21        -0.00079
       7 -> 24         0.00522
       7 -> 26         0.00236
       7 -> 29         0.00468
       7 -> 34         0.00296
       7 -> 36         0.00150
       7 -> 39        -0.00058
       7 -> 43        -0.00020
       7 -> 45         0.00035
       7 -> 48         0.00112
       7 -> 50         0.00057
       7 -> 54         0.00134
       8 -> 27        -0.00038
       8 -> 38        -0.00016
       8 -> 47         0.00131
       3 <-  9        -0.00254
       3 <- 14        -0.00099
       3 <- 18        -0.00050
       3 <- 23        -0.00065
       3 <- 28         0.00115
       3 <- 31        -0.00032
       3 <- 37         0.00034
       3 <- 44         0.00042
       3 <- 46         0.00318
       3 <- 52         0.00014
       4 <-  9         0.01542
       4 <- 14        -0.00299
       4 <- 18         0.00040
       4 <- 23        -0.00304
       4 <- 31        -0.00071
       4 <- 37        -0.00030
       4 <- 44         0.00040
       4 <- 46        -0.00056
       4 <- 52        -0.00014
       5 <- 27         0.00389
       5 <- 38         0.00328
       6 <-  9         0.00337
       6 <- 14         0.00178
       6 <- 18         0.00025
       6 <- 23        -0.00025
       6 <- 28        -0.00199
       6 <- 31         0.00449
       6 <- 37        -0.00272
       6 <- 44        -0.00086
       6 <- 46         0.00128
       6 <- 52         0.00106
       7 <- 10        -0.01585
       7 <- 11        -0.00258
       7 <- 13         0.00489
       7 <- 15         0.00816
       7 <- 17         0.00122
       7 <- 20         0.00484
       7 <- 21        -0.00043
       7 <- 24         0.00411
       7 <- 26         0.00123
       7 <- 29         0.00107
       7 <- 32        -0.00119
       7 <- 34         0.00211
       7 <- 36         0.00228
       7 <- 39        -0.00031
       7 <- 43        -0.00031
       7 <- 45         0.00050
       7 <- 48         0.00119
       7 <- 50         0.00088
       7 <- 54         0.00114
       8 <- 47         0.00145

 Excited State   6:      Singlet-A2     6.6743 eV  185.76 nm  f=0.0000  <S**2>=0.000
       3 -> 27        -0.00091
       3 -> 38        -0.00023
       4 -> 27        -0.00605
       4 -> 38         0.00045

 The electronic state is 1-A1.
 Alpha  occ. eigenvalues --  -19.17821 -10.34399  -0.87955  -0.72160  -0.49531
 Alpha  occ. eigenvalues --   -0.37353  -0.29742  -0.28503
 Alpha virt. eigenvalues --   -0.18299  -0.10869  -0.00352   0.04022   0.06043
 Alpha virt. eigenvalues --    0.06080   0.11433   0.12805   0.18545   0.20802
 Alpha virt. eigenvalues --    0.23848   0.30403   0.38471   0.39004   0.50346

 Mulliken charges:
               1
     1  C   -0.112484
     2  H    0.195276
     3  H    0.195276
     4  O   -0.278069
 Sum of Mulliken charges =  -0.00000

 Dipole moment (field-independent basis, Debye):
    X=             -0.0000    Y=             -0.0000    Z=             -4.4016  Tot=              4.4016
 Quadrupole moment (field-independent basis, Debye-Ang):
   XX=            -13.1355   YY=            -12.1245   ZZ=            -10.2288
   XY=              0.0000   XZ=              0.0000   YZ=             -0.0000

 Normal termination of Gaussian 16 at Fri Sep 17 10:53:21 2021.
