 Gaussian 16, Revision A.03,
 Gaussian 16:  ES64L-G16RevA.03 25-Dec-2016

 --------------------------------------------------------------------
 #p B3LYP/6-311+G** #p TD=(singlets,nstates=30)IOp(6/8=3) IOp(9/40=4)
 --------------------------------------------------------------------

 -------------------------------
 Scan Step 138, Bond Length 1.19
 -------------------------------
 Symbolic Z-matrix:
 Charge =  0 Multiplicity = 1

                         Standard orientation:
 ---------------------------------------------------------------------
 Center     Atomic      Atomic             Coordinates (Angstroms)
 Number     Number       Type             X           Y           Z
 ---------------------------------------------------------------------
      1          6           0        0.000000    0.000000   -0.521081
      2          1           0        0.000000    0.937260   -1.112431
      3          1           0       -0.000000   -0.937260   -1.112431
      4          8           0        0.000000   -0.000000    0.668919
 ---------------------------------------------------------------------

 SCF Done:  E(RB3LYP) =  -114.541539206     A.U. after    9 cycles

 Excitation energies and oscillator strengths:

 Excited State   1:      Singlet-A2     4.0315 eV  307.54 nm  f=0.0000  <S**2>=0.000
       3 -> 27         0.00255
       3 -> 38         0.00215
       3 -> 45         0.00241
       4 -> 27         0.00202
       4 -> 38        -0.00058
       4 -> 45        -0.00127
       5 ->  9         0.02121
       5 -> 13        -0.00370
       5 -> 17         0.00575
       5 -> 23        -0.00047
       5 -> 29         0.00433
       5 -> 31         0.00244
       5 -> 37         0.00353
       5 -> 44         0.00064
       5 -> 47         0.00015
       5 -> 52         0.00079
       6 -> 38        -0.00081
       6 -> 45         0.00177
       7 -> 12        -0.00062
       7 -> 15         0.00268
       7 -> 18        -0.00267
       7 -> 22         0.00083
       7 -> 25         0.00142
       7 -> 30        -0.00089
       7 -> 33         0.00043
       7 -> 35        -0.00030
       7 -> 40        -0.00027
       7 -> 49         0.00039
       7 -> 50         0.00031
       7 -> 53         0.00046
       8 ->  9         0.70510
       8 -> 13        -0.04719
       8 -> 17         0.02328
       8 -> 23        -0.01067
       8 -> 29         0.00878
       8 -> 31         0.00279
       8 -> 37        -0.00028
       8 -> 44        -0.00014
       8 -> 47        -0.00024
       8 -> 52         0.00164
       3 <- 27         0.00167
       3 <- 38         0.00179
       3 <- 45         0.00250
       4 <- 27         0.00284
       4 <- 45        -0.00109
       5 <-  9        -0.00035
       5 <- 13        -0.00084
       5 <- 17        -0.00096
       5 <- 23         0.00055
       5 <- 29        -0.00064
       5 <- 31        -0.00094
       5 <- 37         0.00167
       5 <- 44         0.00027
       5 <- 47         0.00016
       5 <- 52         0.00021
       6 <- 27         0.00051
       6 <- 38        -0.00073
       6 <- 45         0.00138
       7 <- 12        -0.00083
       7 <- 15        -0.00695
       7 <- 22         0.00724
       7 <- 25        -0.00023
       7 <- 30         0.00325
       7 <- 33        -0.00133
       7 <- 35        -0.00244
       7 <- 40        -0.00100
       7 <- 42         0.00012
       7 <- 49         0.00020
       7 <- 50         0.00020
       7 <- 53         0.00126
       8 <-  9        -0.02309
       8 <- 13         0.00333
       8 <- 17        -0.00423
       8 <- 23         0.00080
       8 <- 29        -0.00088
       8 <- 31         0.00096
       8 <- 37        -0.00154
       8 <- 52         0.00047
 This state for optimization and/or second-order correction.
 Total Energy, E(TD-HF/TD-DFT) =  -114.393384213
 Copying the excited state density for this state as the 1-particle RhoCI density.

 Excited State   2:      Singlet-B2     6.8361 eV  181.37 nm  f=0.0330  <S**2>=0.000
       3 -> 12         0.00145
       3 -> 15         0.00072
       3 -> 18         0.00116
       3 -> 22        -0.00030
       3 -> 25         0.00130
       3 -> 30        -0.00010
       3 -> 33         0.00018
       3 -> 35         0.00037
       4 -> 12        -0.00337
       4 -> 15         0.00174
       4 -> 18         0.00213
       4 -> 22        -0.00334
       4 -> 25         0.00345
       4 -> 30         0.00026
       4 -> 33        -0.00056
       4 -> 35        -0.00065
       4 -> 40        -0.00047
       4 -> 42        -0.00010
       5 -> 10        -0.00613
       5 -> 11        -0.00893
       5 -> 14         0.00699
       5 -> 16        -0.00091
       5 -> 19         0.00090
       5 -> 20         0.00188
       5 -> 21         0.00568
       5 -> 26         0.00257
       5 -> 28         0.00133
       5 -> 32         0.00080
       5 -> 34        -0.00102
       5 -> 36        -0.00022
       5 -> 39        -0.00031
       5 -> 41        -0.00031
       5 -> 43        -0.00055
       5 -> 46        -0.00038
       5 -> 54         0.00011
       6 -> 12         0.00026
       6 -> 15         0.00150
       6 -> 18         0.00235
       6 -> 22        -0.00259
       6 -> 25         0.00126
       6 -> 30        -0.00049
       6 -> 33        -0.00020
       6 -> 35        -0.00031
       6 -> 40         0.00017
       6 -> 42        -0.00020
       6 -> 49         0.00046
       6 -> 50        -0.00036
       7 -> 27         0.00023
       7 -> 38        -0.00052
       7 -> 45         0.00048
       8 -> 10         0.70330
       8 -> 11        -0.06824
       8 -> 14         0.01181
       8 -> 16        -0.00678
       8 -> 19         0.01266
       8 -> 20         0.01374
       8 -> 21        -0.00329
       8 -> 24         0.00028
       8 -> 26         0.00227
       8 -> 28         0.00069
       8 -> 32        -0.00096
       8 -> 34         0.00144
       8 -> 36         0.00042
       8 -> 39         0.00040
       8 -> 41        -0.00017
       8 -> 43         0.00063
       8 -> 46        -0.00067
       8 -> 48        -0.00013
       8 -> 54         0.00018
       3 <- 12         0.00036
       3 <- 15         0.00054
       3 <- 18         0.00045
       3 <- 22        -0.00044
       3 <- 25         0.00077
       3 <- 30        -0.00011
       3 <- 33         0.00015
       3 <- 35         0.00034
       4 <- 12         0.00072
       4 <- 15         0.00188
       4 <- 18         0.00207
       4 <- 22        -0.00205
       4 <- 25         0.00238
       4 <- 30         0.00019
       4 <- 33        -0.00034
       4 <- 35        -0.00038
       4 <- 40        -0.00015
       4 <- 42        -0.00023
       4 <- 50        -0.00011
       5 <- 10         0.00241
       5 <- 11        -0.00025
       5 <- 14         0.00490
       5 <- 16        -0.00080
       5 <- 19         0.00020
       5 <- 20         0.00075
       5 <- 21         0.00219
       5 <- 24         0.00184
       5 <- 26         0.00156
       5 <- 28         0.00022
       5 <- 32         0.00053
       5 <- 34        -0.00098
       5 <- 36        -0.00030
       5 <- 39        -0.00017
       5 <- 41        -0.00012
       5 <- 43        -0.00041
       5 <- 46        -0.00033
       6 <- 12         0.00015
       6 <- 18         0.00126
       6 <- 22        -0.00077
       6 <- 25         0.00044
       6 <- 30         0.00030
       6 <- 33        -0.00027
       6 <- 35        -0.00042
       6 <- 40         0.00016
       6 <- 42        -0.00019
       6 <- 49         0.00038
       6 <- 50        -0.00036
       6 <- 53         0.00013
       7 <- 27         0.00019
       7 <- 38        -0.00039
       7 <- 45         0.00043
       8 <- 10        -0.00190
       8 <- 11        -0.00053
       8 <- 14        -0.00588
       8 <- 16        -0.00033
       8 <- 19        -0.00021
       8 <- 20        -0.00052
       8 <- 21        -0.00208
       8 <- 24        -0.00240
       8 <- 26        -0.00060
       8 <- 28        -0.00060
       8 <- 32        -0.00111
       8 <- 34         0.00044
       8 <- 36         0.00038
       8 <- 39         0.00032
       8 <- 43         0.00044
       8 <- 46        -0.00044

 Excited State   3:      Singlet-B2     7.6242 eV  162.62 nm  f=0.0248  <S**2>=0.000
       3 -> 12        -0.00029
       3 -> 15        -0.00077
       3 -> 18         0.00081
       3 -> 22         0.00039
       3 -> 25         0.00018
       3 -> 30         0.00204
       3 -> 33         0.00013
       3 -> 35         0.00045
       3 -> 40         0.00042
       3 -> 49         0.00043
       3 -> 50        -0.00023
       4 -> 12         0.00280
       4 -> 18         0.00253
       4 -> 22        -0.00150
       4 -> 25         0.00305
       4 -> 30        -0.00121
       4 -> 33         0.00051
       4 -> 35         0.00052
       4 -> 42        -0.00014
       4 -> 49         0.00024
       5 -> 10        -0.00732
       5 -> 14         0.00822
       5 -> 16        -0.00712
       5 -> 19        -0.00259
       5 -> 20        -0.00436
       5 -> 21         0.00139
       5 -> 24         0.00118
       5 -> 26         0.00080
       5 -> 28         0.00163
       5 -> 32         0.00018
       5 -> 34        -0.00121
       5 -> 36        -0.00023
       5 -> 39         0.00041
       5 -> 41        -0.00076
       5 -> 43         0.00012
       5 -> 46         0.00087
       5 -> 51        -0.00041
       6 -> 12        -0.00312
       6 -> 15        -0.00180
       6 -> 18        -0.00096
       6 -> 22         0.00132
       6 -> 25         0.00015
       6 -> 30         0.00094
       6 -> 33        -0.00053
       6 -> 35        -0.00149
       6 -> 40        -0.00102
       6 -> 49        -0.00108
       6 -> 50         0.00049
       6 -> 53         0.00011
       7 -> 38        -0.00096
       7 -> 45        -0.00172
       8 -> 10         0.06871
       8 -> 11         0.70284
       8 -> 14        -0.00693
       8 -> 16         0.01145
       8 -> 19        -0.02913
       8 -> 20         0.00759
       8 -> 21        -0.00276
       8 -> 24         0.00048
       8 -> 26        -0.00142
       8 -> 28         0.00089
       8 -> 32        -0.00024
       8 -> 34        -0.00018
       8 -> 39        -0.00020
       8 -> 41        -0.00125
       8 -> 43         0.00029
       8 -> 46         0.00184
       8 -> 48         0.00010
       8 -> 51        -0.00094
       8 -> 54        -0.00012
       3 <- 12         0.00034
       3 <- 15        -0.00024
       3 <- 18         0.00089
       3 <- 25         0.00032
       3 <- 30         0.00116
       3 <- 33         0.00024
       3 <- 35         0.00050
       3 <- 40         0.00038
       3 <- 49         0.00036
       3 <- 50        -0.00015
       3 <- 53        -0.00027
       4 <- 12         0.00034
       4 <- 15         0.00072
       4 <- 18         0.00063
       4 <- 22        -0.00115
       4 <- 25         0.00126
       4 <- 30        -0.00058
       4 <- 33         0.00046
       4 <- 35         0.00018
       4 <- 42        -0.00015
       4 <- 49         0.00018
       4 <- 50        -0.00013
       5 <- 10         0.00127
       5 <- 11        -0.00114
       5 <- 14         0.00255
       5 <- 16        -0.00043
       5 <- 19         0.00104
       5 <- 20        -0.00044
       5 <- 21         0.00077
       5 <- 24         0.00133
       5 <- 26        -0.00012
       5 <- 28         0.00073
       5 <- 32         0.00106
       5 <- 34        -0.00022
       5 <- 36         0.00016
       5 <- 39         0.00012
       5 <- 41        -0.00079
       5 <- 46         0.00081
       5 <- 48         0.00014
       5 <- 51        -0.00031
       6 <- 12        -0.00032
       6 <- 15        -0.00065
       6 <- 22         0.00068
       6 <- 25        -0.00010
       6 <- 30         0.00068
       6 <- 33        -0.00038
       6 <- 35        -0.00120
       6 <- 40        -0.00077
       6 <- 49        -0.00088
       6 <- 50         0.00039
       7 <- 27         0.00018
       7 <- 38        -0.00076
       7 <- 45        -0.00145
       8 <- 10        -0.00069
       8 <- 11        -0.00073
       8 <- 14        -0.00376
       8 <- 16         0.00047
       8 <- 19         0.00406
       8 <- 20        -0.00103
       8 <- 21        -0.00203
       8 <- 24         0.00034
       8 <- 26        -0.00168
       8 <- 28         0.00024
       8 <- 32         0.00113
       8 <- 34         0.00128
       8 <- 39        -0.00052
       8 <- 41        -0.00110
       8 <- 43         0.00015
       8 <- 46         0.00146
       8 <- 48         0.00022
       8 <- 51        -0.00064

 Excited State   4:      Singlet-A1     7.8149 eV  158.65 nm  f=0.0496  <S**2>=0.000
       3 -> 10         0.00193
       3 -> 11        -0.00084
       3 -> 14         0.00090
       3 -> 16        -0.00015
       3 -> 19        -0.00018
       3 -> 20         0.00187
       3 -> 21         0.00082
       3 -> 24        -0.00065
       3 -> 26         0.00119
       3 -> 28         0.00095
       3 -> 34        -0.00064
       3 -> 36        -0.00020
       3 -> 41        -0.00021
       3 -> 46         0.00014
       3 -> 48         0.00030
       3 -> 51        -0.00021
       3 -> 54        -0.00019
       4 -> 10         0.00485
       4 -> 11         0.00577
       4 -> 14         0.00488
       4 -> 16         0.00041
       4 -> 19         0.00026
       4 -> 20         0.00401
       4 -> 21         0.00068
       4 -> 24         0.00713
       4 -> 26         0.00170
       4 -> 28        -0.00038
       4 -> 32         0.00065
       4 -> 43         0.00016
       4 -> 46        -0.00021
       4 -> 51        -0.00015
       5 -> 12         0.00630
       5 -> 15         0.00226
       5 -> 18         0.01044
       5 -> 22        -0.00221
       5 -> 25         0.00536
       5 -> 30        -0.00016
       5 -> 33        -0.00016
       5 -> 35        -0.00076
       5 -> 50         0.00024
       5 -> 53        -0.00013
       6 -> 10         0.01220
       6 -> 11        -0.00263
       6 -> 14         0.00439
       6 -> 16         0.00088
       6 -> 19         0.00233
       6 -> 20         0.00394
       6 -> 21         0.00058
       6 -> 24         0.00363
       6 -> 28        -0.00185
       6 -> 32         0.00044
       6 -> 39         0.00011
       6 -> 43         0.00013
       6 -> 48        -0.00066
       6 -> 51         0.00021
       6 -> 54        -0.00010
       7 ->  9         0.01909
       7 -> 13         0.01052
       7 -> 17         0.00249
       7 -> 23         0.00523
       7 -> 29        -0.00055
       7 -> 31         0.00090
       7 -> 37         0.00058
       7 -> 44         0.00065
       7 -> 47        -0.00034
       7 -> 52        -0.00011
       8 -> 12         0.70575
       8 -> 15        -0.00778
       8 -> 18         0.03019
       8 -> 22         0.00425
       8 -> 25         0.00374
       8 -> 30         0.00015
       8 -> 33         0.00158
       8 -> 35         0.00198
       8 -> 40        -0.00058
       8 -> 42         0.00020
       8 -> 49        -0.00043
       8 -> 50         0.00028
       8 -> 53        -0.00023
       3 <- 10         0.00062
       3 <- 14         0.00049
       3 <- 19        -0.00025
       3 <- 20         0.00085
       3 <- 21         0.00057
       3 <- 24        -0.00012
       3 <- 26         0.00077
       3 <- 28         0.00063
       3 <- 32        -0.00020
       3 <- 34        -0.00043
       3 <- 36        -0.00015
       3 <- 41        -0.00014
       3 <- 46         0.00023
       3 <- 48         0.00025
       3 <- 51        -0.00018
       3 <- 54        -0.00017
       4 <- 10         0.00425
       4 <- 11         0.00133
       4 <- 14         0.00360
       4 <- 16        -0.00016
       4 <- 19         0.00012
       4 <- 20         0.00230
       4 <- 21         0.00017
       4 <- 24         0.00388
       4 <- 26         0.00106
       4 <- 32         0.00077
       4 <- 34        -0.00045
       4 <- 39        -0.00016
       4 <- 43         0.00011
       4 <- 46        -0.00017
       4 <- 51        -0.00014
       5 <- 12         0.00272
       5 <- 15         0.00257
       5 <- 18         0.00366
       5 <- 22        -0.00079
       5 <- 25         0.00290
       5 <- 30        -0.00014
       5 <- 33        -0.00034
       5 <- 35        -0.00070
       5 <- 50         0.00014
       5 <- 53        -0.00012
       6 <- 10         0.00302
       6 <- 14         0.00170
       6 <- 16         0.00025
       6 <- 19         0.00064
       6 <- 20         0.00184
       6 <- 24         0.00179
       6 <- 26         0.00020
       6 <- 28        -0.00119
       6 <- 32         0.00042
       6 <- 34        -0.00013
       6 <- 41         0.00013
       6 <- 46        -0.00013
       6 <- 48        -0.00055
       6 <- 51         0.00024
       7 <-  9         0.00034
       7 <- 13         0.00235
       7 <- 17         0.00054
       7 <- 23         0.00264
       7 <- 29        -0.00046
       7 <- 31         0.00062
       7 <- 37         0.00045
       7 <- 44         0.00054
       7 <- 47        -0.00029
       7 <- 52        -0.00010
       8 <- 12        -0.00088
       8 <- 15        -0.00562
       8 <- 18        -0.00185
       8 <- 22         0.00069
       8 <- 25        -0.00172
       8 <- 30        -0.00063
       8 <- 33         0.00068
       8 <- 35         0.00086
       8 <- 40        -0.00058
       8 <- 42         0.00019
       8 <- 49        -0.00045
       8 <- 50         0.00020
       8 <- 53        -0.00024

 Excited State   5:      Singlet-A2     8.3207 eV  149.01 nm  f=0.0000  <S**2>=0.000
       3 -> 27        -0.00047
       3 -> 38        -0.00042
       3 -> 45        -0.00023
       4 -> 27         0.00020
       4 -> 38         0.00048
       5 ->  9        -0.00621
       5 -> 13        -0.00438
       5 -> 17         0.00658
       5 -> 23        -0.00198
       5 -> 29        -0.00015
       5 -> 31        -0.00146
       5 -> 37        -0.00096
       5 -> 44        -0.00020
       6 -> 27         0.00023
       6 -> 38         0.00029
       6 -> 45        -0.00023
       7 -> 12        -0.00028
       7 -> 15        -0.00187
       7 -> 18         0.00201
       7 -> 22        -0.00069
       7 -> 35         0.00013
       7 -> 40         0.00011
       8 ->  9         0.04688
       8 -> 13         0.70500
       8 -> 17         0.01953
       8 -> 23         0.01690
       8 -> 29         0.00020
       8 -> 31        -0.00157
       8 -> 37        -0.00033
       8 -> 47         0.00017
       3 <- 27        -0.00014
       3 <- 38        -0.00027
       3 <- 45        -0.00031
       4 <- 27        -0.00011
       5 <-  9        -0.00032
       5 <- 13        -0.00033
       5 <- 17         0.00053
       5 <- 37        -0.00020
       6 <- 38         0.00019
       7 <- 12        -0.00061
       7 <- 15        -0.00099
       7 <- 18         0.00074
       7 <- 22        -0.00096
       7 <- 25        -0.00042
       7 <- 30         0.00022
       7 <- 33         0.00037
       7 <- 35         0.00060
       7 <- 40         0.00036
       8 <-  9         0.00179
       8 <- 13         0.00132
       8 <- 17         0.00024
       8 <- 23        -0.00016
       8 <- 37         0.00013

 Excited State   6:      Singlet-B1     9.2426 eV  134.14 nm  f=0.0008  <S**2>=0.000
       3 ->  9        -0.03240
       3 -> 13         0.00642
       3 -> 17        -0.00747
       3 -> 23         0.00472
       3 -> 29        -0.00304
       3 -> 44         0.00074
       3 -> 52         0.00112
       4 ->  9         0.01697
       4 -> 13        -0.00283
       4 -> 17         0.00109
       4 -> 23        -0.00247
       4 -> 29        -0.00014
       4 -> 31         0.00287
       4 -> 37        -0.00030
       4 -> 44        -0.00016
       4 -> 47        -0.00168
       4 -> 52        -0.00102
       5 -> 27        -0.00195
       5 -> 38         0.00231

 The electronic state is 1-A1.
 Alpha  occ. eigenvalues --  -19.15027 -10.27697  -1.08330  -0.64356  -0.50887
 Alpha  occ. eigenvalues --   -0.46668  -0.41814  -0.28102
 Alpha virt. eigenvalues --   -0.06117   0.00816   0.03954   0.04270   0.06501
 Alpha virt. eigenvalues --    0.12985   0.17952   0.18544   0.21987   0.23159
 Alpha virt. eigenvalues --    0.27005   0.33139   0.45933   0.46764   0.50947

 Mulliken charges:
               1
     1  C    0.022095
     2  H    0.108286
     3  H    0.108286
     4  O   -0.238668
 Sum of Mulliken charges =  -0.00000

 Dipole moment (field-independent basis, Debye):
    X=             -0.0000    Y=              0.0000    Z=             -2.4217  Tot=              2.4217
 Quadrupole moment (field-independent basis, Debye-Ang):
   XX=            -11.7128   YY=            -11.7469   ZZ=            -12.4729
   XY=              0.0000   XZ=              0.0000   YZ=             -0.0000

 Normal termination of Gaussian 16 at Fri Sep 17 10:52:42 2021.
