 Gaussian 16, Revision C.01,
 Gaussian 16:  ES64L-G16RevC.01  3-Jul-2019

 ----------------------------------------
 #P wB97XD/6-311+G* NoSymm #P Field=Z-194
 ----------------------------------------

 -------
 TitleMe
 -------
 Symbolic Z-matrix:
 Charge =  1 Multiplicity = 1

                          Input orientation:
 ---------------------------------------------------------------------
 Center     Atomic      Atomic             Coordinates (Angstroms)
 Number     Number       Type             X           Y           Z
 ---------------------------------------------------------------------
      1          6           0        0.029500    1.339700    0.068200
      2          6           0        1.434800    1.286700    0.006400
      3          6           0        2.111800    0.051100   -0.005400
      4          6           0        1.445100   -1.137200    0.031200
      5          6           0       -0.687900    0.168200    0.110000
      6          1           0       -0.471300    2.298400    0.078100
      7          1           0        2.027300    2.196500   -0.032200
      8          1           0        1.989700   -2.076400    0.023200
      9          1           0       -1.771600    0.180400    0.158200
     10          7           0        3.586400    0.051000   -0.067500
     11          8           0        4.147100   -1.059700   -0.088100
     12          8           0        4.145000    1.163900   -0.090100
     13          6           0       -0.023600   -1.145800    0.083500
     14          1           0       -0.436700   -1.872500    0.788900
     15         35           0       -0.535900   -1.869700   -1.740800
 ---------------------------------------------------------------------

 SCF Done:  E(RwB97XD) =  -3010.54800618     A.U. after   18 cycles

 Alpha  occ. eigenvalues -- -483.34330 -62.89397 -56.69030 -56.68541 -56.68540
 Alpha  occ. eigenvalues --  -19.46545 -19.46454 -14.86035 -10.59788 -10.58477
 Alpha  occ. eigenvalues --  -10.58006 -10.57826 -10.57513 -10.53649  -9.05232
 Alpha  occ. eigenvalues --   -6.87747  -6.86127  -6.86118  -2.97690  -2.97255
 Alpha  occ. eigenvalues --   -2.97246  -2.95949  -2.95949  -1.50281  -1.33253
 Alpha  occ. eigenvalues --   -1.23625  -1.15518  -1.12636  -1.06741  -1.01765
 Alpha  occ. eigenvalues --   -0.96417  -0.91741  -0.85927  -0.81515  -0.81323
 Alpha  occ. eigenvalues --   -0.80660  -0.78971  -0.76784  -0.76672  -0.73843
 Alpha  occ. eigenvalues --   -0.70161  -0.68366  -0.65098  -0.62240  -0.60042
 Alpha  occ. eigenvalues --   -0.57775  -0.57452  -0.56706  -0.56231
 Alpha virt. eigenvalues --   -0.30937  -0.22014  -0.18392  -0.15828  -0.14486
 Alpha virt. eigenvalues --   -0.11858  -0.10616  -0.08535  -0.07111  -0.06699
 Alpha virt. eigenvalues --   -0.04864  -0.04126  -0.03295  -0.02350  -0.01946

 Mulliken charges:
               1
     1  C   -0.617344
     2  C    0.575645
     3  C   -0.731826
     4  C    0.306999
     5  C    0.061373
     6  H    0.342901
     7  H    0.369989
     8  H    0.381086
     9  H    0.360341
    10  N   -0.107968
    11  O    0.034598
    12  O    0.030318
    13  C   -0.470511
    14  H    0.470624
    15  Br  -0.006223
 Sum of Mulliken charges =   1.00000

 Dipole moment (field-independent basis, Debye):
    X=             -0.3574    Y=              0.1280    Z=              3.3437  Tot=              3.3652
 Quadrupole moment (field-independent basis, Debye-Ang):
   XX=            -70.6145   YY=            -53.0219   ZZ=            -66.5806
   XY=              0.7849   XZ=              2.6518   YZ=             -1.2171

 Normal termination of Gaussian 16 at Wed May  1 15:17:32 2024.
