 Gaussian 16, Revision A.03,
 Gaussian 16:  ES64L-G16RevA.03 25-Dec-2016

 --------------------------------------------------------------------
 #p B3LYP/6-311+G** #p TD=(singlets,nstates=30)IOp(6/8=3) IOp(9/40=4)
 --------------------------------------------------------------------

 -------------------------------
 Scan Step 206, Bond Length 1.53
 -------------------------------
 Symbolic Z-matrix:
 Charge =  0 Multiplicity = 1

                         Standard orientation:
 ---------------------------------------------------------------------
 Center     Atomic      Atomic             Coordinates (Angstroms)
 Number     Number       Type             X           Y           Z
 ---------------------------------------------------------------------
      1          6           0        0.000000   -0.000000   -0.691081
      2          1           0        0.000000    0.937260   -1.282431
      3          1           0       -0.000000   -0.937260   -1.282431
      4          8           0        0.000000    0.000000    0.838919
 ---------------------------------------------------------------------

 SCF Done:  E(RB3LYP) =  -114.454122885     A.U. after   10 cycles

 Excitation energies and oscillator strengths:

 Excited State   1:      Singlet-A2     2.2603 eV  548.54 nm  f=0.0000  <S**2>=0.000
       3 -> 27         0.00138
       3 -> 38         0.00106
       3 -> 46         0.00322
       4 -> 27         0.00085
       4 -> 38        -0.00018
       4 -> 46        -0.00136
       5 ->  9         0.00986
       5 -> 13         0.00070
       5 -> 18         0.00334
       5 -> 23         0.00158
       5 -> 28         0.00296
       5 -> 31        -0.00031
       5 -> 37         0.00167
       5 -> 44         0.00038
       5 -> 52         0.00041
       6 -> 27        -0.00061
       6 -> 38        -0.00082
       6 -> 46         0.00146
       7 -> 12        -0.00082
       7 -> 16         0.00450
       7 -> 19        -0.00385
       7 -> 22        -0.00060
       7 -> 25         0.00106
       7 -> 30        -0.00142
       7 -> 33         0.00039
       7 -> 49         0.00013
       7 -> 50         0.00019
       7 -> 53         0.00046
       8 ->  9         0.70799
       8 -> 13        -0.01613
       8 -> 18         0.02183
       8 -> 23        -0.00447
       8 -> 28         0.01107
       8 -> 31         0.00068
       8 -> 37         0.00065
       8 -> 48        -0.00031
       8 -> 52         0.00193
       3 <- 27         0.00070
       3 <- 38         0.00077
       3 <- 46         0.00327
       4 <- 27         0.00143
       4 <- 38         0.00023
       4 <- 46        -0.00110
       5 <-  9        -0.00039
       5 <- 13        -0.00058
       5 <- 18        -0.00078
       5 <- 23         0.00032
       5 <- 28        -0.00054
       5 <- 31         0.00041
       5 <- 37         0.00091
       5 <- 44         0.00013
       5 <- 52         0.00011
       6 <- 38        -0.00068
       6 <- 46         0.00113
       7 <- 12         0.00031
       7 <- 16        -0.00973
       7 <- 19         0.00314
       7 <- 22         0.00715
       7 <- 25         0.00047
       7 <- 30         0.00507
       7 <- 33        -0.00064
       7 <- 36         0.00110
       7 <- 40         0.00060
       7 <- 42         0.00012
       7 <- 49        -0.00033
       7 <- 50         0.00012
       7 <- 53         0.00145
       8 <-  9        -0.04551
       8 <- 13         0.00081
       8 <- 18        -0.00620
       8 <- 23         0.00032
       8 <- 28        -0.00218
       8 <- 31        -0.00058
       8 <- 37        -0.00058
       8 <- 52         0.00052
 This state for optimization and/or second-order correction.
 Total Energy, E(TD-HF/TD-DFT) =  -114.371059645
 Copying the excited state density for this state as the 1-particle RhoCI density.

 Excited State   2:      Singlet-A1     5.7347 eV  216.20 nm  f=0.0947  <S**2>=0.000
       3 -> 10         0.01109
       3 -> 11        -0.01660
       3 -> 14        -0.01288
       3 -> 15         0.01363
       3 -> 17        -0.00372
       3 -> 20        -0.00342
       3 -> 21        -0.00220
       3 -> 24         0.00344
       3 -> 26         0.00516
       3 -> 29        -0.00078
       3 -> 32         0.00279
       3 -> 34         0.00322
       3 -> 35        -0.00029
       3 -> 39         0.00099
       3 -> 43         0.00043
       3 -> 45         0.00061
       3 -> 47         0.00211
       3 -> 51         0.00080
       3 -> 54         0.00025
       4 -> 10         0.01719
       4 -> 11         0.01077
       4 -> 14        -0.00964
       4 -> 15        -0.00863
       4 -> 17         0.00328
       4 -> 20         0.00672
       4 -> 21         0.00037
       4 -> 24        -0.00574
       4 -> 26         0.00555
       4 -> 29         0.00116
       4 -> 32        -0.00126
       4 -> 34        -0.00223
       4 -> 39        -0.00016
       4 -> 41         0.00014
       4 -> 43        -0.00034
       4 -> 45         0.00050
       4 -> 47        -0.00152
       4 -> 51        -0.00028
       5 -> 12         0.02090
       5 -> 16         0.01588
       5 -> 19         0.00159
       5 -> 22         0.00666
       5 -> 25         0.00977
       5 -> 30        -0.00086
       5 -> 33        -0.00326
       5 -> 36         0.00261
       5 -> 40         0.00157
       5 -> 42         0.00062
       5 -> 49         0.00055
       5 -> 50        -0.00061
       5 -> 53        -0.00019
       6 -> 10        -0.08639
       6 -> 11         0.10777
       6 -> 14         0.08304
       6 -> 15        -0.10334
       6 -> 17        -0.02046
       6 -> 20        -0.01710
       6 -> 21         0.01797
       6 -> 24        -0.01710
       6 -> 26        -0.00857
       6 -> 29        -0.00900
       6 -> 32         0.00027
       6 -> 34         0.00177
       6 -> 35        -0.00122
       6 -> 39         0.00063
       6 -> 41        -0.00056
       6 -> 43         0.00072
       6 -> 45        -0.00052
       6 -> 47         0.00156
       6 -> 51         0.00084
       6 -> 54        -0.00053
       7 ->  9         0.68576
       7 -> 13         0.00591
       7 -> 18        -0.02156
       7 -> 23         0.00175
       7 -> 28        -0.00260
       7 -> 31        -0.00274
       7 -> 37         0.00064
       7 -> 44        -0.00105
       7 -> 48         0.00051
       7 -> 52         0.00103
       8 -> 12        -0.00564
       8 -> 16         0.08646
       8 -> 19        -0.02583
       8 -> 22        -0.03295
       8 -> 25         0.00122
       8 -> 30        -0.01341
       8 -> 33         0.00311
       8 -> 36        -0.00390
       8 -> 40        -0.00179
       8 -> 42        -0.00034
       8 -> 49         0.00067
       8 -> 50         0.00027
       8 -> 53        -0.00080
       3 <- 10         0.00693
       3 <- 11        -0.01100
       3 <- 14        -0.00923
       3 <- 15         0.00921
       3 <- 17        -0.00186
       3 <- 20        -0.00228
       3 <- 21        -0.00228
       3 <- 24         0.00226
       3 <- 26         0.00321
       3 <- 29        -0.00043
       3 <- 32         0.00256
       3 <- 34         0.00214
       3 <- 35        -0.00031
       3 <- 39         0.00083
       3 <- 41         0.00011
       3 <- 43         0.00050
       3 <- 45         0.00044
       3 <- 47         0.00229
       3 <- 51         0.00077
       3 <- 54         0.00034
       4 <- 10         0.00829
       4 <- 11         0.00637
       4 <- 14        -0.00465
       4 <- 15        -0.00507
       4 <- 17         0.00154
       4 <- 20         0.00506
       4 <- 21         0.00031
       4 <- 24        -0.00374
       4 <- 26         0.00420
       4 <- 29         0.00029
       4 <- 32        -0.00160
       4 <- 34        -0.00196
       4 <- 35         0.00031
       4 <- 39        -0.00022
       4 <- 43        -0.00034
       4 <- 45         0.00074
       4 <- 47        -0.00114
       4 <- 51        -0.00011
       5 <- 12         0.00828
       5 <- 16         0.00739
       5 <- 19         0.00105
       5 <- 22         0.00388
       5 <- 25         0.00628
       5 <- 30        -0.00044
       5 <- 33        -0.00245
       5 <- 36         0.00209
       5 <- 40         0.00135
       5 <- 42         0.00050
       5 <- 49         0.00048
       5 <- 50        -0.00055
       5 <- 53        -0.00017
       6 <- 10        -0.02306
       6 <- 11         0.03080
       6 <- 14         0.03012
       6 <- 15        -0.04090
       6 <- 17        -0.00906
       6 <- 20        -0.00946
       6 <- 21         0.00980
       6 <- 24        -0.01000
       6 <- 26        -0.00504
       6 <- 29        -0.00597
       6 <- 32         0.00075
       6 <- 34         0.00205
       6 <- 35        -0.00104
       6 <- 39         0.00076
       6 <- 41        -0.00038
       6 <- 43         0.00062
       6 <- 45        -0.00061
       6 <- 47         0.00107
       6 <- 51         0.00065
       6 <- 54        -0.00043
       7 <-  9        -0.11841
       7 <- 13         0.00902
       7 <- 18        -0.01443
       7 <- 23         0.00468
       7 <- 28        -0.00465
       7 <- 31        -0.00113
       7 <- 37         0.00014
       7 <- 44        -0.00056
       7 <- 52         0.00089
       8 <- 12        -0.00099
       8 <- 16         0.02613
       8 <- 19        -0.00970
       8 <- 22        -0.01644
       8 <- 25         0.00038
       8 <- 30        -0.00926
       8 <- 33         0.00225
       8 <- 36        -0.00290
       8 <- 40        -0.00143
       8 <- 42        -0.00027
       8 <- 49         0.00046
       8 <- 50         0.00022
       8 <- 53        -0.00072

 Excited State   3:      Singlet-B1     5.9395 eV  208.74 nm  f=0.0015  <S**2>=0.000
       3 ->  9        -0.03065
       3 -> 13         0.00220
       3 -> 18        -0.00518
       3 -> 23         0.00214
       3 -> 28        -0.00119
       3 -> 31        -0.00049
       3 -> 44         0.00029
       3 -> 48         0.00085
       3 -> 52         0.00102
       4 ->  9         0.01451
       4 -> 13        -0.00270
       4 -> 18         0.00040
       4 -> 23        -0.00246
       4 -> 28         0.00021
       4 -> 31        -0.00168
       4 -> 37        -0.00044
       4 -> 44         0.00011
       4 -> 48        -0.00124
       4 -> 52        -0.00068
       5 -> 27        -0.00047
       5 -> 38         0.00200
       5 -> 46         0.00121
       6 ->  9         0.70594
       6 -> 13        -0.02202
       6 -> 18         0.01795
       6 -> 23        -0.01132
       6 -> 28         0.00484
       6 -> 31         0.00358
       6 -> 37        -0.00234
       6 -> 44        -0.00311
       6 -> 48         0.00446
       6 -> 52         0.00158
       7 -> 10        -0.01532
       7 -> 11         0.01728
       7 -> 14         0.01110
       7 -> 15        -0.00820
       7 -> 17        -0.00965
       7 -> 20         0.00254
       7 -> 21        -0.00042
       7 -> 24        -0.00013
       7 -> 26        -0.00109
       7 -> 29        -0.00414
       7 -> 32        -0.00086
       7 -> 34         0.00027
       7 -> 35         0.00185
       7 -> 39         0.00012
       7 -> 41        -0.00081
       7 -> 43         0.00063
       7 -> 45         0.00160
       7 -> 47         0.00429
       7 -> 51         0.00116
       7 -> 54         0.00050
       8 -> 27         0.00084
       8 -> 38         0.00023
       8 -> 46         0.00575
       3 <-  9        -0.01014
       3 <- 13        -0.00041
       3 <- 18        -0.00306
       3 <- 23        -0.00042
       3 <- 28        -0.00079
       3 <- 31        -0.00061
       3 <- 44        -0.00027
       3 <- 48         0.00105
       3 <- 52         0.00081
       4 <-  9         0.00663
       4 <- 13        -0.00014
       4 <- 18         0.00213
       4 <- 23        -0.00047
       4 <- 28         0.00183
       4 <- 31        -0.00119
       4 <- 37        -0.00017
       4 <- 44         0.00014
       4 <- 48        -0.00108
       4 <- 52        -0.00039
       5 <- 27        -0.00094
       5 <- 38         0.00159
       5 <- 46         0.00108
       6 <-  9        -0.02370
       6 <- 13         0.00177
       6 <- 18        -0.00310
       6 <- 23        -0.00025
       6 <- 28        -0.00318
       6 <- 31         0.00159
       6 <- 37        -0.00208
       6 <- 44        -0.00178
       6 <- 48         0.00398
       6 <- 52         0.00057
       7 <- 10         0.00809
       7 <- 11        -0.01059
       7 <- 14        -0.01050
       7 <- 15         0.01617
       7 <- 17         0.00086
       7 <- 20         0.00556
       7 <- 21        -0.00491
       7 <- 24         0.00472
       7 <- 26         0.00198
       7 <- 29         0.00084
       7 <- 32        -0.00052
       7 <- 34        -0.00015
       7 <- 35         0.00289
       7 <- 39         0.00040
       7 <- 41        -0.00042
       7 <- 43         0.00052
       7 <- 45         0.00161
       7 <- 47         0.00385
       7 <- 51         0.00096
       7 <- 54         0.00109
       8 <- 27         0.00123
       8 <- 38         0.00040
       8 <- 46         0.00530

 Excited State   4:      Singlet-B2     6.6461 eV  186.55 nm  f=0.0186  <S**2>=0.000
       3 -> 12         0.00175
       3 -> 16        -0.00128
       3 -> 19         0.00365
       3 -> 22        -0.00029
       3 -> 25         0.00019
       3 -> 30         0.00258
       3 -> 33         0.00038
       3 -> 36        -0.00182
       3 -> 40        -0.00139
       3 -> 42        -0.00014
       3 -> 49         0.00181
       3 -> 50        -0.00020
       3 -> 53        -0.00024
       4 -> 12        -0.00066
       4 -> 16         0.00289
       4 -> 19         0.00064
       4 -> 22        -0.00350
       4 -> 25         0.00273
       4 -> 30        -0.00106
       4 -> 33         0.00039
       4 -> 36        -0.00038
       4 -> 40         0.00049
       4 -> 49        -0.00024
       5 -> 10        -0.00106
       5 -> 11        -0.00408
       5 -> 14        -0.01455
       5 -> 15         0.00131
       5 -> 17        -0.00156
       5 -> 20        -0.00134
       5 -> 21        -0.00670
       5 -> 24        -0.00183
       5 -> 26         0.00214
       5 -> 29         0.00180
       5 -> 32         0.00050
       5 -> 34         0.00131
       5 -> 35         0.00064
       5 -> 39         0.00073
       5 -> 41        -0.00082
       5 -> 45         0.00028
       5 -> 47         0.00070
       5 -> 51        -0.00043
       5 -> 54         0.00021
       6 -> 12        -0.00347
       6 -> 16         0.00115
       6 -> 19        -0.00194
       6 -> 22        -0.00050
       6 -> 25         0.00073
       6 -> 30         0.00042
       6 -> 33        -0.00048
       6 -> 36         0.00206
       6 -> 40         0.00147
       6 -> 42         0.00017
       6 -> 49        -0.00111
       6 -> 53         0.00024
       7 -> 27         0.00046
       7 -> 38        -0.00101
       7 -> 46        -0.00277
       8 -> 10         0.65487
       8 -> 11        -0.23873
       8 -> 14        -0.09234
       8 -> 15         0.07327
       8 -> 17         0.00717
       8 -> 20         0.00654
       8 -> 21        -0.00348
       8 -> 24         0.00443
       8 -> 26         0.00528
       8 -> 29         0.00720
       8 -> 32         0.00176
       8 -> 34         0.00108
       8 -> 35         0.00065
       8 -> 39         0.00041
       8 -> 41        -0.00048
       8 -> 43         0.00064
       8 -> 45         0.00209
       8 -> 47         0.00277
       8 -> 51        -0.00174
       8 -> 54         0.00104
       3 <- 12         0.00055
       3 <- 16        -0.00021
       3 <- 19         0.00170
       3 <- 22        -0.00080
       3 <- 30         0.00101
       3 <- 33         0.00035
       3 <- 36        -0.00148
       3 <- 40        -0.00126
       3 <- 42        -0.00012
       3 <- 49         0.00188
       3 <- 50        -0.00016
       3 <- 53        -0.00064
       4 <- 12         0.00050
       4 <- 16         0.00246
       4 <- 19         0.00074
       4 <- 22        -0.00275
       4 <- 25         0.00168
       4 <- 30        -0.00086
       4 <- 33         0.00048
       4 <- 36        -0.00056
       4 <- 40         0.00014
       4 <- 42        -0.00017
       4 <- 49        -0.00019
       5 <- 10         0.00150
       5 <- 11         0.00125
       5 <- 14        -0.00356
       5 <- 15        -0.00305
       5 <- 17        -0.00026
       5 <- 20        -0.00022
       5 <- 21        -0.00192
       5 <- 24        -0.00282
       5 <- 26         0.00088
       5 <- 29         0.00045
       5 <- 32        -0.00050
       5 <- 34         0.00050
       5 <- 39         0.00021
       5 <- 41        -0.00077
       5 <- 43        -0.00016
       5 <- 45         0.00052
       5 <- 47         0.00045
       5 <- 51        -0.00022
       6 <- 12        -0.00024
       6 <- 16        -0.00366
       6 <- 19         0.00172
       6 <- 22         0.00252
       6 <- 25         0.00029
       6 <- 30         0.00322
       6 <- 33        -0.00067
       6 <- 36         0.00203
       6 <- 40         0.00142
       6 <- 42         0.00021
       6 <- 49        -0.00115
       6 <- 53         0.00071
       7 <- 27         0.00049
       7 <- 38        -0.00077
       7 <- 46        -0.00225
       8 <- 10        -0.00610
       8 <- 11         0.00843
       8 <- 14         0.00878
       8 <- 15        -0.00602
       8 <- 17        -0.00022
       8 <- 20         0.00144
       8 <- 21         0.00224
       8 <- 24        -0.00054
       8 <- 26        -0.00189
       8 <- 29         0.00068
       8 <- 32        -0.00132
       8 <- 34        -0.00112
       8 <- 35        -0.00021
       8 <- 39        -0.00106
       8 <- 41        -0.00055
       8 <- 45         0.00237
       8 <- 47         0.00178
       8 <- 51        -0.00099
       8 <- 54         0.00024

 Excited State   5:      Singlet-B2     7.1564 eV  173.25 nm  f=0.0071  <S**2>=0.000
       3 -> 12         0.00111
       3 -> 16         0.00189
       3 -> 19        -0.00165
       3 -> 22        -0.00042
       3 -> 25         0.00094
       3 -> 30        -0.00310
       3 -> 36         0.00092
       3 -> 40         0.00079
       3 -> 49        -0.00110
       4 -> 12        -0.00154
       4 -> 19         0.00074
       4 -> 30         0.00164
       4 -> 33        -0.00032
       4 -> 36         0.00053
       4 -> 50        -0.00013
       5 -> 10        -0.00791
       5 -> 11         0.00061
       5 -> 14         0.00325
       5 -> 15         0.00587
       5 -> 17         0.00190
       5 -> 20         0.00261
       5 -> 21         0.00171
       5 -> 26        -0.00092
       5 -> 29        -0.00089
       5 -> 32        -0.00160
       5 -> 35        -0.00057
       5 -> 39        -0.00079
       5 -> 43        -0.00037
       5 -> 45        -0.00050
       5 -> 47        -0.00056
       5 -> 51         0.00041
       6 -> 12        -0.00025
       6 -> 16        -0.00016
       6 -> 19         0.00093
       6 -> 22        -0.00111
       6 -> 30        -0.00108
       6 -> 33         0.00013
       6 -> 36        -0.00071
       6 -> 40        -0.00106
       6 -> 42        -0.00024
       6 -> 49         0.00160
       6 -> 50        -0.00013
       6 -> 53        -0.00016
       7 -> 27        -0.00073
       7 -> 46         0.00251
       8 -> 10         0.25016
       8 -> 11         0.65794
       8 -> 14         0.02787
       8 -> 15        -0.05839
       8 -> 17        -0.00673
       8 -> 20         0.01522
       8 -> 21         0.00424
       8 -> 24        -0.00433
       8 -> 26         0.00034
       8 -> 29        -0.00446
       8 -> 32        -0.00063
       8 -> 34        -0.00091
       8 -> 35        -0.00093
       8 -> 39         0.00011
       8 -> 41         0.00019
       8 -> 45        -0.00228
       8 -> 47        -0.00237
       8 -> 51         0.00143

 The electronic state is 1-A1.
 Alpha  occ. eigenvalues --  -19.16937 -10.32047  -0.94609  -0.68925  -0.48818
 Alpha  occ. eigenvalues --   -0.42439  -0.34073  -0.29005
 Alpha virt. eigenvalues --   -0.13432  -0.00531   0.02071   0.04110   0.06149
 Alpha virt. eigenvalues --    0.10407   0.14392   0.14912   0.18956   0.21531
 Alpha virt. eigenvalues --    0.23917   0.30084   0.39555   0.41817   0.50974

 Mulliken charges:
               1
     1  C   -0.047622
     2  H    0.171957
     3  H    0.171957
     4  O   -0.296292
 Sum of Mulliken charges =  -0.00000

 Dipole moment (field-independent basis, Debye):
    X=             -0.0000    Y=              0.0000    Z=             -3.5951  Tot=              3.5951
 Quadrupole moment (field-independent basis, Debye-Ang):
   XX=            -12.5974   YY=            -11.8403   ZZ=            -11.5195
   XY=              0.0000   XZ=              0.0000   YZ=             -0.0000

 Normal termination of Gaussian 16 at Fri Sep 17 10:52:56 2021.
