 Gaussian 16, Revision A.03,
 Gaussian 16:  ES64L-G16RevA.03 25-Dec-2016

 --------------------------------------------------------------------
 #p B3LYP/6-311+G** #p TD=(singlets,nstates=30)IOp(6/8=3) IOp(9/40=4)
 --------------------------------------------------------------------

 -------------------------------
 Scan Step 31, Bond Length 0.655
 -------------------------------
 Symbolic Z-matrix:
 Charge =  0 Multiplicity = 1

                         Standard orientation:
 ---------------------------------------------------------------------
 Center     Atomic      Atomic             Coordinates (Angstroms)
 Number     Number       Type             X           Y           Z
 ---------------------------------------------------------------------
      1          6           0        0.000000   -0.000000   -0.253581
      2          1           0        0.000000    0.937260   -0.844931
      3          1           0       -0.000000   -0.937260   -0.844931
      4          8           0        0.000000    0.000000    0.401419
 ---------------------------------------------------------------------

 SCF Done:  E(RB3LYP) =  -112.498720718     A.U. after   10 cycles

 Excitation energies and oscillator strengths:

 Excited State   1:      Singlet-B2     4.7467 eV  261.20 nm  f=0.1280  <S**2>=0.000
       3 -> 11         0.00075
       3 -> 16         0.00068
       3 -> 19         0.00075
       3 -> 22         0.00052
       3 -> 24        -0.00103
       3 -> 29         0.00019
       3 -> 32        -0.00020
       3 -> 40        -0.00025
       3 -> 43         0.00022
       3 -> 53         0.00016
       4 ->  9        -0.00282
       4 -> 12         0.00274
       4 -> 13         0.00340
       4 -> 15         0.00148
       4 -> 18         0.00262
       4 -> 20         0.00207
       4 -> 21         0.00166
       4 -> 25         0.00143
       4 -> 26        -0.00077
       4 -> 30         0.00086
       4 -> 31         0.00148
       4 -> 33         0.00021
       4 -> 38        -0.00064
       4 -> 42        -0.00048
       4 -> 44        -0.00029
       4 -> 47        -0.00076
       4 -> 49        -0.00014
       4 -> 51        -0.00011
       5 -> 28         0.00187
       5 -> 35         0.00084
       5 -> 45         0.00078
       6 -> 11        -0.00526
       6 -> 16         0.00353
       6 -> 19         0.00041
       6 -> 22        -0.00063
       6 -> 24        -0.00461
       6 -> 29         0.00070
       6 -> 32        -0.00070
       6 -> 37         0.00015
       6 -> 43         0.00015
       6 -> 46         0.00035
       7 -> 11         0.00853
       7 -> 16         0.00352
       7 -> 19         0.00310
       7 -> 22         0.00016
       7 -> 24        -0.00057
       7 -> 29        -0.00114
       7 -> 32         0.00091
       7 -> 37        -0.00070
       7 -> 43        -0.00041
       7 -> 46         0.00040
       7 -> 50         0.00043
       7 -> 53        -0.00011
       8 ->  9         0.70514
       8 -> 12        -0.00049
       8 -> 13         0.05079
       8 -> 15        -0.00593
       8 -> 18        -0.02229
       8 -> 20         0.00539
       8 -> 21         0.01046
       8 -> 25        -0.00023
       8 -> 26        -0.00049
       8 -> 30        -0.00320
       8 -> 31        -0.00199
       8 -> 33        -0.00097
       8 -> 38        -0.00111
       8 -> 42        -0.00075
       8 -> 44         0.00036
       8 -> 47         0.00073
       8 -> 49         0.00027
       8 -> 51         0.00011
       3 <- 11         0.00033
       3 <- 16         0.00034
       3 <- 19         0.00049
       3 <- 22         0.00042
       3 <- 24        -0.00078
       3 <- 29         0.00014
       3 <- 32        -0.00022
       3 <- 40        -0.00026
       3 <- 43         0.00021
       3 <- 53         0.00016
       4 <-  9        -0.00122
       4 <- 12        -0.00021
       4 <- 13         0.00280
       4 <- 15         0.00174
       4 <- 18         0.00049
       4 <- 20         0.00122
       4 <- 21         0.00131
       4 <- 25         0.00111
       4 <- 26        -0.00133
       4 <- 30         0.00065
       4 <- 31         0.00062
       4 <- 33         0.00020
       4 <- 38        -0.00041
       4 <- 39         0.00015
       4 <- 42        -0.00039
       4 <- 44        -0.00023
       4 <- 47        -0.00069
       5 <- 28         0.00157
       5 <- 35         0.00068
       5 <- 45         0.00066
       6 <- 11        -0.00106
       6 <- 16         0.00313
       6 <- 19         0.00064
       6 <- 24        -0.00340
       6 <- 29         0.00021
       6 <- 32        -0.00061
       6 <- 37         0.00022
       6 <- 43         0.00011
       6 <- 46         0.00032
       6 <- 50         0.00017
       7 <- 11         0.00188
       7 <- 16         0.00145
       7 <- 19         0.00038
       7 <- 29        -0.00164
       7 <- 32         0.00074
       7 <- 37        -0.00044
       7 <- 43        -0.00028
       7 <- 46         0.00043
       7 <- 50         0.00049
       8 <-  9        -0.00929
       8 <- 12        -0.00572
       8 <- 13         0.02110
       8 <- 15         0.00654
       8 <- 18         0.00128
       8 <- 20         0.00067
       8 <- 21         0.00536
       8 <- 25         0.00304
       8 <- 26        -0.00014
       8 <- 30        -0.00212
       8 <- 31        -0.00138
       8 <- 33        -0.00134
       8 <- 38        -0.00107
       8 <- 42        -0.00064
       8 <- 47         0.00063
       8 <- 49         0.00019
 This state for optimization and/or second-order correction.
 Total Energy, E(TD-HF/TD-DFT) =  -112.324283667
 Copying the excited state density for this state as the 1-particle RhoCI density.

 Excited State   2:      Singlet-A2     5.0854 eV  243.81 nm  f=0.0000  <S**2>=0.000
       3 -> 28        -0.00184
       3 -> 35        -0.00111
       3 -> 45        -0.00039
       4 -> 10        -0.00084
       4 -> 14         0.00048
       4 -> 17        -0.00337
       4 -> 23         0.00143
       4 -> 27        -0.00216
       4 -> 36        -0.00139
       4 -> 41        -0.00014
       4 -> 48        -0.00014
       4 -> 52        -0.00026
       5 -> 11         0.00026
       5 -> 16        -0.00016
       5 -> 19         0.00034
       5 -> 22        -0.00086
       5 -> 24        -0.00024
       5 -> 29         0.00025
       5 -> 32        -0.00011
       5 -> 37        -0.00032
       5 -> 40         0.00011
       5 -> 43        -0.00038
       5 -> 46        -0.00034
       5 -> 50         0.00018
       6 -> 28        -0.00318
       6 -> 35         0.00049
       7 -> 28         0.00160
       7 -> 35        -0.00034
       7 -> 45        -0.00042
       8 -> 10         0.70626
       8 -> 14        -0.02169
       8 -> 17         0.02762
       8 -> 23         0.00328
       8 -> 27         0.00128
       8 -> 34         0.00325
       8 -> 36        -0.00184
       8 -> 41         0.00031
       8 -> 48         0.00014
       8 -> 52         0.00035
       3 <- 28        -0.00152
       3 <- 35        -0.00096
       3 <- 45        -0.00037
       4 <- 10        -0.00018
       4 <- 14         0.00062
       4 <- 17        -0.00078
       4 <- 23         0.00013
       4 <- 27        -0.00040
       4 <- 34         0.00073
       4 <- 36        -0.00078
       4 <- 41        -0.00021
       5 <- 11         0.00058
       5 <- 16        -0.00055
       5 <- 19         0.00140
       5 <- 22        -0.00122
       5 <- 24        -0.00107
       5 <- 29         0.00130
       5 <- 32         0.00020
       5 <- 37        -0.00070
       5 <- 43        -0.00042
       5 <- 46        -0.00035
       5 <- 53        -0.00023
       6 <- 28        -0.00308
       6 <- 35         0.00063
       7 <- 28         0.00166
       7 <- 35        -0.00045
       7 <- 45        -0.00042
       8 <- 10         0.00176
       8 <- 14         0.00472
       8 <- 17        -0.00644
       8 <- 23         0.00019
       8 <- 27        -0.00056
       8 <- 34         0.00311
       8 <- 36        -0.00147
       8 <- 41         0.00020
       8 <- 52         0.00013

 Excited State   3:      Singlet-B2     5.7103 eV  217.12 nm  f=0.0348  <S**2>=0.000
       3 -> 11        -0.00016
       3 -> 16         0.00045
       3 -> 19        -0.00031
       3 -> 22         0.00030
       3 -> 24        -0.00030
       3 -> 29        -0.00035
       3 -> 32         0.00012
       3 -> 37        -0.00020
       3 -> 40         0.00011
       3 -> 43        -0.00021
       3 -> 46         0.00014
       3 -> 53        -0.00018
       4 ->  9         0.00160
       4 -> 12         0.00030
       4 -> 13         0.00117
       4 -> 15         0.00231
       4 -> 18        -0.00122
       4 -> 20        -0.00053
       4 -> 21         0.00117
       4 -> 25         0.00086
       4 -> 26         0.00051
       4 -> 30        -0.00217
       4 -> 31        -0.00042
       4 -> 38         0.00028
       4 -> 39        -0.00096
       4 -> 42         0.00031
       4 -> 47         0.00050
       5 -> 28        -0.00100
       5 -> 35        -0.00121
       5 -> 45        -0.00067
       6 -> 11        -0.00064
       6 -> 16         0.00361
       6 -> 19        -0.00180
       6 -> 24        -0.00180
       6 -> 29         0.00186
       6 -> 32         0.00040
       6 -> 37         0.00061
       6 -> 40         0.00043
       6 -> 43         0.00029
       6 -> 46        -0.00031
       6 -> 50        -0.00025
       6 -> 53         0.00014
       7 -> 11        -0.00194
       7 -> 16        -0.00434
       7 -> 19        -0.00113
       7 -> 22         0.00056
       7 -> 24         0.00318
       7 -> 29        -0.00107
       7 -> 32        -0.00047
       7 -> 37         0.00052
       7 -> 43         0.00014
       7 -> 46        -0.00056
       7 -> 50        -0.00029
       7 -> 53         0.00014
       8 ->  9        -0.00114
       8 -> 12         0.70567
       8 -> 13         0.03321
       8 -> 15         0.02699
       8 -> 18         0.00758
       8 -> 20         0.01578
       8 -> 21         0.00539
       8 -> 25        -0.00090
       8 -> 26         0.00184
       8 -> 30        -0.00265
       8 -> 31         0.00051
       8 -> 33        -0.00022
       8 -> 38        -0.00045
       8 -> 39         0.00143
       8 -> 42        -0.00087
       8 -> 47        -0.00040
       8 -> 54        -0.00015
       3 <- 16         0.00043
       3 <- 22         0.00015
       3 <- 24        -0.00036
       3 <- 29        -0.00020
       3 <- 32         0.00013
       3 <- 37        -0.00021
       3 <- 43        -0.00019
       3 <- 53        -0.00023
       4 <-  9        -0.00117
       4 <- 12        -0.00016
       4 <- 13         0.00123
       4 <- 15         0.00069
       4 <- 18         0.00060
       4 <- 20        -0.00042
       4 <- 21         0.00080
       4 <- 25         0.00097
       4 <- 26         0.00058
       4 <- 30        -0.00144
       4 <- 33        -0.00058
       4 <- 38         0.00019
       4 <- 39        -0.00071
       4 <- 42         0.00032
       4 <- 47         0.00046
       5 <- 28        -0.00060
       5 <- 35        -0.00104
       5 <- 45        -0.00059
       6 <- 11        -0.00047
       6 <- 16         0.00074
       6 <- 19         0.00028
       6 <- 22        -0.00057
       6 <- 24        -0.00153
       6 <- 29         0.00142
       6 <- 32         0.00058
       6 <- 37         0.00057
       6 <- 40         0.00037
       6 <- 43         0.00021
       6 <- 46        -0.00026
       6 <- 50        -0.00019
       7 <- 16        -0.00142
       7 <- 19        -0.00058
       7 <- 22         0.00039
       7 <- 24         0.00184
       7 <- 29        -0.00026
       7 <- 32        -0.00039
       7 <- 37         0.00018
       7 <- 46        -0.00050
       7 <- 50        -0.00037
       8 <-  9        -0.00525
       8 <- 12         0.00099
       8 <- 13         0.01133
       8 <- 15         0.00444
       8 <- 18        -0.00118
       8 <- 20        -0.00307
       8 <- 21         0.00331
       8 <- 25         0.00065
       8 <- 30        -0.00224
       8 <- 31         0.00048
       8 <- 33        -0.00012
       8 <- 38        -0.00028
       8 <- 39         0.00125
       8 <- 42        -0.00076
       8 <- 47        -0.00032

 Excited State   4:      Singlet-A1     5.8891 eV  210.53 nm  f=0.0067  <S**2>=0.000
       3 ->  9         0.00129
       3 -> 12        -0.00047
       3 -> 13         0.00021
       3 -> 15        -0.00073
       3 -> 18        -0.00153
       3 -> 20        -0.00013
       3 -> 21         0.00082
       3 -> 25        -0.00067
       3 -> 26        -0.00031
       3 -> 30         0.00068
       3 -> 31        -0.00078
       3 -> 33         0.00044
       3 -> 38         0.00037
       3 -> 39         0.00033
       3 -> 47        -0.00012
       3 -> 51         0.00019
       3 -> 54        -0.00012
       4 -> 11        -0.00604
       4 -> 16        -0.00614
       4 -> 19        -0.00467
       4 -> 22        -0.00246
       4 -> 24         0.00326
       4 -> 29         0.00013
       4 -> 37        -0.00102
       4 -> 40        -0.00013
       4 -> 43         0.00025
       4 -> 50         0.00017
       5 -> 10        -0.00328
       5 -> 14        -0.00361
       5 -> 17        -0.00257
       5 -> 23        -0.00346
       5 -> 27        -0.00086
       5 -> 34        -0.00087
       5 -> 36        -0.00059
       5 -> 48         0.00020
       6 ->  9         0.01153
       6 -> 12         0.00609
       6 -> 13        -0.00396
       6 -> 15        -0.00433
       6 -> 18        -0.00726
       6 -> 20         0.00443
       6 -> 21         0.00140
       6 -> 25        -0.00562
       6 -> 26         0.00089
       6 -> 30        -0.00036
       6 -> 31         0.00159
       6 -> 33         0.00200
       6 -> 38         0.00126
       6 -> 39        -0.00112
       6 -> 42         0.00015
       6 -> 44         0.00063
       6 -> 49        -0.00044
       7 ->  9         0.00692
       7 -> 12        -0.01231
       7 -> 13         0.00118
       7 -> 15         0.00537
       7 -> 18        -0.00701
       7 -> 20        -0.00386
       7 -> 21        -0.00082
       7 -> 25         0.00176
       7 -> 26        -0.00312
       7 -> 30        -0.00069
       7 -> 31        -0.00182
       7 -> 33         0.00011
       7 -> 38        -0.00075
       7 -> 39         0.00057
       7 -> 42        -0.00014
       7 -> 44        -0.00036
       7 -> 51        -0.00016
       8 -> 11         0.70469
       8 -> 16         0.05316
       8 -> 19        -0.01973
       8 -> 22        -0.00071
       8 -> 24        -0.00717
       8 -> 29        -0.00378
       8 -> 32         0.00199
       8 -> 37        -0.00331
       8 -> 40        -0.00041
       8 -> 43         0.00185
       8 -> 46        -0.00094
       8 -> 50         0.00020
       3 <-  9         0.00072
       3 <- 12        -0.00023
       3 <- 13         0.00016
       3 <- 15        -0.00047
       3 <- 18        -0.00098
       3 <- 20        -0.00010
       3 <- 21         0.00055
       3 <- 25        -0.00052
       3 <- 26        -0.00024
       3 <- 30         0.00052
       3 <- 31        -0.00053
       3 <- 33         0.00038
       3 <- 38         0.00028
       3 <- 39         0.00027
       3 <- 47        -0.00015
       3 <- 51         0.00016
       3 <- 54        -0.00010
       4 <- 11        -0.00250
       4 <- 16        -0.00253
       4 <- 19        -0.00268
       4 <- 22        -0.00176
       4 <- 24         0.00178
       4 <- 32         0.00013
       4 <- 37        -0.00085
       4 <- 40        -0.00012
       4 <- 43         0.00023
       4 <- 50         0.00016
       5 <- 10        -0.00183
       5 <- 14        -0.00210
       5 <- 17        -0.00157
       5 <- 23        -0.00241
       5 <- 27        -0.00063
       5 <- 34        -0.00071
       5 <- 36        -0.00050
       5 <- 48         0.00018
       6 <-  9         0.00813
       6 <- 12         0.00311
       6 <- 13        -0.00313
       6 <- 15        -0.00349
       6 <- 18        -0.00392
       6 <- 20         0.00248
       6 <- 21         0.00176
       6 <- 25        -0.00378
       6 <- 26         0.00056
       6 <- 31         0.00117
       6 <- 33         0.00144
       6 <- 38         0.00125
       6 <- 39        -0.00087
       6 <- 42         0.00014
       6 <- 44         0.00061
       6 <- 49        -0.00037
       7 <- 12        -0.00505
       7 <- 13         0.00167
       7 <- 15         0.00374
       7 <- 18        -0.00329
       7 <- 20        -0.00185
       7 <- 21        -0.00097
       7 <- 25         0.00124
       7 <- 26        -0.00205
       7 <- 30        -0.00072
       7 <- 31        -0.00139
       7 <- 38        -0.00069
       7 <- 39         0.00033
       7 <- 44        -0.00036
       7 <- 47         0.00011
       7 <- 51        -0.00015
       8 <- 11        -0.01035
       8 <- 16         0.00509
       8 <- 19        -0.01563
       8 <- 22        -0.00411
       8 <- 24        -0.00307
       8 <- 29        -0.00272
       8 <- 32         0.00180
       8 <- 37        -0.00263
       8 <- 40        -0.00015
       8 <- 43         0.00149
       8 <- 46        -0.00090
       8 <- 50         0.00020

 Excited State   5:      Singlet-A2     8.2000 eV  151.20 nm  f=0.0000  <S**2>=0.000
       3 -> 28         0.00258
       3 -> 35         0.00166
       3 -> 45         0.00055
       4 -> 10         0.00024
       4 -> 14        -0.00698
       4 -> 17         0.00167
       4 -> 23        -0.00334
       4 -> 27         0.00066
       4 -> 34         0.00089
       4 -> 36         0.00252
       4 -> 52         0.00031
       5 -> 16        -0.00044
       5 -> 19        -0.00048
       5 -> 22         0.00136
       5 -> 24         0.00071
       5 -> 37         0.00044
       5 -> 40        -0.00015
       5 -> 43         0.00061
       5 -> 46         0.00045
       5 -> 50        -0.00013
       5 -> 53         0.00013
       6 -> 28         0.00277
       6 -> 35        -0.00065
       6 -> 45         0.00013
       7 -> 28        -0.00145
       7 -> 35         0.00043
       7 -> 45         0.00050
       8 -> 10         0.02398
       8 -> 14         0.70354
       8 -> 17        -0.06359
       8 -> 23         0.01969
       8 -> 27        -0.00252
       8 -> 34        -0.00283
       8 -> 36         0.00284
       8 -> 41        -0.00013
       8 -> 52        -0.00039
       3 <- 28         0.00178
       3 <- 35         0.00135
       3 <- 45         0.00060
       4 <- 10         0.00032
       4 <- 14        -0.00068
       4 <- 17         0.00054
       4 <- 23        -0.00021
       4 <- 27         0.00027
       4 <- 34        -0.00063
       4 <- 36         0.00097
       4 <- 41         0.00028
       4 <- 52         0.00011
       5 <- 11         0.00037
       5 <- 16        -0.00019
       5 <- 19        -0.00048
       5 <- 22         0.00169
       5 <- 24         0.00154
       5 <- 29        -0.00041
       5 <- 32        -0.00056
       5 <- 37         0.00113
       5 <- 43         0.00070
       5 <- 46         0.00017
       5 <- 53         0.00028
       6 <- 28         0.00292
       6 <- 35        -0.00056
       6 <- 45        -0.00010
       7 <- 28        -0.00143
       7 <- 35         0.00011
       7 <- 45         0.00031
       8 <- 10         0.00508
       8 <- 14        -0.00302
       8 <- 17         0.00434
       8 <- 23        -0.00078
       8 <- 27         0.00047
       8 <- 34        -0.00310
       8 <- 36         0.00159
       8 <- 41        -0.00022
       8 <- 52        -0.00016

 Excited State   6:      Singlet-B2     8.9403 eV  138.68 nm  f=0.0945  <S**2>=0.000
       3 -> 11         0.00044
       3 -> 16        -0.00081
       3 -> 19         0.00096
       3 -> 22        -0.00051
       3 -> 24         0.00024
       3 -> 29         0.00070
       3 -> 32         0.00054

 The electronic state is 1-A1.
 Alpha  occ. eigenvalues --  -19.21076 -10.34273  -1.30824  -0.81000  -0.78032
 Alpha  occ. eigenvalues --   -0.58172  -0.54100  -0.20252
 Alpha virt. eigenvalues --    0.00680   0.02750   0.04429   0.04682   0.14353
 Alpha virt. eigenvalues --    0.15119   0.17840   0.18320   0.21726   0.23079
 Alpha virt. eigenvalues --    0.27390   0.36580   0.50707   0.57460   0.58928

 Mulliken charges:
               1
     1  C    0.292321
     2  H   -0.105823
     3  H   -0.105823
     4  O   -0.080676
 Sum of Mulliken charges =  -0.00000

 Dipole moment (field-independent basis, Debye):
    X=              0.0000    Y=              0.0000    Z=              1.2551  Tot=              1.2551
 Quadrupole moment (field-independent basis, Debye-Ang):
   XX=            -10.1820   YY=            -13.7721   ZZ=            -13.6596
   XY=             -0.0000   XZ=             -0.0000   YZ=             -0.0000

 Normal termination of Gaussian 16 at Fri Sep 17 10:52:25 2021.
