 Gaussian 16, Revision C.01,
 Gaussian 16:  ES64L-G16RevC.01  3-Jul-2019

 ----------------------------------------
 #P wB97XD/6-311+G* NoSymm #P Field=Z+145
 ----------------------------------------

 -------
 TitleMe
 -------
 Symbolic Z-matrix:
 Charge =  1 Multiplicity = 1

                          Input orientation:
 ---------------------------------------------------------------------
 Center     Atomic      Atomic             Coordinates (Angstroms)
 Number     Number       Type             X           Y           Z
 ---------------------------------------------------------------------
      1          6           0        0.029500    1.339700    0.068200
      2          6           0        1.434800    1.286700    0.006400
      3          6           0        2.111800    0.051100   -0.005400
      4          6           0        1.445100   -1.137200    0.031200
      5          6           0       -0.687900    0.168200    0.110000
      6          1           0       -0.471300    2.298400    0.078100
      7          1           0        2.027300    2.196500   -0.032200
      8          1           0        1.989700   -2.076400    0.023200
      9          1           0       -1.771600    0.180400    0.158200
     10          7           0        3.586400    0.051000   -0.067500
     11          8           0        4.147100   -1.059700   -0.088100
     12          8           0        4.145000    1.163900   -0.090100
     13          6           0       -0.023600   -1.145800    0.083500
     14          1           0       -0.436700   -1.872500    0.788900
     15         35           0       -0.535900   -1.869700   -1.740800
 ---------------------------------------------------------------------

 SCF Done:  E(RwB97XD) =  -3010.54264386     A.U. after   18 cycles

 Alpha  occ. eigenvalues -- -483.28986 -62.83974 -56.63706 -56.63080 -56.63078
 Alpha  occ. eigenvalues --  -19.45128 -19.45068 -14.84628 -10.57060 -10.56524
 Alpha  occ. eigenvalues --  -10.56327 -10.56107 -10.55909 -10.52180  -8.99754
 Alpha  occ. eigenvalues --   -6.82535  -6.80497  -6.80485  -2.92415  -2.91875
 Alpha  occ. eigenvalues --   -2.91864  -2.90235  -2.90234  -1.48893  -1.31872
 Alpha  occ. eigenvalues --   -1.21677  -1.12901  -1.10805  -1.02457  -1.00219
 Alpha  occ. eigenvalues --   -0.94451  -0.90085  -0.84511  -0.80001  -0.79776
 Alpha  occ. eigenvalues --   -0.79197  -0.77540  -0.75317  -0.75082  -0.71027
 Alpha  occ. eigenvalues --   -0.68451  -0.66695  -0.62285  -0.58867  -0.56324
 Alpha  occ. eigenvalues --   -0.55413  -0.54878  -0.53667  -0.52934
 Alpha virt. eigenvalues --   -0.28464  -0.20573  -0.14446  -0.12653  -0.10638
 Alpha virt. eigenvalues --   -0.08079  -0.07636  -0.05727  -0.04144  -0.03710
 Alpha virt. eigenvalues --   -0.02360  -0.01036  -0.00436   0.00719   0.01239

 Mulliken charges:
               1
     1  C   -0.552009
     2  C    0.462415
     3  C   -0.697626
     4  C    0.264605
     5  C   -0.045148
     6  H    0.330868
     7  H    0.366737
     8  H    0.371024
     9  H    0.346656
    10  N   -0.111250
    11  O    0.032450
    12  O    0.029867
    13  C   -0.460173
    14  H    0.352851
    15  Br   0.308734
 Sum of Mulliken charges =   1.00000

 Dipole moment (field-independent basis, Debye):
    X=             -1.1844    Y=             -1.1467    Z=             -2.5468  Tot=              3.0338
 Quadrupole moment (field-independent basis, Debye-Ang):
   XX=            -71.7636   YY=            -51.2517   ZZ=            -60.0899
   XY=              1.7129   XZ=             -0.0565   YZ=              3.8048

 Normal termination of Gaussian 16 at Wed May  1 15:25:56 2024.
