 Gaussian 16, Revision C.01,
 Gaussian 16:  ES64L-G16RevC.01  3-Jul-2019

 ----------------------------------------
 #P wB97XD/6-311+G* NoSymm #P Field=Y-175
 ----------------------------------------

 -------
 TitleMe
 -------
 Symbolic Z-matrix:
 Charge =  1 Multiplicity = 1

                          Input orientation:
 ---------------------------------------------------------------------
 Center     Atomic      Atomic             Coordinates (Angstroms)
 Number     Number       Type             X           Y           Z
 ---------------------------------------------------------------------
      1          6           0        0.519300    1.233000   -0.031900
      2          6           0        1.944500    1.269200   -0.036700
      3          6           0        2.620400    0.092800   -0.025000
      4          6           0       -0.196000    0.030100    0.001000
      5          1           0       -0.020700    2.174200   -0.043400
      6          1           0        2.482800    2.208900   -0.036100
      7          1           0       -1.277700    0.039900    0.011700
      8          7           0        4.092100    0.095900    0.036600
      9          8           0        4.639300   -1.021700    0.144600
     10          8           0        4.664900    1.198400   -0.023300
     11          6           0        0.494300   -1.167100    0.021000
     12          1           0       -0.032500   -2.114900    0.054500
     13          6           0        1.962900   -1.216500   -0.021100
     14          1           0        2.443600   -1.963100    0.615100
     15         35           0        2.173000   -1.949100   -1.906200
 ---------------------------------------------------------------------

 SCF Done:  E(RwB97XD) =  -3010.54336830     A.U. after   22 cycles

 Alpha  occ. eigenvalues -- -483.33933 -62.88984 -56.68638 -56.68119 -56.68117
 Alpha  occ. eigenvalues --  -19.46642 -19.46297 -14.85841 -10.60524 -10.59646
 Alpha  occ. eigenvalues --  -10.58591 -10.57259 -10.53643 -10.53123  -9.04811
 Alpha  occ. eigenvalues --   -6.87384  -6.85672  -6.85662  -2.97313  -2.96856
 Alpha  occ. eigenvalues --   -2.96846  -2.95477  -2.95476  -1.50122  -1.33078
 Alpha  occ. eigenvalues --   -1.23556  -1.14119  -1.13278  -1.06566  -1.01242
 Alpha  occ. eigenvalues --   -0.96297  -0.91281  -0.85694  -0.81442  -0.81006
 Alpha  occ. eigenvalues --   -0.80406  -0.78825  -0.76541  -0.76253  -0.73255
 Alpha  occ. eigenvalues --   -0.69221  -0.67826  -0.64280  -0.61658  -0.59579
 Alpha  occ. eigenvalues --   -0.57932  -0.57397  -0.56099  -0.55738
 Alpha virt. eigenvalues --   -0.31259  -0.20743  -0.17947  -0.16336  -0.13542
 Alpha virt. eigenvalues --   -0.12138  -0.11164  -0.08093  -0.07013  -0.06202
 Alpha virt. eigenvalues --   -0.05185  -0.04293  -0.03619  -0.03256  -0.01325

 Mulliken charges:
               1
     1  C   -0.119659
     2  C    0.215649
     3  C   -0.045404
     4  C   -0.291979
     5  H    0.414283
     6  H    0.412858
     7  H    0.336368
     8  N   -0.234439
     9  O   -0.005908
    10  O    0.170952
    11  C   -0.204479
    12  H    0.290395
    13  C   -0.361681
    14  H    0.368025
    15  Br   0.055017
 Sum of Mulliken charges =   1.00000

 Dipole moment (field-independent basis, Debye):
    X=              2.5192    Y=              4.2447    Z=             -0.0654  Tot=              4.9364
 Quadrupole moment (field-independent basis, Debye-Ang):
   XX=            -68.1250   YY=            -54.2593   ZZ=            -64.1143
   XY=              7.7500   XZ=             -1.0700   YZ=             -0.2731

 Normal termination of Gaussian 16 at Thu May  2 14:21:43 2024.
