 Gaussian 16, Revision C.01,
 Gaussian 16:  ES64L-G16RevC.01  3-Jul-2019

 ----------------------------------------
 #P wB97XD/6-311+G* NoSymm #P Field=X-126
 ----------------------------------------

 -------
 TitleMe
 -------
 Symbolic Z-matrix:
 Charge =  1 Multiplicity = 1

                          Input orientation:
 ---------------------------------------------------------------------
 Center     Atomic      Atomic             Coordinates (Angstroms)
 Number     Number       Type             X           Y           Z
 ---------------------------------------------------------------------
      1          6           0        0.519300    1.233000   -0.031900
      2          6           0        1.944500    1.269200   -0.036700
      3          6           0        2.620400    0.092800   -0.025000
      4          6           0       -0.196000    0.030100    0.001000
      5          1           0       -0.020700    2.174200   -0.043400
      6          1           0        2.482800    2.208900   -0.036100
      7          1           0       -1.277700    0.039900    0.011700
      8          7           0        4.092100    0.095900    0.036600
      9          8           0        4.639300   -1.021700    0.144600
     10          8           0        4.664900    1.198400   -0.023300
     11          6           0        0.494300   -1.167100    0.021000
     12          1           0       -0.032500   -2.114900    0.054500
     13          6           0        1.962900   -1.216500   -0.021100
     14          1           0        2.443600   -1.963100    0.615100
     15         35           0        2.173000   -1.949100   -1.906200
 ---------------------------------------------------------------------

 SCF Done:  E(RwB97XD) =  -3010.55462277     A.U. after   25 cycles

 Alpha  occ. eigenvalues -- -483.26787 -62.81793 -56.61498 -56.60917 -56.60901
 Alpha  occ. eigenvalues --  -19.38427 -19.38353 -14.77990 -10.54709 -10.53766
 Alpha  occ. eigenvalues --  -10.53504 -10.53483 -10.49949 -10.48597  -8.97586
 Alpha  occ. eigenvalues --   -6.80293  -6.78390  -6.78339  -2.90190  -2.89695
 Alpha  occ. eigenvalues --   -2.89654  -2.88131  -2.88130  -1.42132  -1.24998
 Alpha  occ. eigenvalues --   -1.18245  -1.08830  -1.07921  -1.00342  -0.95305
 Alpha  occ. eigenvalues --   -0.91373  -0.86266  -0.80136  -0.76012  -0.74679
 Alpha  occ. eigenvalues --   -0.74076  -0.72889  -0.71282  -0.68648  -0.67617
 Alpha  occ. eigenvalues --   -0.65011  -0.63467  -0.59569  -0.55385  -0.51669
 Alpha  occ. eigenvalues --   -0.50873  -0.49293  -0.47898  -0.47678
 Alpha virt. eigenvalues --   -0.25906  -0.15053  -0.11202  -0.09896  -0.07744
 Alpha virt. eigenvalues --   -0.06494  -0.04526  -0.03061  -0.01917  -0.00639
 Alpha virt. eigenvalues --    0.00346   0.00991   0.02038   0.03015   0.04331

 Mulliken charges:
               1
     1  C   -0.099250
     2  C    0.164619
     3  C   -0.000867
     4  C   -0.319502
     5  H    0.312166
     6  H    0.366233
     7  H    0.267076
     8  N   -0.242854
     9  O    0.137208
    10  O    0.130444
    11  C   -0.268183
    12  H    0.324966
    13  C   -0.412364
    14  H    0.427031
    15  Br   0.213276
 Sum of Mulliken charges =   1.00000

 Dipole moment (field-independent basis, Debye):
    X=              6.3981    Y=             -1.0922    Z=             -0.9355  Tot=              6.5578
 Quadrupole moment (field-independent basis, Debye-Ang):
   XX=            -53.9844   YY=            -50.9453   ZZ=            -61.8106
   XY=             -3.8188   XZ=             -3.5662   YZ=              2.8975

 Normal termination of Gaussian 16 at Thu May  2 14:24:16 2024.
