 Gaussian 16, Revision C.01,
 Gaussian 16:  ES64L-G16RevC.01  3-Jul-2019

 ---------------------------------------
 #P wB97XD/6-311+G* NoSymm #P Field=Y+77
 ---------------------------------------

 -------
 TitleMe
 -------
 Symbolic Z-matrix:
 Charge =  1 Multiplicity = 1

                          Input orientation:
 ---------------------------------------------------------------------
 Center     Atomic      Atomic             Coordinates (Angstroms)
 Number     Number       Type             X           Y           Z
 ---------------------------------------------------------------------
      1          6           0        0.029500    1.339700    0.068200
      2          6           0        1.434800    1.286700    0.006400
      3          6           0        2.111800    0.051100   -0.005400
      4          6           0        1.445100   -1.137200    0.031200
      5          6           0       -0.687900    0.168200    0.110000
      6          1           0       -0.471300    2.298400    0.078100
      7          1           0        2.027300    2.196500   -0.032200
      8          1           0        1.989700   -2.076400    0.023200
      9          1           0       -1.771600    0.180400    0.158200
     10          7           0        3.586400    0.051000   -0.067500
     11          8           0        4.147100   -1.059700   -0.088100
     12          8           0        4.145000    1.163900   -0.090100
     13          6           0       -0.023600   -1.145800    0.083500
     14          1           0       -0.436700   -1.872500    0.788900
     15         35           0       -0.535900   -1.869700   -1.740800
 ---------------------------------------------------------------------

 SCF Done:  E(RwB97XD) =  -3010.54047721     A.U. after   19 cycles

 Alpha  occ. eigenvalues -- -483.29924 -62.84934 -56.64641 -56.64050 -56.64047
 Alpha  occ. eigenvalues --  -19.45494 -19.45436 -14.84987 -10.57368 -10.57067
 Alpha  occ. eigenvalues --  -10.56627 -10.56444 -10.56267 -10.53051  -9.00729
 Alpha  occ. eigenvalues --   -6.83443  -6.81513  -6.81496  -2.93339  -2.92827
 Alpha  occ. eigenvalues --   -2.92813  -2.91269  -2.91269  -1.49259  -1.32241
 Alpha  occ. eigenvalues --   -1.22079  -1.13310  -1.11385  -1.03291  -1.00635
 Alpha  occ. eigenvalues --   -0.94875  -0.90489  -0.84946  -0.80392  -0.80174
 Alpha  occ. eigenvalues --   -0.79569  -0.77737  -0.75688  -0.75456  -0.71662
 Alpha  occ. eigenvalues --   -0.68869  -0.67159  -0.63118  -0.59388  -0.56755
 Alpha  occ. eigenvalues --   -0.55799  -0.55230  -0.54793  -0.54015
 Alpha virt. eigenvalues --   -0.28982  -0.20819  -0.14988  -0.12661  -0.10273
 Alpha virt. eigenvalues --   -0.06999  -0.06268  -0.04835  -0.04470  -0.03091
 Alpha virt. eigenvalues --   -0.01779  -0.01583  -0.00766  -0.00177   0.00687

 Mulliken charges:
               1
     1  C   -0.590703
     2  C    0.559221
     3  C   -0.760421
     4  C    0.317180
     5  C   -0.023716
     6  H    0.300904
     7  H    0.337330
     8  H    0.398654
     9  H    0.348706
    10  N   -0.105119
    11  O    0.070431
    12  O   -0.015828
    13  C   -0.487821
    14  H    0.423487
    15  Br   0.227696
 Sum of Mulliken charges =   1.00000

 Dipole moment (field-independent basis, Debye):
    X=             -1.0817    Y=             -2.8050    Z=             -0.3152  Tot=              3.0228
 Quadrupole moment (field-independent basis, Debye-Ang):
   XX=            -71.6539   YY=            -51.0823   ZZ=            -61.9891
   XY=             -1.1694   XZ=              1.3614   YZ=              2.6782

 Normal termination of Gaussian 16 at Wed May  1 15:07:43 2024.
