 Gaussian 16, Revision C.01,
 Gaussian 16:  ES64L-G16RevC.01  3-Jul-2019

 ----------------------------------------
 #P wB97XD/6-311+G* NoSymm #P Field=Z-243
 ----------------------------------------

 -------
 TitleMe
 -------
 Symbolic Z-matrix:
 Charge =  1 Multiplicity = 1

                          Input orientation:
 ---------------------------------------------------------------------
 Center     Atomic      Atomic             Coordinates (Angstroms)
 Number     Number       Type             X           Y           Z
 ---------------------------------------------------------------------
      1          6           0        0.519300    1.233000   -0.031900
      2          6           0        1.944500    1.269200   -0.036700
      3          6           0        2.620400    0.092800   -0.025000
      4          6           0       -0.196000    0.030100    0.001000
      5          1           0       -0.020700    2.174200   -0.043400
      6          1           0        2.482800    2.208900   -0.036100
      7          1           0       -1.277700    0.039900    0.011700
      8          7           0        4.092100    0.095900    0.036600
      9          8           0        4.639300   -1.021700    0.144600
     10          8           0        4.664900    1.198400   -0.023300
     11          6           0        0.494300   -1.167100    0.021000
     12          1           0       -0.032500   -2.114900    0.054500
     13          6           0        1.962900   -1.216500   -0.021100
     14          1           0        2.443600   -1.963100    0.615100
     15         35           0        2.173000   -1.949100   -1.906200
 ---------------------------------------------------------------------

 SCF Done:  E(RwB97XD) =  -3010.54558275     A.U. after   22 cycles

 Alpha  occ. eigenvalues -- -483.35494 -62.90565 -56.70187 -56.69715 -56.69711
 Alpha  occ. eigenvalues --  -19.46967 -19.46893 -14.86409 -10.60694 -10.60498
 Alpha  occ. eigenvalues --  -10.58837 -10.58738 -10.54842 -10.54132  -9.06404
 Alpha  occ. eigenvalues --   -6.88891  -6.87316  -6.87308  -2.98840  -2.98416
 Alpha  occ. eigenvalues --   -2.98409  -2.97147  -2.97147  -1.50614  -1.33556
 Alpha  occ. eigenvalues --   -1.24218  -1.15288  -1.13929  -1.07801  -1.01924
 Alpha  occ. eigenvalues --   -0.96974  -0.92014  -0.85994  -0.82091  -0.81411
 Alpha  occ. eigenvalues --   -0.81019  -0.79252  -0.77229  -0.76884  -0.74344
 Alpha  occ. eigenvalues --   -0.70078  -0.69075  -0.65694  -0.63086  -0.61224
 Alpha  occ. eigenvalues --   -0.58428  -0.57966  -0.56710  -0.56435
 Alpha virt. eigenvalues --   -0.32255  -0.21972  -0.20962  -0.18158  -0.15222
 Alpha virt. eigenvalues --   -0.14341  -0.13268  -0.10431  -0.09009  -0.08283
 Alpha virt. eigenvalues --   -0.05964  -0.05748  -0.03601  -0.03024  -0.02306

 Mulliken charges:
               1
     1  C   -0.048064
     2  C    0.077032
     3  C   -0.101130
     4  C   -0.368600
     5  H    0.354057
     6  H    0.359382
     7  H    0.342692
     8  N   -0.196050
     9  O    0.093313
    10  O    0.077431
    11  C   -0.129112
    12  H    0.368074
    13  C   -0.257826
    14  H    0.489227
    15  Br  -0.060427
 Sum of Mulliken charges =   1.00000

 Dipole moment (field-independent basis, Debye):
    X=              2.4670    Y=              0.0379    Z=              3.6264  Tot=              4.3862
 Quadrupole moment (field-independent basis, Debye-Ang):
   XX=            -67.7657   YY=            -52.7167   ZZ=            -68.3527
   XY=             -1.1060   XZ=              6.4497   YZ=             -1.8301

 Normal termination of Gaussian 16 at Thu May  2 14:22:15 2024.
