 Gaussian 16, Revision A.03,
 Gaussian 16:  ES64L-G16RevA.03 25-Dec-2016

 --------------------------------------------------------------------
 #p B3LYP/6-311+G** #p TD=(singlets,nstates=30)IOp(6/8=3) IOp(9/40=4)
 --------------------------------------------------------------------

 ------------------------------
 Scan Step 56, Bond Length 0.78
 ------------------------------
 Symbolic Z-matrix:
 Charge =  0 Multiplicity = 1

                         Standard orientation:
 ---------------------------------------------------------------------
 Center     Atomic      Atomic             Coordinates (Angstroms)
 Number     Number       Type             X           Y           Z
 ---------------------------------------------------------------------
      1          6           0        0.000000   -0.000000   -0.316081
      2          1           0        0.000000    0.937260   -0.907431
      3          1           0       -0.000000   -0.937260   -0.907431
      4          8           0        0.000000    0.000000    0.463919
 ---------------------------------------------------------------------

 SCF Done:  E(RB3LYP) =  -113.720072428     A.U. after    9 cycles

 Excitation energies and oscillator strengths:

 Excited State   1:      Singlet-B2     5.3603 eV  231.30 nm  f=0.1051  <S**2>=0.000
       3 -> 11        -0.00078
       3 -> 16        -0.00043
       3 -> 19        -0.00085
       3 -> 23        -0.00019
       3 -> 24        -0.00103
       3 -> 29         0.00022
       3 -> 40        -0.00011
       3 -> 42        -0.00018
       3 -> 50         0.00014
       3 -> 53        -0.00012
       4 ->  9         0.00271
       4 -> 12        -0.00469
       4 -> 14        -0.00433
       4 -> 15        -0.00163
       4 -> 18        -0.00347
       4 -> 20        -0.00171
       4 -> 21        -0.00214
       4 -> 25        -0.00149
       4 -> 26         0.00086
       4 -> 30         0.00137
       4 -> 31        -0.00117
       4 -> 34        -0.00045
       4 -> 38         0.00078
       4 -> 41        -0.00052
       4 -> 44         0.00038
       4 -> 46         0.00069
       4 -> 48        -0.00032
       5 -> 28        -0.00142
       5 -> 35        -0.00055
       5 -> 45        -0.00086
       6 -> 11         0.00707
       6 -> 16        -0.00179
       6 -> 19        -0.00051
       6 -> 23         0.00177
       6 -> 24        -0.00430
       6 -> 29         0.00087
       6 -> 32         0.00106
       6 -> 36        -0.00073
       6 -> 42        -0.00037
       7 -> 11        -0.00392
       7 -> 16        -0.00403
       7 -> 19        -0.00300
       7 -> 23         0.00119
       7 -> 24        -0.00231
       7 -> 29        -0.00043
       7 -> 32        -0.00025
       7 -> 36         0.00044
       7 -> 42         0.00039
       7 -> 47        -0.00046
       7 -> 50        -0.00046
       7 -> 53         0.00011
       8 ->  9         0.70596
       8 -> 12        -0.00158
       8 -> 14         0.03385
       8 -> 15        -0.00985
       8 -> 18        -0.02136
       8 -> 20         0.00642
       8 -> 21         0.00916
       8 -> 25        -0.00041
       8 -> 26         0.00016
       8 -> 30        -0.00079
       8 -> 31        -0.00324
       8 -> 34        -0.00129
       8 -> 38        -0.00105
       8 -> 39         0.00037
       8 -> 41         0.00064
       8 -> 44         0.00013
       8 -> 46         0.00096
       8 -> 48        -0.00034
       8 -> 54         0.00011
       3 <- 11        -0.00029
       3 <- 16        -0.00010
       3 <- 19        -0.00055
       3 <- 23        -0.00011
       3 <- 24        -0.00077
       3 <- 29         0.00020
       3 <- 32         0.00011
       3 <- 40        -0.00012
       3 <- 42        -0.00016
       3 <- 53        -0.00013
       4 <-  9         0.00168
       4 <- 12         0.00022
       4 <- 14        -0.00351
       4 <- 15        -0.00188
       4 <- 18        -0.00084
       4 <- 20        -0.00082
       4 <- 21        -0.00149
       4 <- 25        -0.00152
       4 <- 26         0.00126
       4 <- 30         0.00048
       4 <- 31        -0.00039
       4 <- 34        -0.00027
       4 <- 38         0.00049
       4 <- 39        -0.00017
       4 <- 41        -0.00045
       4 <- 44         0.00029
       4 <- 46         0.00062
       4 <- 48        -0.00026
       5 <- 28        -0.00114
       5 <- 35        -0.00044
       5 <- 45        -0.00073
       6 <- 11         0.00064
       6 <- 16        -0.00192
       6 <- 19        -0.00166
       6 <- 23         0.00088
       6 <- 24        -0.00333
       6 <- 29         0.00066
       6 <- 32         0.00084
       6 <- 36        -0.00060
       6 <- 40         0.00012
       6 <- 42        -0.00020
       7 <- 11        -0.00086
       7 <- 16        -0.00233
       7 <- 19        -0.00068
       7 <- 23         0.00046
       7 <- 24        -0.00105
       7 <- 29        -0.00103
       7 <- 32        -0.00014
       7 <- 36         0.00016
       7 <- 42         0.00030
       7 <- 47        -0.00045
       7 <- 50        -0.00054
       8 <-  9        -0.00601
       8 <- 12        -0.00351
       8 <- 14         0.01623
       8 <- 15         0.00402
       8 <- 18         0.00137
       8 <- 21         0.00468
       8 <- 25         0.00316
       8 <- 26         0.00053
       8 <- 30        -0.00069
       8 <- 31        -0.00190
       8 <- 34        -0.00149
       8 <- 38        -0.00101
       8 <- 39         0.00031
       8 <- 41         0.00048
       8 <- 46         0.00076
       8 <- 48        -0.00029
 This state for optimization and/or second-order correction.
 Total Energy, E(TD-HF/TD-DFT) =  -113.523086737
 Copying the excited state density for this state as the 1-particle RhoCI density.

 Excited State   2:      Singlet-A2     5.5007 eV  225.40 nm  f=0.0000  <S**2>=0.000
       3 -> 28         0.00224
       3 -> 35         0.00159
       3 -> 45         0.00070
       4 -> 10         0.00233
       4 -> 13         0.00451
       4 -> 17         0.00508
       4 -> 22        -0.00283
       4 -> 27         0.00255
       4 -> 33         0.00064
       4 -> 37         0.00235
       4 -> 43         0.00030
       4 -> 49         0.00011
       4 -> 52         0.00045
       5 -> 11        -0.00042
       5 -> 16        -0.00016
       5 -> 19        -0.00038
       5 -> 23         0.00133
       5 -> 32         0.00017
       5 -> 36         0.00042
       5 -> 42         0.00045
       5 -> 47         0.00051
       5 -> 50        -0.00019
       5 -> 53         0.00016
       6 -> 28         0.00368
       6 -> 35        -0.00058
       6 -> 45        -0.00035
       7 -> 28         0.00051
       7 -> 45         0.00071
       8 -> 10         0.70277
       8 -> 13         0.07231
       8 -> 17         0.03020
       8 -> 22        -0.00067
       8 -> 27         0.00327
       8 -> 33         0.00320
       8 -> 37        -0.00230
       8 -> 52         0.00058
       3 <- 28         0.00176
       3 <- 35         0.00137
       3 <- 45         0.00070
       4 <- 10         0.00018
       4 <- 13         0.00102
       4 <- 17         0.00052
       4 <- 27         0.00019
       4 <- 33        -0.00091
       4 <- 37         0.00117
       4 <- 43         0.00035
       4 <- 52         0.00011
       5 <- 11        -0.00079
       5 <- 16         0.00085
       5 <- 19        -0.00228
       5 <- 23         0.00257
       5 <- 24        -0.00162
       5 <- 29         0.00145
       5 <- 32        -0.00048
       5 <- 36         0.00121
       5 <- 42         0.00059
       5 <- 47         0.00044
       5 <- 53         0.00043
       6 <- 28         0.00381
       6 <- 35        -0.00063
       6 <- 45        -0.00035
       7 <- 28         0.00043
       7 <- 45         0.00063
       8 <- 10        -0.00212
       8 <- 13        -0.00768
       8 <- 17        -0.00495
       8 <- 22         0.00026
       8 <- 27        -0.00039
       8 <- 33         0.00301
       8 <- 37        -0.00193
       8 <- 43         0.00011
       8 <- 52         0.00018

 Excited State   3:      Singlet-B2     6.1956 eV  200.12 nm  f=0.0274  <S**2>=0.000
       3 -> 11         0.00011
       3 -> 16        -0.00055
       3 -> 19         0.00019
       3 -> 23        -0.00023
       3 -> 24        -0.00043
       3 -> 29        -0.00067
       3 -> 32        -0.00013
       3 -> 36         0.00026
       3 -> 42         0.00026
       3 -> 47        -0.00018
       3 -> 50        -0.00016
       3 -> 53         0.00014
       4 ->  9        -0.00327
       4 -> 12        -0.00030
       4 -> 14        -0.00193
       4 -> 15        -0.00349
       4 -> 18         0.00230
       4 -> 21        -0.00141
       4 -> 25        -0.00082
       4 -> 26        -0.00096
       4 -> 30         0.00115
       4 -> 31         0.00205
       4 -> 34         0.00021
       4 -> 39         0.00092
       4 -> 41         0.00045
       4 -> 46        -0.00062
       4 -> 48         0.00027
       4 -> 51         0.00014
       5 -> 28         0.00096
       5 -> 35         0.00132
       5 -> 45         0.00086
       6 -> 11        -0.00158
       6 -> 16        -0.00505
       6 -> 23         0.00083
       6 -> 24        -0.00364
       6 -> 29         0.00158
       6 -> 32        -0.00053
       6 -> 36        -0.00017
       6 -> 40         0.00032
       6 -> 42        -0.00013
       7 -> 11         0.00276
       7 -> 16         0.00140
       7 -> 19         0.00225
       7 -> 23        -0.00114
       7 -> 24         0.00133
       7 -> 32         0.00024
       7 -> 36        -0.00099
       7 -> 40         0.00026
       7 -> 42        -0.00048
       7 -> 47         0.00066
       7 -> 50         0.00048
       7 -> 53        -0.00018
       8 ->  9         0.00133
       8 -> 12         0.70596
       8 -> 14         0.02318
       8 -> 15         0.02596
       8 -> 18         0.01301
       8 -> 20         0.01573
       8 -> 21         0.00429
       8 -> 25        -0.00063
       8 -> 26         0.00116
       8 -> 30        -0.00200
       8 -> 31        -0.00071
       8 -> 34        -0.00032
       8 -> 39         0.00119
       8 -> 41         0.00098
       8 -> 46        -0.00065
       8 -> 48         0.00033
       8 -> 54        -0.00015
       3 <- 11        -0.00015
       3 <- 16        -0.00055
       3 <- 24        -0.00048
       3 <- 29        -0.00045
       3 <- 32        -0.00015
       3 <- 36         0.00027
       3 <- 42         0.00023
       3 <- 47        -0.00014
       3 <- 53         0.00022
       4 <-  9         0.00133
       4 <- 14        -0.00158
       4 <- 15        -0.00067
       4 <- 18        -0.00064
       4 <- 20         0.00041
       4 <- 21        -0.00098
       4 <- 25        -0.00093
       4 <- 26        -0.00088
       4 <- 30         0.00106
       4 <- 31         0.00090
       4 <- 34         0.00074
       4 <- 39         0.00070
       4 <- 41         0.00045
       4 <- 46        -0.00061
       4 <- 48         0.00016
       4 <- 51         0.00014
       5 <- 28         0.00052
       5 <- 35         0.00111
       5 <- 45         0.00075
       6 <- 16        -0.00116
       6 <- 19        -0.00087
       6 <- 23         0.00106
       6 <- 24        -0.00213
       6 <- 29         0.00085
       6 <- 32        -0.00061
       6 <- 36        -0.00038
       6 <- 40         0.00031
       7 <- 11         0.00034
       7 <- 16         0.00067
       7 <- 19         0.00029
       7 <- 23        -0.00031
       7 <- 24         0.00046
       7 <- 29         0.00046
       7 <- 36        -0.00063
       7 <- 40         0.00020
       7 <- 42        -0.00034
       7 <- 47         0.00058
       7 <- 50         0.00050
       8 <-  9        -0.00324
       8 <- 12         0.00136
       8 <- 14         0.00874
       8 <- 15         0.00278
       8 <- 18        -0.00142
       8 <- 20        -0.00252
       8 <- 21         0.00311
       8 <- 25         0.00060
       8 <- 26        -0.00042
       8 <- 30        -0.00166
       8 <- 31        -0.00096
       8 <- 38         0.00018
       8 <- 39         0.00095
       8 <- 41         0.00084
       8 <- 46        -0.00053
       8 <- 48         0.00018

 Excited State   4:      Singlet-A1     6.3414 eV  195.52 nm  f=0.0258  <S**2>=0.000
       3 ->  9        -0.00122
       3 -> 12         0.00064
       3 -> 15         0.00063
       3 -> 18         0.00137
       3 -> 21        -0.00054
       3 -> 25         0.00040
       3 -> 26         0.00016
       3 -> 30        -0.00100
       3 -> 34        -0.00028
       3 -> 38        -0.00031
       3 -> 39        -0.00030
       3 -> 51        -0.00023
       3 -> 54         0.00018
       4 -> 11         0.00684
       4 -> 16         0.00779
       4 -> 19         0.00502
       4 -> 23         0.00170
       4 -> 24         0.00358
       4 -> 29         0.00070
       4 -> 32        -0.00013
       4 -> 36         0.00102
       4 -> 42        -0.00027
       4 -> 50        -0.00031
       5 -> 10         0.00535
       5 -> 13        -0.00266
       5 -> 17         0.00454
       5 -> 22         0.00352
       5 -> 27         0.00099
       5 -> 33         0.00093
       5 -> 37         0.00056
       5 -> 43         0.00031
       5 -> 49        -0.00033
       6 ->  9        -0.00708
       6 -> 12        -0.01073
       6 -> 14         0.00586
       6 -> 15         0.00374
       6 -> 18         0.00274
       6 -> 20        -0.00685
       6 -> 21         0.00076
       6 -> 25         0.00668
       6 -> 26        -0.00121
       6 -> 30         0.00090
       6 -> 31        -0.00115
       6 -> 34        -0.00140
       6 -> 38        -0.00071
       6 -> 39         0.00118
       6 -> 44        -0.00041
       6 -> 46        -0.00017
       6 -> 48        -0.00039
       7 ->  9        -0.01175
       7 -> 12         0.00705
       7 -> 14         0.00104
       7 -> 15        -0.00149
       7 -> 18         0.00878
       7 -> 20        -0.00042
       7 -> 25         0.00096
       7 -> 26         0.00101
       7 -> 30        -0.00036
       7 -> 31         0.00102
       7 -> 34        -0.00088
       7 -> 48        -0.00020
       7 -> 51         0.00029
       8 -> 11         0.70518
       8 -> 16         0.04662
       8 -> 19        -0.01277
       8 -> 23         0.00136
       8 -> 24         0.00303
       8 -> 29         0.00408
       8 -> 32         0.00169
       8 -> 36        -0.00287
       8 -> 40         0.00022
       8 -> 42         0.00166
       8 -> 47        -0.00062
       3 <-  9        -0.00058
       3 <- 12         0.00029
       3 <- 15         0.00036
       3 <- 18         0.00083
       3 <- 21        -0.00029
       3 <- 25         0.00036
       3 <- 26         0.00015
       3 <- 30        -0.00064
       3 <- 34        -0.00025
       3 <- 38        -0.00022
       3 <- 39        -0.00026
       3 <- 46         0.00014
       3 <- 48        -0.00010
       3 <- 51        -0.00020
       3 <- 54         0.00016
       4 <- 11         0.00252
       4 <- 16         0.00283
       4 <- 19         0.00271
       4 <- 23         0.00133
       4 <- 24         0.00191
       4 <- 29         0.00032
       4 <- 32        -0.00023
       4 <- 36         0.00086
       4 <- 42        -0.00024
       4 <- 50        -0.00026
       5 <- 10         0.00245
       5 <- 13        -0.00128
       5 <- 17         0.00242
       5 <- 22         0.00227
       5 <- 27         0.00068
       5 <- 33         0.00074
       5 <- 37         0.00047
       5 <- 43         0.00027
       5 <- 49        -0.00029
       6 <-  9        -0.00679
       6 <- 12        -0.00447
       6 <- 14         0.00453
       6 <- 15         0.00318
       6 <- 18         0.00168
       6 <- 20        -0.00385
       6 <- 21        -0.00033
       6 <- 25         0.00427
       6 <- 26        -0.00063
       6 <- 30         0.00023
       6 <- 31        -0.00118
       6 <- 34        -0.00103
       6 <- 38        -0.00079
       6 <- 39         0.00093
       6 <- 44        -0.00044
       6 <- 46        -0.00016
       6 <- 48        -0.00031
       7 <-  9        -0.00388
       7 <- 12         0.00228
       7 <- 14         0.00027
       7 <- 15        -0.00084
       7 <- 18         0.00408
       7 <- 20        -0.00043
       7 <- 21        -0.00011
       7 <- 25         0.00060
       7 <- 26         0.00056
       7 <- 30        -0.00031
       7 <- 31         0.00076
       7 <- 34        -0.00060
       7 <- 38        -0.00012
       7 <- 39         0.00019
       7 <- 46        -0.00013
       7 <- 48        -0.00013
       7 <- 51         0.00027
       8 <- 11        -0.00595
       8 <- 16         0.00469
       8 <- 19        -0.01328
       8 <- 23        -0.00250
       8 <- 24        -0.00051
       8 <- 29         0.00250
       8 <- 32         0.00143
       8 <- 36        -0.00218
       8 <- 42         0.00133
       8 <- 47        -0.00066

 Excited State   5:      Singlet-A2     7.7240 eV  160.52 nm  f=0.0000  <S**2>=0.000
       3 -> 28         0.00252
       3 -> 35         0.00189
       3 -> 45         0.00078
       4 -> 10         0.00404
       4 -> 13         0.01003
       4 -> 17         0.00024
       4 -> 22        -0.00311
       4 -> 27         0.00072
       4 -> 33         0.00189
       4 -> 37         0.00309
       4 -> 43         0.00025
       4 -> 52         0.00049
       5 -> 16        -0.00140
       5 -> 19        -0.00035
       5 -> 23         0.00170
       5 -> 24        -0.00022
       5 -> 29        -0.00031
       5 -> 32         0.00012
       5 -> 36         0.00050
       5 -> 42         0.00058
       5 -> 47         0.00053
       5 -> 53         0.00019
       6 -> 28         0.00239
       6 -> 35        -0.00086
       6 -> 45        -0.00017
       7 -> 28         0.00035
       7 -> 45         0.00084
       8 -> 10        -0.07353
       8 -> 13         0.70224
       8 -> 17         0.02866
       8 -> 22        -0.02354
       8 -> 27         0.00302
       8 -> 33         0.00239
       8 -> 37        -0.00231
       8 -> 43        -0.00012
       8 -> 52         0.00053
       3 <- 28         0.00167
       3 <- 35         0.00156
       3 <- 45         0.00087
       4 <- 10         0.00034
       4 <- 13         0.00076
       4 <- 33        -0.00058
       4 <- 37         0.00112
       4 <- 43         0.00035
       4 <- 52         0.00015
       5 <- 11         0.00029
       5 <- 16        -0.00038
       5 <- 19        -0.00097
       5 <- 23         0.00277
       5 <- 24        -0.00140
       5 <- 29         0.00035
       5 <- 32        -0.00077
       5 <- 36         0.00152
       5 <- 42         0.00085
       5 <- 47         0.00025
       5 <- 53         0.00044
       6 <- 28         0.00287
       6 <- 35        -0.00034
       6 <- 45        -0.00029
       7 <- 28         0.00041
       7 <- 35        -0.00021
       7 <- 45         0.00049
       8 <- 10        -0.00713
       8 <- 13        -0.00401
       8 <- 17        -0.00245
       8 <- 22         0.00070
       8 <- 27        -0.00040
       8 <- 33         0.00238
       8 <- 37        -0.00164
       8 <- 43         0.00012
       8 <- 52         0.00021

 Excited State   6:      Singlet-B2     9.4597 eV  131.07 nm  f=0.1190  <S**2>=0.000
       3 -> 11        -0.00037
       3 -> 16         0.00081
       3 -> 19        -0.00076
       3 -> 23         0.00043
       3 -> 24         0.00028
       3 -> 29         0.00071
       3 -> 32        -0.00058
       3 -> 40         0.00039
       3 -> 42         0.00033
       3 -> 47         0.00023
       4 ->  9        -0.00475
       4 -> 12         0.00539
       4 -> 14         0.01175
       4 -> 15         0.00024
       4 -> 18         0.00232
       4 -> 20         0.00724
       4 -> 21         0.00878
       4 -> 25         0.00356
       4 -> 26         0.00028
       4 -> 30         0.00218

 The electronic state is 1-A1.
 Alpha  occ. eigenvalues --  -19.15028 -10.24992  -1.32148  -0.68635  -0.64790
 Alpha  occ. eigenvalues --   -0.58050  -0.54370  -0.22186
 Alpha virt. eigenvalues --    0.01250   0.02647   0.04439   0.04537   0.11816
 Alpha virt. eigenvalues --    0.14414   0.17643   0.19602   0.21726   0.24921
 Alpha virt. eigenvalues --    0.25047   0.36536   0.50544   0.54855   0.55978

 Mulliken charges:
               1
     1  C    0.319578
     2  H   -0.049309
     3  H   -0.049309
     4  O   -0.220960
 Sum of Mulliken charges =   0.00000

 Dipole moment (field-independent basis, Debye):
    X=              0.0000    Y=              0.0000    Z=              0.3304  Tot=              0.3304
 Quadrupole moment (field-independent basis, Debye-Ang):
   XX=            -10.4822   YY=            -12.9095   ZZ=            -13.4544
   XY=             -0.0000   XZ=             -0.0000   YZ=              0.0000

 Normal termination of Gaussian 16 at Fri Sep 17 10:52:25 2021.
