 Gaussian 16, Revision A.03,
 Gaussian 16:  ES64L-G16RevA.03 25-Dec-2016

 --------------------------------------------------------------------
 #p B3LYP/6-311+G** #p TD=(singlets,nstates=30)IOp(6/8=3) IOp(9/40=4)
 --------------------------------------------------------------------

 -------------------------------
 Scan Step 212, Bond Length 1.56
 -------------------------------
 Symbolic Z-matrix:
 Charge =  0 Multiplicity = 1

                         Standard orientation:
 ---------------------------------------------------------------------
 Center     Atomic      Atomic             Coordinates (Angstroms)
 Number     Number       Type             X           Y           Z
 ---------------------------------------------------------------------
      1          6           0        0.000000    0.000000   -0.706081
      2          1           0        0.000000    0.937260   -1.297431
      3          1           0       -0.000000   -0.937260   -1.297431
      4          8           0        0.000000    0.000000    0.853919
 ---------------------------------------------------------------------

 SCF Done:  E(RB3LYP) =  -114.442851587     A.U. after   10 cycles

 Excitation energies and oscillator strengths:

 Excited State   1:      Singlet-A2     2.1375 eV  580.03 nm  f=0.0000  <S**2>=0.000
       3 -> 27         0.00129
       3 -> 38         0.00097
       3 -> 46         0.00325
       4 -> 27         0.00078
       4 -> 38        -0.00016
       4 -> 46        -0.00134
       5 ->  9         0.00877
       5 -> 13         0.00081
       5 -> 18         0.00314
       5 -> 23         0.00160
       5 -> 28         0.00276
       5 -> 31        -0.00024
       5 -> 37         0.00154
       5 -> 44         0.00036
       5 -> 52         0.00038
       6 -> 27        -0.00062
       6 -> 38        -0.00080
       6 -> 46         0.00140
       7 -> 12        -0.00086
       7 -> 16         0.00461
       7 -> 19        -0.00393
       7 -> 22        -0.00068
       7 -> 25         0.00101
       7 -> 30        -0.00147
       7 -> 33         0.00038
       7 -> 49         0.00013
       7 -> 50         0.00018
       7 -> 53         0.00045
       8 ->  9         0.70822
       8 -> 13        -0.01480
       8 -> 18         0.02175
       8 -> 23        -0.00401
       8 -> 28         0.01107
       8 -> 31         0.00086
       8 -> 37         0.00065
       8 -> 48        -0.00031
       8 -> 52         0.00194
       3 <- 27         0.00063
       3 <- 38         0.00069
       3 <- 46         0.00331
       4 <- 27         0.00133
       4 <- 38         0.00023
       4 <- 46        -0.00108
       5 <-  9        -0.00033
       5 <- 13        -0.00055
       5 <- 18        -0.00073
       5 <- 23         0.00030
       5 <- 28        -0.00051
       5 <- 31         0.00038
       5 <- 37         0.00085
       5 <- 44         0.00012
       6 <- 38        -0.00066
       6 <- 46         0.00109
       7 <- 12         0.00046
       7 <- 16        -0.00988
       7 <- 19         0.00340
       7 <- 22         0.00705
       7 <- 25         0.00050
       7 <- 30         0.00516
       7 <- 33        -0.00058
       7 <- 36         0.00098
       7 <- 40         0.00055
       7 <- 42         0.00013
       7 <- 49        -0.00036
       7 <- 50         0.00011
       7 <- 53         0.00146
       8 <-  9        -0.04812
       8 <- 13         0.00066
       8 <- 18        -0.00637
       8 <- 23         0.00025
       8 <- 28        -0.00227
       8 <- 31        -0.00060
       8 <- 37        -0.00052
       8 <- 52         0.00052
 This state for optimization and/or second-order correction.
 Total Energy, E(TD-HF/TD-DFT) =  -114.364298470
 Copying the excited state density for this state as the 1-particle RhoCI density.

 Excited State   2:      Singlet-A1     5.4533 eV  227.36 nm  f=0.0863  <S**2>=0.000
       3 -> 10        -0.01290
       3 -> 11        -0.01594
       3 -> 14         0.01284
       3 -> 15         0.01029
       3 -> 17        -0.00361
       3 -> 20        -0.00368
       3 -> 21        -0.00173
       3 -> 24         0.00302
       3 -> 26         0.00464
       3 -> 29        -0.00097
       3 -> 32         0.00278
       3 -> 34         0.00293
       3 -> 35        -0.00066
       3 -> 39         0.00092
       3 -> 43         0.00043
       3 -> 45        -0.00029
       3 -> 47         0.00220
       3 -> 51         0.00090
       3 -> 54         0.00023
       4 -> 10        -0.01519
       4 -> 11         0.01136
       4 -> 14         0.00797
       4 -> 15        -0.00936
       4 -> 17         0.00322
       4 -> 20         0.00611
       4 -> 21         0.00040
       4 -> 24        -0.00544
       4 -> 26         0.00535
       4 -> 29         0.00114
       4 -> 32        -0.00129
       4 -> 34        -0.00203
       4 -> 35         0.00026
       4 -> 39        -0.00013
       4 -> 41         0.00014
       4 -> 43        -0.00039
       4 -> 45        -0.00067
       4 -> 47        -0.00140
       4 -> 51        -0.00030
       5 -> 12         0.01933
       5 -> 16         0.01376
       5 -> 19         0.00154
       5 -> 22         0.00703
       5 -> 25         0.00914
       5 -> 30        -0.00059
       5 -> 33        -0.00318
       5 -> 36         0.00268
       5 -> 40         0.00154
       5 -> 42         0.00062
       5 -> 49         0.00052
       5 -> 50        -0.00064
       5 -> 53        -0.00017
       6 -> 10         0.10629
       6 -> 11         0.11199
       6 -> 14        -0.09300
       6 -> 15        -0.08821
       6 -> 17        -0.02050
       6 -> 20        -0.01448
       6 -> 21         0.01614
       6 -> 24        -0.01581
       6 -> 26        -0.00783
       6 -> 29        -0.00860
       6 -> 32         0.00046
       6 -> 34         0.00161
       6 -> 35        -0.00103
       6 -> 39         0.00072
       6 -> 41        -0.00050
       6 -> 43         0.00076
       6 -> 45         0.00068
       6 -> 47         0.00143
       6 -> 51         0.00084
       6 -> 54        -0.00058
       7 ->  9         0.68520
       7 -> 13         0.00365
       7 -> 18        -0.02026
       7 -> 23         0.00103
       7 -> 28        -0.00210
       7 -> 31        -0.00287
       7 -> 37         0.00074
       7 -> 44        -0.00106
       7 -> 48         0.00047
       7 -> 52         0.00104
       8 -> 12        -0.00649
       8 -> 16         0.07928
       8 -> 19        -0.02524
       8 -> 22        -0.03028
       8 -> 25         0.00096
       8 -> 30        -0.01287
       8 -> 33         0.00274
       8 -> 36        -0.00339
       8 -> 40        -0.00159
       8 -> 42        -0.00034
       8 -> 49         0.00064
       8 -> 50         0.00026
       8 -> 53        -0.00076
       3 <- 10        -0.00831
       3 <- 11        -0.01082
       3 <- 14         0.00931
       3 <- 15         0.00695
       3 <- 17        -0.00182
       3 <- 20        -0.00254
       3 <- 21        -0.00192
       3 <- 24         0.00195
       3 <- 26         0.00284
       3 <- 29        -0.00056
       3 <- 32         0.00255
       3 <- 34         0.00193
       3 <- 35        -0.00059
       3 <- 39         0.00079
       3 <- 41         0.00010
       3 <- 43         0.00051
       3 <- 45        -0.00010
       3 <- 47         0.00235
       3 <- 51         0.00087
       3 <- 54         0.00032
       4 <- 10        -0.00746
       4 <- 11         0.00693
       4 <- 14         0.00391
       4 <- 15        -0.00550
       4 <- 17         0.00156
       4 <- 20         0.00480
       4 <- 21         0.00031
       4 <- 24        -0.00361
       4 <- 26         0.00412
       4 <- 29         0.00030
       4 <- 32        -0.00162
       4 <- 34        -0.00179
       4 <- 35         0.00047
       4 <- 39        -0.00020
       4 <- 43        -0.00038
       4 <- 45        -0.00085
       4 <- 47        -0.00100
       4 <- 51        -0.00014
       5 <- 12         0.00807
       5 <- 16         0.00666
       5 <- 19         0.00104
       5 <- 22         0.00420
       5 <- 25         0.00601
       5 <- 30        -0.00027
       5 <- 33        -0.00243
       5 <- 36         0.00216
       5 <- 40         0.00133
       5 <- 42         0.00050
       5 <- 49         0.00045
       5 <- 50        -0.00058
       5 <- 53        -0.00015
       6 <- 10         0.02968
       6 <- 11         0.03342
       6 <- 14        -0.03481
       6 <- 15        -0.03587
       6 <- 17        -0.00942
       6 <- 20        -0.00842
       6 <- 21         0.00903
       6 <- 24        -0.00939
       6 <- 26        -0.00460
       6 <- 29        -0.00578
       6 <- 32         0.00094
       6 <- 34         0.00193
       6 <- 35        -0.00100
       6 <- 39         0.00082
       6 <- 41        -0.00034
       6 <- 43         0.00066
       6 <- 45         0.00069
       6 <- 47         0.00094
       6 <- 51         0.00066
       6 <- 54        -0.00048
       7 <-  9        -0.12095
       7 <- 13         0.00837
       7 <- 18        -0.01422
       7 <- 23         0.00419
       7 <- 28        -0.00434
       7 <- 31        -0.00125
       7 <- 37         0.00021
       7 <- 44        -0.00059
       7 <- 48        -0.00012
       7 <- 52         0.00090
       8 <- 12        -0.00129
       8 <- 16         0.02558
       8 <- 19        -0.01002
       8 <- 22        -0.01563
       8 <- 25         0.00027
       8 <- 30        -0.00905
       8 <- 33         0.00201
       8 <- 36        -0.00255
       8 <- 40        -0.00127
       8 <- 42        -0.00027
       8 <- 49         0.00043
       8 <- 50         0.00021
       8 <- 53        -0.00069

 Excited State   3:      Singlet-B1     5.7071 eV  217.25 nm  f=0.0015  <S**2>=0.000
       3 ->  9        -0.02995
       3 -> 13         0.00199
       3 -> 18        -0.00497
       3 -> 23         0.00199
       3 -> 28        -0.00108
       3 -> 31        -0.00048
       3 -> 44         0.00027
       3 -> 48         0.00090
       3 -> 52         0.00100
       4 ->  9         0.01415
       4 -> 13        -0.00269
       4 -> 18         0.00034
       4 -> 23        -0.00245
       4 -> 28         0.00022
       4 -> 31        -0.00162
       4 -> 37        -0.00043
       4 -> 44         0.00012
       4 -> 48        -0.00119
       4 -> 52        -0.00064
       5 -> 27        -0.00032
       5 -> 38         0.00201
       5 -> 46         0.00109
       6 ->  9         0.70575
       6 -> 13        -0.02123
       6 -> 18         0.01749
       6 -> 23        -0.01118
       6 -> 28         0.00460
       6 -> 31         0.00346
       6 -> 37        -0.00227
       6 -> 44        -0.00301
       6 -> 48         0.00433
       6 -> 52         0.00153
       7 -> 10         0.02241
       7 -> 11         0.02124
       7 -> 14        -0.01394
       7 -> 15        -0.00798
       7 -> 17        -0.00944
       7 -> 20         0.00270
       7 -> 21        -0.00018
       7 -> 24        -0.00032
       7 -> 26        -0.00127
       7 -> 29        -0.00404
       7 -> 32        -0.00076
       7 -> 34         0.00048
       7 -> 35         0.00184
       7 -> 39         0.00013
       7 -> 41        -0.00070
       7 -> 43         0.00059
       7 -> 45        -0.00101
       7 -> 47         0.00433
       7 -> 51         0.00117
       7 -> 54         0.00047
       8 -> 27         0.00070
       8 -> 38         0.00017
       8 -> 46         0.00558
       3 <-  9        -0.00996
       3 <- 13        -0.00051
       3 <- 18        -0.00300
       3 <- 23        -0.00048
       3 <- 28        -0.00071
       3 <- 31        -0.00064
       3 <- 44        -0.00027
       3 <- 48         0.00109
       3 <- 52         0.00079
       4 <-  9         0.00669
       4 <- 13        -0.00019
       4 <- 18         0.00206
       4 <- 23        -0.00053
       4 <- 28         0.00175
       4 <- 31        -0.00112
       4 <- 37        -0.00019
       4 <- 44         0.00012
       4 <- 48        -0.00103
       4 <- 52        -0.00037
       5 <- 27        -0.00083
       5 <- 38         0.00161
       5 <- 46         0.00097
       6 <-  9        -0.02427
       6 <- 13         0.00173
       6 <- 18        -0.00316
       6 <- 23        -0.00027
       6 <- 28        -0.00326
       6 <- 31         0.00144
       6 <- 37        -0.00201
       6 <- 44        -0.00169
       6 <- 48         0.00387
       6 <- 52         0.00054
       7 <- 10        -0.01067
       7 <- 11        -0.01183
       7 <- 14         0.01275
       7 <- 15         0.01485
       7 <- 17         0.00113
       7 <- 20         0.00533
       7 <- 21        -0.00467
       7 <- 24         0.00461
       7 <- 26         0.00187
       7 <- 29         0.00094
       7 <- 32        -0.00038
       7 <- 34         0.00022
       7 <- 35         0.00285
       7 <- 39         0.00041
       7 <- 41        -0.00033
       7 <- 43         0.00047
       7 <- 45        -0.00108
       7 <- 47         0.00392
       7 <- 51         0.00099
       7 <- 54         0.00109
       8 <- 27         0.00112
       8 <- 38         0.00035
       8 <- 46         0.00516

 Excited State   4:      Singlet-B2     6.4374 eV  192.60 nm  f=0.0176  <S**2>=0.000
       3 -> 12        -0.00164
       3 -> 16         0.00169
       3 -> 19        -0.00414
       3 -> 22         0.00035
       3 -> 30        -0.00309
       3 -> 33        -0.00035
       3 -> 36         0.00204
       3 -> 40         0.00161
       3 -> 42         0.00017
       3 -> 49        -0.00222
       3 -> 50         0.00022
       3 -> 53         0.00026
       4 -> 12         0.00050
       4 -> 16        -0.00288
       4 -> 19        -0.00029
       4 -> 22         0.00339
       4 -> 25        -0.00245
       4 -> 30         0.00133
       4 -> 33        -0.00045
       4 -> 36         0.00048
       4 -> 40        -0.00051
       4 -> 49         0.00032
       5 -> 10         0.00234
       5 -> 11         0.00542
       5 -> 14        -0.01432
       5 -> 15         0.00111
       5 -> 17         0.00126
       5 -> 20         0.00179
       5 -> 21         0.00667
       5 -> 24         0.00188
       5 -> 26        -0.00207
       5 -> 29        -0.00194
       5 -> 32        -0.00103
       5 -> 34        -0.00133
       5 -> 35        -0.00062
       5 -> 39        -0.00090
       5 -> 41         0.00081
       5 -> 45         0.00025
       5 -> 47        -0.00081
       5 -> 51         0.00049
       5 -> 54        -0.00023
       6 -> 12         0.00345
       6 -> 16        -0.00134
       6 -> 19         0.00245
       6 -> 22         0.00018
       6 -> 25        -0.00076
       6 -> 30        -0.00054
       6 -> 33         0.00044
       6 -> 36        -0.00218
       6 -> 40        -0.00167
       6 -> 42        -0.00027
       6 -> 49         0.00141
       6 -> 53        -0.00030
       7 -> 27        -0.00058
       7 -> 38         0.00097
       7 -> 46         0.00331
       8 -> 10         0.63053
       8 -> 11         0.28971
       8 -> 14        -0.11269
       8 -> 15        -0.07473
       8 -> 17        -0.01022
       8 -> 20        -0.00395
       8 -> 21         0.00518
       8 -> 24        -0.00558
       8 -> 26        -0.00550
       8 -> 29        -0.00857
       8 -> 32        -0.00224
       8 -> 34        -0.00151
       8 -> 35        -0.00066
       8 -> 39        -0.00050
       8 -> 41         0.00041
       8 -> 43        -0.00057
       8 -> 45         0.00210
       8 -> 47        -0.00361
       8 -> 51         0.00203
       8 -> 54        -0.00130
       3 <- 12        -0.00057
       3 <- 16         0.00038
       3 <- 19        -0.00194
       3 <- 22         0.00084
       3 <- 25         0.00018
       3 <- 30        -0.00123
       3 <- 33        -0.00031
       3 <- 36         0.00162
       3 <- 40         0.00145
       3 <- 42         0.00015
       3 <- 49        -0.00229
       3 <- 50         0.00018
       3 <- 53         0.00075
       4 <- 12        -0.00037
       4 <- 16        -0.00245
       4 <- 19        -0.00049
       4 <- 22         0.00280
       4 <- 25        -0.00150
       4 <- 30         0.00110
       4 <- 33        -0.00054
       4 <- 36         0.00067
       4 <- 40        -0.00015
       4 <- 42         0.00015
       4 <- 49         0.00024
       5 <- 10         0.00105
       5 <- 11        -0.00149
       5 <- 14        -0.00277
       5 <- 15         0.00366
       5 <- 17         0.00025
       5 <- 20         0.00037
       5 <- 21         0.00206
       5 <- 24         0.00276
       5 <- 26        -0.00073
       5 <- 29        -0.00050
       5 <- 32         0.00030
       5 <- 34        -0.00041
       5 <- 39        -0.00029
       5 <- 41         0.00078
       5 <- 43         0.00013
       5 <- 45         0.00054
       5 <- 47        -0.00060
       5 <- 51         0.00026
       6 <- 12         0.00017
       6 <- 16         0.00448
       6 <- 19        -0.00203
       6 <- 22        -0.00319
       6 <- 25        -0.00036
       6 <- 30        -0.00391
       6 <- 33         0.00068
       6 <- 36        -0.00216
       6 <- 40        -0.00163
       6 <- 42        -0.00032
       6 <- 49         0.00147
       6 <- 53        -0.00086
       7 <- 27        -0.00058
       7 <- 38         0.00075
       7 <- 46         0.00271
       8 <- 10        -0.00896
       8 <- 11        -0.01055
       8 <- 14         0.01050
       8 <- 15         0.00587
       8 <- 17         0.00022
       8 <- 20        -0.00197
       8 <- 21        -0.00235
       8 <- 24         0.00093
       8 <- 26         0.00201
       8 <- 29        -0.00082
       8 <- 32         0.00184
       8 <- 34         0.00135
       8 <- 39         0.00130
       8 <- 41         0.00060
       8 <- 43         0.00012
       8 <- 45         0.00252
       8 <- 47        -0.00251
       8 <- 51         0.00119
       8 <- 54        -0.00031

 Excited State   5:      Singlet-B2     7.0957 eV  174.73 nm  f=0.0037  <S**2>=0.000
       3 -> 12         0.00134
       3 -> 16         0.00168
       3 -> 19        -0.00119
       3 -> 22        -0.00039
       3 -> 25         0.00097
       3 -> 30        -0.00267
       3 -> 36         0.00067
       3 -> 40         0.00060
       3 -> 49        -0.00087
       4 -> 12        -0.00142
       4 -> 16         0.00037
       4 -> 19         0.00090
       4 -> 22        -0.00061
       4 -> 25         0.00043
       4 -> 30         0.00142
       4 -> 33        -0.00023
       4 -> 36         0.00042
       4 -> 50        -0.00012
       5 -> 10         0.00812
       5 -> 11        -0.00119
       5 -> 14         0.00013
       5 -> 15         0.00596
       5 -> 17         0.00129
       5 -> 20         0.00213
       5 -> 21         0.00071
       5 -> 24        -0.00022
       5 -> 26        -0.00056
       5 -> 29        -0.00062
       5 -> 32        -0.00158
       5 -> 34         0.00017
       5 -> 35        -0.00044
       5 -> 39        -0.00067
       5 -> 43        -0.00035
       5 -> 45         0.00038
       5 -> 47        -0.00046
       5 -> 51         0.00032
       6 -> 12        -0.00105
       6 -> 16        -0.00025
       6 -> 19         0.00062
       6 -> 22        -0.00106
       6 -> 25         0.00011
       6 -> 30        -0.00092
       6 -> 36        -0.00034
       6 -> 40        -0.00078
       6 -> 42        -0.00022
       6 -> 49         0.00139
       6 -> 50        -0.00012
       6 -> 53        -0.00013
       7 -> 27        -0.00067
       7 -> 38        -0.00011
       7 -> 46         0.00206
       8 -> 10        -0.30138
       8 -> 11         0.63755
       8 -> 14        -0.01804
       8 -> 15        -0.04496
       8 -> 17        -0.00614
       8 -> 20         0.01536
       8 -> 21         0.00414
       8 -> 24        -0.00386
       8 -> 26         0.00105
       8 -> 29        -0.00355
       8 -> 32        -0.00058

 The electronic state is 1-A1.
 Alpha  occ. eigenvalues --  -19.17057 -10.32306  -0.93842  -0.69242  -0.48823
 Alpha  occ. eigenvalues --   -0.42081  -0.33633  -0.28993
 Alpha virt. eigenvalues --   -0.13905  -0.00798   0.01717   0.04101   0.06139
 Alpha virt. eigenvalues --    0.09817   0.13668   0.14715   0.18950   0.21478
 Alpha virt. eigenvalues --    0.23941   0.30113   0.39353   0.41519   0.50963

 Mulliken charges:
               1
     1  C   -0.053322
     2  H    0.175172
     3  H    0.175172
     4  O   -0.297022
 Sum of Mulliken charges =  -0.00000

 Dipole moment (field-independent basis, Debye):
    X=             -0.0000    Y=             -0.0000    Z=             -3.6653  Tot=              3.6653
 Quadrupole moment (field-independent basis, Debye-Ang):
   XX=            -12.6569   YY=            -11.8601   ZZ=            -11.4314
   XY=              0.0000   XZ=              0.0000   YZ=             -0.0000

 Normal termination of Gaussian 16 at Fri Sep 17 10:52:59 2021.
