 Gaussian 16, Revision A.03,
 Gaussian 16:  ES64L-G16RevA.03 25-Dec-2016

 --------------------------------------------------------------------
 #p B3LYP/6-311+G** #p TD=(singlets,nstates=30)IOp(6/8=3) IOp(9/40=4)
 --------------------------------------------------------------------

 ------------------------------
 Scan Step 54, Bond Length 0.77
 ------------------------------
 Symbolic Z-matrix:
 Charge =  0 Multiplicity = 1

                         Standard orientation:
 ---------------------------------------------------------------------
 Center     Atomic      Atomic             Coordinates (Angstroms)
 Number     Number       Type             X           Y           Z
 ---------------------------------------------------------------------
      1          6           0        0.000000    0.000000   -0.311081
      2          1           0        0.000000    0.937260   -0.902431
      3          1           0       -0.000000   -0.937260   -0.902431
      4          8           0        0.000000    0.000000    0.458919
 ---------------------------------------------------------------------

 SCF Done:  E(RB3LYP) =  -113.654437638     A.U. after    9 cycles

 Excitation energies and oscillator strengths:

 Excited State   1:      Singlet-B2     5.3091 eV  233.53 nm  f=0.1068  <S**2>=0.000
       3 -> 11        -0.00078
       3 -> 16        -0.00044
       3 -> 19        -0.00084
       3 -> 23        -0.00021
       3 -> 24         0.00102
       3 -> 29         0.00022
       3 -> 32         0.00011
       3 -> 40        -0.00012
       3 -> 43        -0.00018
       3 -> 50         0.00014
       3 -> 53        -0.00012
       4 ->  9         0.00276
       4 -> 12        -0.00451
       4 -> 14        -0.00424
       4 -> 15        -0.00163
       4 -> 18        -0.00342
       4 -> 20        -0.00175
       4 -> 21        -0.00209
       4 -> 25        -0.00150
       4 -> 26         0.00084
       4 -> 30         0.00122
       4 -> 31        -0.00129
       4 -> 34        -0.00045
       4 -> 38        -0.00078
       4 -> 41         0.00052
       4 -> 44         0.00037
       4 -> 46         0.00070
       4 -> 48        -0.00030
       5 -> 28        -0.00146
       5 -> 35        -0.00058
       5 -> 45        -0.00086
       6 -> 11         0.00704
       6 -> 16        -0.00191
       6 -> 19        -0.00049
       6 -> 23         0.00171
       6 -> 24         0.00436
       6 -> 29         0.00088
       6 -> 32         0.00105
       6 -> 36        -0.00070
       6 -> 43        -0.00036
       6 -> 47        -0.00011
       7 -> 11        -0.00423
       7 -> 16        -0.00404
       7 -> 19        -0.00296
       7 -> 23         0.00106
       7 -> 24         0.00219
       7 -> 29        -0.00048
       7 -> 32        -0.00030
       7 -> 36         0.00047
       7 -> 43         0.00039
       7 -> 47        -0.00046
       7 -> 50        -0.00046
       7 -> 53         0.00011
       8 ->  9         0.70591
       8 -> 12        -0.00106
       8 -> 14         0.03521
       8 -> 15        -0.00957
       8 -> 18        -0.02143
       8 -> 20         0.00629
       8 -> 21         0.00927
       8 -> 25        -0.00038
       8 -> 26         0.00011
       8 -> 30        -0.00099
       8 -> 31        -0.00323
       8 -> 34        -0.00126
       8 -> 38         0.00106
       8 -> 39         0.00035
       8 -> 41        -0.00066
       8 -> 44         0.00016
       8 -> 46         0.00094
       8 -> 48        -0.00034
       8 -> 54         0.00011
       3 <- 11        -0.00029
       3 <- 16        -0.00011
       3 <- 19        -0.00054
       3 <- 23        -0.00013
       3 <- 24         0.00077
       3 <- 29         0.00020
       3 <- 32         0.00012
       3 <- 40        -0.00013
       3 <- 43        -0.00017
       3 <- 53        -0.00013
       4 <-  9         0.00164
       4 <- 12         0.00023
       4 <- 14        -0.00344
       4 <- 15        -0.00189
       4 <- 18        -0.00082
       4 <- 20        -0.00086
       4 <- 21        -0.00147
       4 <- 25        -0.00150
       4 <- 26         0.00126
       4 <- 30         0.00042
       4 <- 31        -0.00046
       4 <- 34        -0.00027
       4 <- 38        -0.00049
       4 <- 39        -0.00017
       4 <- 41         0.00045
       4 <- 44         0.00028
       4 <- 46         0.00063
       4 <- 48        -0.00024
       5 <- 28        -0.00117
       5 <- 35        -0.00046
       5 <- 45        -0.00073
       6 <- 11         0.00068
       6 <- 16        -0.00202
       6 <- 19        -0.00159
       6 <- 23         0.00082
       6 <- 24         0.00336
       6 <- 29         0.00065
       6 <- 32         0.00084
       6 <- 36        -0.00058
       6 <- 40         0.00011
       6 <- 43        -0.00020
       7 <- 11        -0.00091
       7 <- 16        -0.00230
       7 <- 19        -0.00061
       7 <- 23         0.00040
       7 <- 24         0.00097
       7 <- 29        -0.00108
       7 <- 32        -0.00018
       7 <- 36         0.00019
       7 <- 43         0.00030
       7 <- 47        -0.00046
       7 <- 50        -0.00053
       8 <-  9        -0.00618
       8 <- 12        -0.00368
       8 <- 14         0.01656
       8 <- 15         0.00423
       8 <- 18         0.00139
       8 <- 21         0.00473
       8 <- 25         0.00316
       8 <- 26         0.00050
       8 <- 30        -0.00079
       8 <- 31        -0.00190
       8 <- 34        -0.00148
       8 <- 38         0.00102
       8 <- 39         0.00029
       8 <- 41        -0.00050
       8 <- 46         0.00075
       8 <- 48        -0.00028
 This state for optimization and/or second-order correction.
 Total Energy, E(TD-HF/TD-DFT) =  -113.459333567
 Copying the excited state density for this state as the 1-particle RhoCI density.

 Excited State   2:      Singlet-A2     5.4769 eV  226.37 nm  f=0.0000  <S**2>=0.000
       3 -> 28         0.00219
       3 -> 35         0.00154
       3 -> 45         0.00066
       4 -> 10         0.00207
       4 -> 13         0.00407
       4 -> 17         0.00495
       4 -> 22        -0.00272
       4 -> 27         0.00251
       4 -> 33         0.00056
       4 -> 37         0.00225
       4 -> 42         0.00029
       4 -> 49         0.00011
       4 -> 52         0.00043
       5 -> 11        -0.00041
       5 -> 16        -0.00011
       5 -> 19        -0.00038
       5 -> 23         0.00128
       5 -> 32         0.00017
       5 -> 36         0.00041
       5 -> 43         0.00044
       5 -> 47         0.00049
       5 -> 50        -0.00019
       5 -> 53         0.00015
       6 -> 28         0.00368
       6 -> 35        -0.00057
       6 -> 45        -0.00031
       7 -> 28         0.00036
       7 -> 45         0.00068
       8 -> 10         0.70332
       8 -> 13         0.06678
       8 -> 17         0.03001
       8 -> 22        -0.00015
       8 -> 27         0.00310
       8 -> 33         0.00319
       8 -> 37        -0.00227
       8 -> 49         0.00010
       8 -> 52         0.00055
       3 <- 28         0.00173
       3 <- 35         0.00133
       3 <- 45         0.00066
       4 <- 10         0.00018
       4 <- 13         0.00100
       4 <- 17         0.00055
       4 <- 27         0.00021
       4 <- 33        -0.00090
       4 <- 37         0.00113
       4 <- 42         0.00034
       4 <- 52         0.00010
       5 <- 11        -0.00077
       5 <- 16         0.00081
       5 <- 19        -0.00219
       5 <- 23         0.00242
       5 <- 24         0.00159
       5 <- 29         0.00143
       5 <- 32        -0.00044
       5 <- 36         0.00115
       5 <- 43         0.00057
       5 <- 47         0.00043
       5 <- 53         0.00041
       6 <- 28         0.00379
       6 <- 35        -0.00064
       6 <- 45        -0.00032
       7 <- 28         0.00027
       7 <- 45         0.00061
       8 <- 10        -0.00168
       8 <- 13        -0.00748
       8 <- 17        -0.00504
       8 <- 22         0.00025
       8 <- 27        -0.00040
       8 <- 33         0.00301
       8 <- 37        -0.00189
       8 <- 42         0.00011
       8 <- 52         0.00018

 Excited State   3:      Singlet-B2     6.1514 eV  201.56 nm  f=0.0280  <S**2>=0.000
       3 -> 11         0.00011
       3 -> 16        -0.00054
       3 -> 19         0.00020
       3 -> 23        -0.00024
       3 -> 24         0.00043
       3 -> 29        -0.00064
       3 -> 32        -0.00013
       3 -> 36         0.00025
       3 -> 43         0.00026
       3 -> 47        -0.00018
       3 -> 50        -0.00016
       3 -> 53         0.00014
       4 ->  9        -0.00311
       4 -> 12        -0.00032
       4 -> 14        -0.00185
       4 -> 15        -0.00339
       4 -> 18         0.00220
       4 -> 20         0.00014
       4 -> 21        -0.00141
       4 -> 25        -0.00082
       4 -> 26        -0.00093
       4 -> 30         0.00127
       4 -> 31         0.00197
       4 -> 34         0.00020
       4 -> 38         0.00010
       4 -> 39         0.00093
       4 -> 41        -0.00043
       4 -> 46        -0.00061
       4 -> 48         0.00025
       4 -> 51         0.00014
       5 -> 28         0.00097
       5 -> 35         0.00131
       5 -> 45         0.00085
       6 -> 11        -0.00140
       6 -> 16        -0.00503
       6 -> 19         0.00015
       6 -> 23         0.00074
       6 -> 24         0.00357
       6 -> 29         0.00162
       6 -> 32        -0.00053
       6 -> 36        -0.00022
       6 -> 40         0.00033
       6 -> 43        -0.00016
       7 -> 11         0.00275
       7 -> 16         0.00163
       7 -> 19         0.00221
       7 -> 23        -0.00112
       7 -> 24        -0.00150
       7 -> 32         0.00026
       7 -> 36        -0.00096
       7 -> 40         0.00025
       7 -> 43        -0.00045
       7 -> 47         0.00066
       7 -> 50         0.00047
       7 -> 53        -0.00018
       8 ->  9         0.00073
       8 -> 12         0.70594
       8 -> 14         0.02385
       8 -> 15         0.02614
       8 -> 18         0.01258
       8 -> 20         0.01576
       8 -> 21         0.00442
       8 -> 25        -0.00066
       8 -> 26         0.00122
       8 -> 30        -0.00205
       8 -> 31        -0.00066
       8 -> 34        -0.00032
       8 -> 39         0.00122
       8 -> 41        -0.00096
       8 -> 46        -0.00064
       8 -> 48         0.00030
       8 -> 54        -0.00015
       3 <- 11        -0.00014
       3 <- 16        -0.00055
       3 <- 24         0.00048
       3 <- 29        -0.00043
       3 <- 32        -0.00014
       3 <- 36         0.00027
       3 <- 43         0.00023
       3 <- 47        -0.00013
       3 <- 53         0.00022
       4 <-  9         0.00132
       4 <- 14        -0.00156
       4 <- 15        -0.00068
       4 <- 18        -0.00064
       4 <- 20         0.00041
       4 <- 21        -0.00097
       4 <- 25        -0.00094
       4 <- 26        -0.00086
       4 <- 30         0.00111
       4 <- 31         0.00085
       4 <- 34         0.00072
       4 <- 39         0.00071
       4 <- 41        -0.00043
       4 <- 46        -0.00060
       4 <- 48         0.00015
       4 <- 51         0.00013
       5 <- 28         0.00053
       5 <- 35         0.00111
       5 <- 45         0.00074
       6 <- 16        -0.00117
       6 <- 19        -0.00084
       6 <- 23         0.00103
       6 <- 24         0.00213
       6 <- 29         0.00090
       6 <- 32        -0.00062
       6 <- 36        -0.00041
       6 <- 40         0.00032
       7 <- 11         0.00033
       7 <- 16         0.00073
       7 <- 19         0.00032
       7 <- 23        -0.00033
       7 <- 24        -0.00056
       7 <- 29         0.00044
       7 <- 36        -0.00060
       7 <- 40         0.00019
       7 <- 43        -0.00032
       7 <- 47         0.00058
       7 <- 50         0.00049
       8 <-  9        -0.00339
       8 <- 12         0.00135
       8 <- 14         0.00895
       8 <- 15         0.00292
       8 <- 18        -0.00138
       8 <- 20        -0.00257
       8 <- 21         0.00314
       8 <- 25         0.00061
       8 <- 26        -0.00038
       8 <- 30        -0.00174
       8 <- 31        -0.00088
       8 <- 38        -0.00015
       8 <- 39         0.00098
       8 <- 41        -0.00082
       8 <- 46        -0.00052
       8 <- 48         0.00016

 Excited State   4:      Singlet-A1     6.2983 eV  196.85 nm  f=0.0242  <S**2>=0.000
       3 ->  9        -0.00122
       3 -> 12         0.00062
       3 -> 15         0.00063
       3 -> 18         0.00138
       3 -> 21        -0.00056
       3 -> 25         0.00041
       3 -> 26         0.00018
       3 -> 30        -0.00100
       3 -> 34        -0.00029
       3 -> 38         0.00031
       3 -> 39        -0.00031
       3 -> 51        -0.00023
       3 -> 54         0.00018
       4 -> 11         0.00677
       4 -> 16         0.00769
       4 -> 19         0.00493
       4 -> 23         0.00177
       4 -> 24        -0.00354
       4 -> 29         0.00069
       4 -> 32        -0.00013
       4 -> 36         0.00102
       4 -> 43        -0.00028
       4 -> 50        -0.00030
       5 -> 10         0.00516
       5 -> 13        -0.00269
       5 -> 17         0.00444
       5 -> 22         0.00349
       5 -> 27         0.00100
       5 -> 33         0.00093
       5 -> 37         0.00056
       5 -> 42         0.00029
       5 -> 49        -0.00032
       6 ->  9        -0.00745
       6 -> 12        -0.01055
       6 -> 14         0.00578
       6 -> 15         0.00388
       6 -> 18         0.00310
       6 -> 20        -0.00680
       6 -> 21         0.00059
       6 -> 25         0.00666
       6 -> 26        -0.00122
       6 -> 30         0.00086
       6 -> 31        -0.00120
       6 -> 34        -0.00145
       6 -> 38         0.00077
       6 -> 39         0.00120
       6 -> 44        -0.00043
       6 -> 46        -0.00015
       6 -> 48        -0.00040
       7 ->  9        -0.01144
       7 -> 12         0.00747
       7 -> 14         0.00077
       7 -> 15        -0.00168
       7 -> 18         0.00875
       7 -> 25         0.00073
       7 -> 26         0.00115
       7 -> 30        -0.00032
       7 -> 31         0.00110
       7 -> 34        -0.00084
       7 -> 48        -0.00019
       7 -> 51         0.00028
       8 -> 11         0.70515
       8 -> 16         0.04712
       8 -> 19        -0.01348
       8 -> 23         0.00114
       8 -> 24        -0.00327
       8 -> 29         0.00411
       8 -> 32         0.00171
       8 -> 36        -0.00290
       8 -> 40         0.00023
       8 -> 43         0.00168
       8 -> 47        -0.00064
       3 <-  9        -0.00059
       3 <- 12         0.00028
       3 <- 15         0.00036
       3 <- 18         0.00083
       3 <- 21        -0.00031
       3 <- 25         0.00037
       3 <- 26         0.00016
       3 <- 30        -0.00065
       3 <- 34        -0.00026
       3 <- 38         0.00022
       3 <- 39        -0.00026
       3 <- 46         0.00014
       3 <- 51        -0.00019
       3 <- 54         0.00016
       4 <- 11         0.00251
       4 <- 16         0.00283
       4 <- 19         0.00268
       4 <- 23         0.00137
       4 <- 24        -0.00189
       4 <- 29         0.00032
       4 <- 32        -0.00023
       4 <- 36         0.00086
       4 <- 43        -0.00024
       4 <- 50        -0.00025
       5 <- 10         0.00241
       5 <- 13        -0.00132
       5 <- 17         0.00240
       5 <- 22         0.00226
       5 <- 27         0.00069
       5 <- 33         0.00074
       5 <- 37         0.00047
       5 <- 42         0.00025
       5 <- 49        -0.00029
       6 <-  9        -0.00695
       6 <- 12        -0.00446
       6 <- 14         0.00448
       6 <- 15         0.00328
       6 <- 18         0.00186
       6 <- 20        -0.00382
       6 <- 21        -0.00045
       6 <- 25         0.00428
       6 <- 26        -0.00065
       6 <- 30         0.00020
       6 <- 31        -0.00119
       6 <- 34        -0.00107
       6 <- 38         0.00084
       6 <- 39         0.00095
       6 <- 44        -0.00046
       6 <- 46        -0.00015
       6 <- 48        -0.00032
       7 <-  9        -0.00364
       7 <- 12         0.00249
       7 <- 15        -0.00099
       7 <- 18         0.00408
       7 <- 20        -0.00022
       7 <- 21        -0.00011
       7 <- 25         0.00045
       7 <- 26         0.00066
       7 <- 30        -0.00026
       7 <- 31         0.00083
       7 <- 34        -0.00057
       7 <- 39         0.00015
       7 <- 46        -0.00013
       7 <- 48        -0.00012
       7 <- 51         0.00026
       8 <- 11        -0.00620
       8 <- 16         0.00470
       8 <- 19        -0.01348
       8 <- 23        -0.00266
       8 <- 24         0.00030
       8 <- 29         0.00255
       8 <- 32         0.00146
       8 <- 36        -0.00221
       8 <- 43         0.00135
       8 <- 47        -0.00068

 Excited State   5:      Singlet-A2     7.7543 eV  159.89 nm  f=0.0000  <S**2>=0.000
       3 -> 28         0.00256
       3 -> 35         0.00190
       3 -> 45         0.00077
       4 -> 10         0.00365
       4 -> 13         0.00994
       4 -> 17         0.00041
       4 -> 22        -0.00321
       4 -> 27         0.00074
       4 -> 33         0.00183
       4 -> 37         0.00309
       4 -> 42         0.00024
       4 -> 52         0.00048
       5 -> 16        -0.00132
       5 -> 19        -0.00036
       5 -> 23         0.00170
       5 -> 24         0.00028
       5 -> 29        -0.00029
       5 -> 32         0.00012
       5 -> 36         0.00050
       5 -> 43         0.00059
       5 -> 47         0.00053
       5 -> 53         0.00019
       6 -> 28         0.00251
       6 -> 35        -0.00085
       6 -> 45        -0.00014
       7 -> 28         0.00027
       7 -> 45         0.00083
       8 -> 10        -0.06807
       8 -> 13         0.70270
       8 -> 17         0.03114
       8 -> 22        -0.02337
       8 -> 27         0.00305
       8 -> 33         0.00245
       8 -> 37        -0.00240
       8 -> 42        -0.00011
       8 -> 52         0.00052
       3 <- 28         0.00170
       3 <- 35         0.00156
       3 <- 45         0.00086
       4 <- 10         0.00034
       4 <- 13         0.00078
       4 <- 33        -0.00059
       4 <- 37         0.00113
       4 <- 42         0.00035
       4 <- 52         0.00015
       5 <- 11         0.00028
       5 <- 16        -0.00037
       5 <- 19        -0.00096
       5 <- 23         0.00272
       5 <- 24         0.00146
       5 <- 29         0.00037
       5 <- 32        -0.00076
       5 <- 36         0.00151
       5 <- 43         0.00085
       5 <- 47         0.00026
       5 <- 53         0.00043
       6 <- 28         0.00297
       6 <- 35        -0.00037
       6 <- 45        -0.00028
       7 <- 28         0.00030
       7 <- 35        -0.00019
       7 <- 45         0.00049
       8 <- 10        -0.00703
       8 <- 13        -0.00411
       8 <- 17        -0.00261
       8 <- 22         0.00071
       8 <- 27        -0.00041
       8 <- 33         0.00248
       8 <- 37        -0.00167
       8 <- 42         0.00013
       8 <- 52         0.00021

 Excited State   6:      Singlet-B2     9.4127 eV  131.72 nm  f=0.1113  <S**2>=0.000
       3 -> 11        -0.00037
       3 -> 16         0.00078
       3 -> 19        -0.00076
       3 -> 23         0.00041
       3 -> 24        -0.00027
       3 -> 29         0.00068
       3 -> 32        -0.00056
       3 -> 40         0.00039
       3 -> 43         0.00031
       3 -> 47         0.00022
       4 ->  9        -0.00447
       4 -> 12         0.00515
       4 -> 14         0.01104
       4 -> 18         0.00218
       4 -> 20         0.00681
       4 -> 21         0.00843
       4 -> 25         0.00333
       4 -> 26         0.00032

 The electronic state is 1-A1.
 Alpha  occ. eigenvalues --  -19.15260 -10.25330  -1.32401  -0.69459  -0.65695
 Alpha  occ. eigenvalues --   -0.57953  -0.54531  -0.22011
 Alpha virt. eigenvalues --    0.01221   0.02691   0.04439   0.04550   0.12100
 Alpha virt. eigenvalues --    0.14421   0.17645   0.19510   0.21715   0.24792
 Alpha virt. eigenvalues --    0.25229   0.36542   0.50568   0.55115   0.56154

 Mulliken charges:
               1
     1  C    0.325743
     2  H   -0.054022
     3  H   -0.054022
     4  O   -0.217698
 Sum of Mulliken charges =   0.00000

 Dipole moment (field-independent basis, Debye):
    X=              0.0000    Y=              0.0000    Z=              0.4093  Tot=              0.4093
 Quadrupole moment (field-independent basis, Debye-Ang):
   XX=            -10.4563   YY=            -12.9709   ZZ=            -13.4742
   XY=             -0.0000   XZ=             -0.0000   YZ=             -0.0000

 Normal termination of Gaussian 16 at Fri Sep 17 10:52:24 2021.
