 Gaussian 16, Revision A.03,
 Gaussian 16:  ES64L-G16RevA.03 25-Dec-2016

 --------------------------------------------------------------------
 #p B3LYP/6-311+G** #p TD=(singlets,nstates=30)IOp(6/8=3) IOp(9/40=4)
 --------------------------------------------------------------------

 --------------------------------
 Scan Step 271, Bond Length 1.855
 --------------------------------
 Symbolic Z-matrix:
 Charge =  0 Multiplicity = 1

                         Standard orientation:
 ---------------------------------------------------------------------
 Center     Atomic      Atomic             Coordinates (Angstroms)
 Number     Number       Type             X           Y           Z
 ---------------------------------------------------------------------
      1          6           0        0.000000    0.000000   -0.853581
      2          1           0        0.000000    0.937260   -1.444931
      3          1           0       -0.000000   -0.937260   -1.444931
      4          8           0        0.000000   -0.000000    1.001419
 ---------------------------------------------------------------------

 SCF Done:  E(RB3LYP) =  -114.338794935     A.U. after   13 cycles

 Excitation energies and oscillator strengths:

 Excited State   1:      Singlet-A2     1.2392 eV 1000.52 nm  f=0.0000  <S**2>=0.000
       3 -> 27         0.00069
       3 -> 38         0.00042
       3 -> 46         0.00333
       4 -> 27         0.00036
       4 -> 46        -0.00093
       5 ->  9         0.00135
       5 -> 13         0.00109
       5 -> 18         0.00162
       5 -> 23         0.00133
       5 -> 28         0.00123
       5 -> 37         0.00071
       5 -> 44         0.00020
       5 -> 52         0.00017
       6 -> 27        -0.00056
       6 -> 38        -0.00055
       6 -> 46         0.00091
       7 -> 12        -0.00131
       7 -> 16         0.00533
       7 -> 19        -0.00474
       7 -> 22        -0.00113
       7 -> 25        -0.00054
       7 -> 29        -0.00194
       7 -> 33         0.00027
       7 -> 49         0.00013
       7 -> 53         0.00037
       8 ->  9         0.71107
       8 -> 13        -0.00643
       8 -> 18         0.02071
       8 -> 23        -0.00082
       8 -> 28         0.01019
       8 -> 31         0.00161
       8 -> 37         0.00048
       8 -> 48        -0.00029
       8 -> 52         0.00185
       3 <- 27         0.00018
       3 <- 38         0.00020
       3 <- 46         0.00336
       4 <- 27         0.00068
       4 <- 38         0.00018
       4 <- 46        -0.00072
       5 <-  9         0.00041
       5 <- 13        -0.00032
       5 <- 18        -0.00036
       5 <- 23         0.00016
       5 <- 28        -0.00027
       5 <- 31         0.00021
       5 <- 37         0.00041
       6 <- 38        -0.00041
       6 <- 46         0.00066
       7 <- 12         0.00190
       7 <- 16        -0.01054
       7 <- 19         0.00572
       7 <- 22         0.00560
       7 <- 25        -0.00064
       7 <- 29         0.00563
       7 <- 33        -0.00034
       7 <- 35         0.00013
       7 <- 49        -0.00048
       7 <- 53         0.00145
       8 <-  9        -0.07742
       8 <- 13        -0.00050
       8 <- 18        -0.00780
       8 <- 23        -0.00036
       8 <- 28        -0.00277
       8 <- 31        -0.00082
       8 <- 37        -0.00019
       8 <- 48         0.00013
       8 <- 52         0.00043
 This state for optimization and/or second-order correction.
 Total Energy, E(TD-HF/TD-DFT) =  -114.293255364
 Copying the excited state density for this state as the 1-particle RhoCI density.

 Excited State   2:      Singlet-A1     3.2603 eV  380.29 nm  f=0.0287  <S**2>=0.000
       3 -> 10        -0.01403
       3 -> 11        -0.00284
       3 -> 14         0.00109
       3 -> 15         0.00034
       3 -> 17        -0.00302
       3 -> 20        -0.00346
       3 -> 21         0.00051
       3 -> 24         0.00043
       3 -> 26         0.00119
       3 -> 30        -0.00042
       3 -> 32         0.00275
       3 -> 34        -0.00104
       3 -> 36        -0.00096
       3 -> 39        -0.00039
       3 -> 43         0.00051
       3 -> 45        -0.00104
       3 -> 47         0.00231
       3 -> 50         0.00158
       4 -> 10        -0.00126
       4 -> 11         0.01012
       4 -> 14         0.00174
       4 -> 15        -0.00757
       4 -> 17         0.00216
       4 -> 20         0.00198
       4 -> 21         0.00025
       4 -> 24        -0.00374
       4 -> 26         0.00317
       4 -> 30         0.00026
       4 -> 32        -0.00119
       4 -> 34         0.00075
       4 -> 39        -0.00022
       4 -> 43        -0.00045
       4 -> 45         0.00077
       4 -> 47        -0.00075
       4 -> 50        -0.00026
       4 -> 54         0.00014
       5 -> 12         0.00925
       5 -> 16         0.00236
       5 -> 19         0.00112
       5 -> 22         0.00669
       5 -> 25        -0.00439
       5 -> 29         0.00034
       5 -> 33        -0.00237
       5 -> 35         0.00273
       5 -> 40        -0.00096
       5 -> 42        -0.00099
       5 -> 49         0.00012
       5 -> 51        -0.00086
       6 -> 10         0.25372
       6 -> 11         0.03530
       6 -> 14        -0.03952
       6 -> 15        -0.02201
       6 -> 17        -0.01544
       6 -> 20        -0.00124
       6 -> 21         0.00509
       6 -> 24        -0.00762
       6 -> 26        -0.00300
       6 -> 30        -0.00367
       6 -> 32         0.00426
       6 -> 34        -0.00138
       6 -> 36         0.00055
       6 -> 39        -0.00139
       6 -> 43         0.00081
       6 -> 45        -0.00090
       6 -> 47         0.00077
       6 -> 50         0.00053
       6 -> 54        -0.00097
       7 ->  9         0.67534
       7 -> 13        -0.00718
       7 -> 18        -0.00994
       7 -> 23        -0.00273
       7 -> 28         0.00136
       7 -> 31        -0.00329
       7 -> 37         0.00133
       7 -> 44        -0.00096
       7 -> 52         0.00105
       8 -> 12        -0.00740
       8 -> 16         0.03501
       8 -> 19        -0.01809
       8 -> 22        -0.01192
       8 -> 29        -0.00775
       8 -> 33         0.00092
       8 -> 35        -0.00065
       8 -> 40         0.00024
       8 -> 42         0.00023
       8 -> 51         0.00014
       8 -> 53        -0.00050
       3 <- 10        -0.01117
       3 <- 11        -0.00261
       3 <- 14         0.00091
       3 <- 15        -0.00013
       3 <- 17        -0.00175
       3 <- 20        -0.00302
       3 <- 26         0.00030
       3 <- 32         0.00237
       3 <- 34        -0.00053
       3 <- 36        -0.00098
       3 <- 39        -0.00034
       3 <- 43         0.00055
       3 <- 45        -0.00117
       3 <- 47         0.00232
       3 <- 50         0.00158
       4 <- 10         0.00031
       4 <- 11         0.00751
       4 <- 14         0.00141
       4 <- 15        -0.00526
       4 <- 17         0.00132
       4 <- 20         0.00248
       4 <- 24        -0.00288
       4 <- 26         0.00283
       4 <- 30        -0.00031
       4 <- 32        -0.00123
       4 <- 34         0.00064
       4 <- 36         0.00037
       4 <- 39        -0.00025
       4 <- 43        -0.00040
       4 <- 45         0.00070
       4 <- 47        -0.00045
       4 <- 50        -0.00014
       4 <- 54         0.00012
       5 <- 12         0.00567
       5 <- 16         0.00160
       5 <- 19         0.00091
       5 <- 22         0.00487
       5 <- 25        -0.00346
       5 <- 29         0.00035
       5 <- 33        -0.00199
       5 <- 35         0.00237
       5 <- 40        -0.00088
       5 <- 42        -0.00088
       5 <- 49         0.00012
       5 <- 51        -0.00082
       6 <- 10         0.08745
       6 <- 11         0.01502
       6 <- 14        -0.01955
       6 <- 15        -0.01198
       6 <- 17        -0.00948
       6 <- 20        -0.00209
       6 <- 21         0.00362
       6 <- 24        -0.00509
       6 <- 26        -0.00149
       6 <- 30        -0.00232
       6 <- 32         0.00409
       6 <- 34        -0.00154
       6 <- 39        -0.00125
       6 <- 43         0.00067
       6 <- 45        -0.00066
       6 <- 47         0.00043
       6 <- 50         0.00039
       6 <- 54        -0.00089
       7 <-  9        -0.13081
       7 <- 13         0.00311
       7 <- 18        -0.01112
       7 <- 23         0.00063
       7 <- 28        -0.00157
       7 <- 31        -0.00159
       7 <- 37         0.00064
       7 <- 44        -0.00080
       7 <- 48        -0.00043
       7 <- 52         0.00097
       8 <- 12        -0.00316
       8 <- 16         0.01801
       8 <- 19        -0.01068
       8 <- 22        -0.00801
       8 <- 25         0.00013
       8 <- 29        -0.00626
       8 <- 33         0.00074
       8 <- 35        -0.00050
       8 <- 40         0.00018
       8 <- 42         0.00018
       8 <- 51         0.00012
       8 <- 53        -0.00047

 Excited State   3:      Singlet-B2     3.5249 eV  351.74 nm  f=0.0022  <S**2>=0.000
       3 -> 12        -0.00119
       3 -> 16         0.00122
       3 -> 19        -0.00385
       3 -> 22         0.00107
       3 -> 25        -0.00087
       3 -> 29        -0.00254
       3 -> 33         0.00025
       3 -> 35         0.00136
       3 -> 40        -0.00126
       3 -> 42        -0.00048
       3 -> 49        -0.00389
       3 -> 51         0.00016
       3 -> 53         0.00027
       4 -> 12         0.00038
       4 -> 16        -0.00143
       4 -> 19         0.00036
       4 -> 22         0.00173
       4 -> 25         0.00061
       4 -> 29         0.00087
       4 -> 33        -0.00033
       4 -> 35         0.00043
       4 -> 40         0.00027
       4 -> 42         0.00012
       4 -> 49         0.00073
       5 -> 10         0.00994
       5 -> 11         0.00123
       5 -> 14        -0.00326
       5 -> 15         0.00310
       5 -> 17        -0.00051
       5 -> 20         0.00195
       5 -> 21         0.00300
       5 -> 24         0.00140
       5 -> 26        -0.00050
       5 -> 30        -0.00211
       5 -> 32        -0.00119
       5 -> 34         0.00024
       5 -> 39         0.00064
       5 -> 41         0.00041
       5 -> 47        -0.00039
       5 -> 50         0.00025
       5 -> 54        -0.00019
       6 -> 12         0.00246
       6 -> 16        -0.00277
       6 -> 19         0.00416
       6 -> 22        -0.00063
       6 -> 25         0.00114
       6 -> 29         0.00018
       6 -> 33        -0.00014
       6 -> 35        -0.00122
       6 -> 40         0.00080
       6 -> 42         0.00064
       6 -> 49         0.00120
       6 -> 53        -0.00045
       7 -> 27        -0.00053
       7 -> 38         0.00033
       7 -> 46         0.00301
       8 -> 10         0.70354
       8 -> 11         0.05703
       8 -> 14        -0.05349
       8 -> 15        -0.02179
       8 -> 17        -0.01648
       8 -> 20         0.00512
       8 -> 21         0.00586
       8 -> 24        -0.00573
       8 -> 26        -0.00437
       8 -> 30        -0.01316
       8 -> 32        -0.00095
       8 -> 34         0.00116
       8 -> 36         0.00148
       8 -> 39         0.00049
       8 -> 41        -0.00016
       8 -> 45        -0.00081
       8 -> 47        -0.00372
       8 -> 50         0.00141
       8 -> 54        -0.00245
       3 <- 12        -0.00042
       3 <- 16         0.00043
       3 <- 19        -0.00191
       3 <- 22         0.00093
       3 <- 25        -0.00079
       3 <- 29        -0.00103
       3 <- 33         0.00024
       3 <- 35         0.00090
       3 <- 40        -0.00109
       3 <- 42        -0.00033
       3 <- 49        -0.00395
       3 <- 51         0.00016
       3 <- 53         0.00072
       4 <- 12         0.00011
       4 <- 16        -0.00168
       4 <- 19         0.00019
       4 <- 22         0.00206
       4 <- 25         0.00034
       4 <- 29         0.00110
       4 <- 33        -0.00034
       4 <- 35         0.00061
       4 <- 40         0.00011
       4 <- 49         0.00051
       5 <- 10        -0.00093
       5 <- 11        -0.00063
       5 <- 14        -0.00046
       5 <- 15         0.00245
       5 <- 17         0.00020
       5 <- 20         0.00077
       5 <- 21         0.00162
       5 <- 24         0.00159
       5 <- 26        -0.00011
       5 <- 30        -0.00045
       5 <- 32        -0.00028
       5 <- 39         0.00030
       5 <- 41         0.00043
       5 <- 45        -0.00022
       5 <- 47        -0.00039
       5 <- 50         0.00013
       6 <- 12        -0.00081
       6 <- 16         0.00781
       6 <- 19        -0.00423
       6 <- 22        -0.00517
       6 <- 25         0.00124
       6 <- 29        -0.00610
       6 <- 33         0.00021
       6 <- 35        -0.00104
       6 <- 40         0.00080
       6 <- 42         0.00065
       6 <- 49         0.00169
       6 <- 53        -0.00142
       7 <- 27        -0.00053
       7 <- 38         0.00027
       7 <- 46         0.00260
       8 <- 10        -0.04480
       8 <- 11        -0.00735
       8 <- 14         0.00755
       8 <- 15         0.00223
       8 <- 17         0.00205
       8 <- 20        -0.00329
       8 <- 21        -0.00130
       8 <- 24         0.00151
       8 <- 26         0.00118
       8 <- 30         0.00182
       8 <- 32         0.00276
       8 <- 34        -0.00083
       8 <- 36        -0.00081
       8 <- 39        -0.00105
       8 <- 41         0.00021
       8 <- 43         0.00040
       8 <- 45        -0.00155
       8 <- 47        -0.00308
       8 <- 50         0.00117
       8 <- 54        -0.00066

 Excited State   4:      Singlet-B1     3.7095 eV  334.23 nm  f=0.0001  <S**2>=0.000
       3 ->  9        -0.02235
       3 -> 13         0.00080
       3 -> 18        -0.00371
       3 -> 23         0.00121
       3 -> 28        -0.00109
       3 -> 31        -0.00087
       3 -> 37         0.00016
       3 -> 44         0.00034
       3 -> 52         0.00067
       4 ->  9         0.00413
       4 -> 13        -0.00109
       4 -> 18         0.00018
       4 -> 23        -0.00101
       4 -> 28         0.00060
       4 -> 31        -0.00111
       4 -> 37        -0.00020
       4 -> 48        -0.00035
       4 -> 52        -0.00026
       5 -> 27        -0.00072
       5 -> 38         0.00115
       5 -> 46         0.00042
       6 ->  9         0.62539
       6 -> 13        -0.01587
       6 -> 18         0.01354
       6 -> 23        -0.00960
       6 -> 28         0.00369
       6 -> 31         0.00168
       6 -> 37        -0.00113
       6 -> 44        -0.00155
       6 -> 48         0.00311
       6 -> 52         0.00080
       7 -> 10         0.33382
       7 -> 11         0.02979
       7 -> 14        -0.02906
       7 -> 15        -0.01122
       7 -> 17        -0.01096
       7 -> 20         0.00396
       7 -> 21         0.00212
       7 -> 24        -0.00397
       7 -> 26        -0.00356
       7 -> 30        -0.00588
       7 -> 32         0.00053
       7 -> 34        -0.00014
       7 -> 36         0.00127
       7 -> 39        -0.00013
       7 -> 41        -0.00016
       7 -> 43         0.00048
       7 -> 45        -0.00078
       7 -> 47         0.00346
       7 -> 50         0.00118
       7 -> 54        -0.00047
       8 -> 27         0.00012
       8 -> 46         0.00423
       3 <-  9        -0.00745
       3 <- 13        -0.00075
       3 <- 18        -0.00246
       3 <- 23        -0.00042
       3 <- 28        -0.00063
       3 <- 31        -0.00076
       3 <- 37         0.00014
       3 <- 52         0.00069
       4 <-  9         0.00321
       4 <- 18         0.00134
       4 <- 23        -0.00033
       4 <- 28         0.00145
       4 <- 31        -0.00080
       4 <- 37        -0.00010
       4 <- 44        -0.00022
       4 <- 48        -0.00035
       4 <- 52        -0.00012
       5 <- 27        -0.00098
       5 <- 38         0.00103
       5 <- 46         0.00038
       6 <-  9        -0.04719
       6 <- 13         0.00226
       6 <- 18        -0.00550
       6 <- 23         0.00038
       6 <- 28        -0.00414
       6 <- 31        -0.00063
       6 <- 37        -0.00084
       6 <- 44        -0.00023
       6 <- 48         0.00286
       6 <- 52        -0.00022
       7 <- 10        -0.05466
       7 <- 11        -0.00909
       7 <- 14         0.01280
       7 <- 15         0.00762
       7 <- 17         0.00333
       7 <- 20         0.00190
       7 <- 21        -0.00324
       7 <- 24         0.00376
       7 <- 26         0.00180
       7 <- 30         0.00223
       7 <- 32         0.00023
       7 <- 34        -0.00068
       7 <- 36         0.00088
       7 <- 39        -0.00056
       7 <- 41         0.00021
       7 <- 43         0.00027
       7 <- 45        -0.00050
       7 <- 47         0.00320
       7 <- 50         0.00134
       7 <- 54         0.00066
       8 <- 27         0.00053
       8 <- 46         0.00393

 Excited State   5:      Singlet-B1     4.2992 eV  288.39 nm  f=0.0066  <S**2>=0.000
       3 ->  9        -0.00134
       3 -> 18        -0.00148
       3 -> 23         0.00023
       3 -> 28        -0.00230
       3 -> 31        -0.00127
       3 -> 48        -0.00323
       3 -> 52        -0.00027
       4 ->  9        -0.03006
       4 -> 13         0.00598
       4 -> 18         0.00080
       4 -> 23         0.00470
       4 -> 28         0.00086
       4 -> 31         0.00049
       4 -> 37         0.00035
       4 -> 44        -0.00041
       4 -> 48         0.00092
       4 -> 52         0.00019
       5 -> 27        -0.00617
       5 -> 38        -0.00358
       5 -> 46         0.00011
       6 ->  9        -0.33270
       6 -> 13         0.00457
       6 -> 18        -0.00134
       6 -> 23         0.00323
       6 -> 28         0.00237
       6 -> 31        -0.00409
       6 -> 37         0.00256
       6 -> 44         0.00101
       6 -> 48        -0.00083
       6 -> 52        -0.00092
       7 -> 10         0.62028
       7 -> 11         0.04280
       7 -> 14        -0.04276
       7 -> 15        -0.02628
       7 -> 17        -0.00769
       7 -> 20        -0.00219
       7 -> 21         0.00272
       7 -> 24        -0.00844
       7 -> 26        -0.00499
       7 -> 30        -0.00702
       7 -> 32        -0.00092
       7 -> 34         0.00354
       7 -> 36        -0.00138
       7 -> 39         0.00062
       7 -> 43         0.00044
       7 -> 45        -0.00084
       7 -> 47         0.00030
       7 -> 50         0.00011
       7 -> 54        -0.00167
       8 -> 27         0.00055
       8 -> 38         0.00019
       8 -> 46         0.00038
       3 <- 13         0.00080
       3 <- 18        -0.00040
       3 <- 23         0.00065
       3 <- 28        -0.00163
       3 <- 37        -0.00026
       3 <- 44        -0.00013
       3 <- 48        -0.00334
       3 <- 52         0.00014
       4 <-  9        -0.01432
       4 <- 13         0.00289
       4 <- 23         0.00289
       4 <- 28         0.00078
       4 <- 31         0.00030
       4 <- 37         0.00035
       4 <- 44        -0.00058
       4 <- 48         0.00052
       4 <- 52         0.00015
       5 <- 27        -0.00447
       5 <- 38        -0.00298
       5 <- 46         0.00015
       6 <-  9        -0.02432
       6 <- 13        -0.00050
       6 <- 18        -0.00287
       6 <- 23         0.00062
       6 <- 28         0.00030
       6 <- 31        -0.00476
       6 <- 37         0.00243
       6 <- 44         0.00091
       6 <- 48        -0.00017
       6 <- 52        -0.00129
       7 <- 10        -0.01251
       7 <- 11        -0.00157
       7 <- 14         0.00050
       7 <- 15        -0.00524
       7 <- 17         0.00039
       7 <- 20        -0.00482
       7 <- 21        -0.00075
       7 <- 24        -0.00268
       7 <- 26        -0.00026
       7 <- 30        -0.00027

 The electronic state is 1-A1.
 Alpha  occ. eigenvalues --  -19.17764 -10.34041  -0.88960  -0.71576  -0.49293
 Alpha  occ. eigenvalues --   -0.38613  -0.30527  -0.28669
 Alpha virt. eigenvalues --   -0.17398  -0.07988  -0.00113   0.04041   0.06089
 Alpha virt. eigenvalues --    0.06329   0.11699   0.13219   0.18697   0.20971
 Alpha virt. eigenvalues --    0.23934   0.30417   0.38503   0.39464   0.50574

 Mulliken charges:
               1
     1  C   -0.100816
     2  H    0.193033
     3  H    0.193033
     4  O   -0.285249
 Sum of Mulliken charges =  -0.00000

 Dipole moment (field-independent basis, Debye):
    X=             -0.0000    Y=              0.0000    Z=             -4.2211  Tot=              4.2211
 Quadrupole moment (field-independent basis, Debye-Ang):
   XX=            -13.0618   YY=            -12.0564   ZZ=            -10.5621
   XY=              0.0000   XZ=              0.0000   YZ=             -0.0000

 Normal termination of Gaussian 16 at Fri Sep 17 10:53:10 2021.
