 Gaussian 16, Revision A.03,
 Gaussian 16:  ES64L-G16RevA.03 25-Dec-2016

 --------------------------------------------------------------------
 #p B3LYP/6-311+G** #p TD=(singlets,nstates=30)IOp(6/8=3) IOp(9/40=4)
 --------------------------------------------------------------------

 --------------------------------------------
 Scan Step 39, Bond Length 0.6950000000000001
 --------------------------------------------
 Symbolic Z-matrix:
 Charge =  0 Multiplicity = 1

                         Standard orientation:
 ---------------------------------------------------------------------
 Center     Atomic      Atomic             Coordinates (Angstroms)
 Number     Number       Type             X           Y           Z
 ---------------------------------------------------------------------
      1          6           0        0.000000    0.000000   -0.273581
      2          1           0        0.000000    0.937260   -0.864931
      3          1           0       -0.000000   -0.937260   -0.864931
      4          8           0        0.000000   -0.000000    0.421419
 ---------------------------------------------------------------------

 SCF Done:  E(RB3LYP) =  -112.999721739     A.U. after   10 cycles

 Excitation energies and oscillator strengths:

 Excited State   1:      Singlet-B2     4.9321 eV  251.38 nm  f=0.1201  <S**2>=0.000
       3 -> 11         0.00075
       3 -> 16         0.00057
       3 -> 19         0.00077
       3 -> 22         0.00039
       3 -> 24        -0.00099
       3 -> 29         0.00021
       3 -> 32        -0.00016
       3 -> 40        -0.00019
       3 -> 43         0.00020
       3 -> 50        -0.00011
       3 -> 53         0.00015
       4 ->  9        -0.00289
       4 -> 12         0.00329
       4 -> 14         0.00366
       4 -> 15         0.00155
       4 -> 18         0.00295
       4 -> 20         0.00199
       4 -> 21         0.00177
       4 -> 25         0.00149
       4 -> 26        -0.00078
       4 -> 30         0.00035
       4 -> 31         0.00165
       4 -> 33         0.00032
       4 -> 38        -0.00069
       4 -> 42        -0.00050
       4 -> 44        -0.00032
       4 -> 46        -0.00077
       4 -> 49         0.00018
       5 -> 28         0.00174
       5 -> 35         0.00076
       5 -> 45         0.00081
       6 -> 11        -0.00560
       6 -> 16         0.00328
       6 -> 19         0.00064
       6 -> 22        -0.00107
       6 -> 24        -0.00470
       6 -> 29         0.00075
       6 -> 32        -0.00082
       6 -> 36         0.00031
       6 -> 43         0.00019
       6 -> 47         0.00030
       7 -> 11         0.00751
       7 -> 16         0.00360
       7 -> 19         0.00285
       7 -> 22        -0.00011
       7 -> 24        -0.00076
       7 -> 29        -0.00099
       7 -> 32         0.00078
       7 -> 36        -0.00070
       7 -> 43        -0.00043
       7 -> 47         0.00042
       7 -> 50         0.00044
       7 -> 53        -0.00011
       8 ->  9         0.70544
       8 -> 12        -0.00021
       8 -> 14         0.04538
       8 -> 15        -0.00714
       8 -> 18        -0.02189
       8 -> 20         0.00557
       8 -> 21         0.01004
       8 -> 25        -0.00022
       8 -> 26        -0.00026
       8 -> 30        -0.00283
       8 -> 31        -0.00228
       8 -> 33        -0.00109
       8 -> 38        -0.00112
       8 -> 39         0.00016
       8 -> 42        -0.00073
       8 -> 44         0.00030
       8 -> 46         0.00081
       8 -> 49        -0.00029
       8 -> 51         0.00012
       3 <- 11         0.00031
       3 <- 16         0.00024
       3 <- 19         0.00050
       3 <- 22         0.00030
       3 <- 24        -0.00075
       3 <- 29         0.00017
       3 <- 32        -0.00018
       3 <- 40        -0.00020
       3 <- 43         0.00020
       3 <- 53         0.00015
       4 <-  9        -0.00135
       4 <- 12        -0.00023
       4 <- 14         0.00300
       4 <- 15         0.00183
       4 <- 18         0.00063
       4 <- 20         0.00111
       4 <- 21         0.00135
       4 <- 25         0.00127
       4 <- 26        -0.00131
       4 <- 30         0.00034
       4 <- 31         0.00068
       4 <- 33         0.00025
       4 <- 38        -0.00044
       4 <- 39         0.00016
       4 <- 42        -0.00041
       4 <- 44        -0.00025
       4 <- 46        -0.00069
       4 <- 49         0.00012
       5 <- 28         0.00144
       5 <- 35         0.00061
       5 <- 45         0.00069
       6 <- 11        -0.00085
       6 <- 16         0.00295
       6 <- 19         0.00100
       6 <- 22        -0.00028
       6 <- 24        -0.00346
       6 <- 29         0.00031
       6 <- 32        -0.00070
       6 <- 36         0.00034
       6 <- 43         0.00012
       6 <- 47         0.00027
       6 <- 50         0.00015
       7 <- 11         0.00154
       7 <- 16         0.00163
       7 <- 19         0.00022
       7 <- 29        -0.00150
       7 <- 32         0.00060
       7 <- 36        -0.00041
       7 <- 43        -0.00030
       7 <- 47         0.00044
       7 <- 50         0.00050
       8 <-  9        -0.00789
       8 <- 12        -0.00504
       8 <- 14         0.01935
       8 <- 15         0.00579
       8 <- 18         0.00146
       8 <- 20         0.00042
       8 <- 21         0.00510
       8 <- 25         0.00312
       8 <- 26         0.00014
       8 <- 30        -0.00186
       8 <- 31        -0.00146
       8 <- 33        -0.00141
       8 <- 38        -0.00107
       8 <- 39         0.00012
       8 <- 42        -0.00060
       8 <- 46         0.00068
       8 <- 49        -0.00021
 This state for optimization and/or second-order correction.
 Total Energy, E(TD-HF/TD-DFT) =  -112.818469133
 Copying the excited state density for this state as the 1-particle RhoCI density.

 Excited State   2:      Singlet-A2     5.2343 eV  236.87 nm  f=0.0000  <S**2>=0.000
       3 -> 28        -0.00190
       3 -> 35        -0.00122
       3 -> 45        -0.00046
       4 -> 10        -0.00102
       4 -> 13         0.00144
       4 -> 17        -0.00393
       4 -> 23         0.00186
       4 -> 27        -0.00227
       4 -> 37        -0.00162
       4 -> 41        -0.00018
       4 -> 48        -0.00013
       4 -> 52        -0.00030
       5 -> 11         0.00031
       5 -> 16        -0.00012
       5 -> 19         0.00036
       5 -> 22        -0.00098
       5 -> 24        -0.00021
       5 -> 29         0.00018
       5 -> 32        -0.00012
       5 -> 36        -0.00034
       5 -> 43        -0.00039
       5 -> 47        -0.00038
       5 -> 50         0.00019
       5 -> 53        -0.00011
       6 -> 28        -0.00340
       6 -> 35         0.00049
       7 -> 28         0.00118
       7 -> 35        -0.00028
       7 -> 45        -0.00050
       8 -> 10         0.70576
       8 -> 13        -0.03369
       8 -> 17         0.02843
       8 -> 23         0.00257
       8 -> 27         0.00188
       8 -> 34         0.00318
       8 -> 37        -0.00200
       8 -> 41         0.00020
       8 -> 48         0.00013
       8 -> 52         0.00040
       3 <- 28        -0.00155
       3 <- 35        -0.00105
       3 <- 45        -0.00044
       4 <- 10        -0.00017
       4 <- 13         0.00077
       4 <- 17        -0.00072
       4 <- 23         0.00011
       4 <- 27        -0.00034
       4 <- 34         0.00078
       4 <- 37        -0.00088
       4 <- 41        -0.00025
       5 <- 11         0.00064
       5 <- 16        -0.00061
       5 <- 19         0.00164
       5 <- 22        -0.00153
       5 <- 24        -0.00127
       5 <- 29         0.00134
       5 <- 32         0.00026
       5 <- 36        -0.00082
       5 <- 43        -0.00045
       5 <- 47        -0.00037
       5 <- 53        -0.00028
       6 <- 28        -0.00334
       6 <- 35         0.00063
       7 <- 28         0.00127
       7 <- 35        -0.00034
       7 <- 45        -0.00049
       8 <- 10         0.00088
       8 <- 13         0.00577
       8 <- 17        -0.00589
       8 <- 23         0.00019
       8 <- 27        -0.00048
       8 <- 34         0.00306
       8 <- 37        -0.00161
       8 <- 41         0.00016
       8 <- 52         0.00014

 Excited State   3:      Singlet-B2     5.8456 eV  212.10 nm  f=0.0327  <S**2>=0.000
       3 -> 11        -0.00013
       3 -> 16         0.00048
       3 -> 19        -0.00026
       3 -> 22         0.00029
       3 -> 24        -0.00037
       3 -> 29        -0.00045
       3 -> 32         0.00013
       3 -> 36        -0.00022
       3 -> 43        -0.00022
       3 -> 47         0.00016
       3 -> 50         0.00012
       3 -> 53        -0.00016
       4 ->  9         0.00206
       4 -> 12         0.00034
       4 -> 14         0.00137
       4 -> 15         0.00267
       4 -> 18        -0.00153
       4 -> 20        -0.00044
       4 -> 21         0.00127
       4 -> 25         0.00084
       4 -> 26         0.00067
       4 -> 30        -0.00214
       4 -> 31        -0.00078
       4 -> 33        -0.00010
       4 -> 38         0.00021
       4 -> 39        -0.00096
       4 -> 42         0.00033
       4 -> 46         0.00055
       4 -> 49        -0.00012
       5 -> 28        -0.00099
       5 -> 35        -0.00125
       5 -> 45        -0.00072
       6 -> 11        -0.00021
       6 -> 16         0.00405
       6 -> 19        -0.00146
       6 -> 22        -0.00012
       6 -> 24        -0.00238
       6 -> 29         0.00181
       6 -> 32         0.00043
       6 -> 36         0.00057
       6 -> 40         0.00042
       6 -> 43         0.00029
       6 -> 47        -0.00025
       6 -> 50        -0.00022
       6 -> 53         0.00012
       7 -> 11        -0.00242
       7 -> 16        -0.00385
       7 -> 19        -0.00149
       7 -> 22         0.00085
       7 -> 24         0.00293
       7 -> 29        -0.00077
       7 -> 32        -0.00042
       7 -> 36         0.00065
       7 -> 40         0.00011
       7 -> 43         0.00023
       7 -> 47        -0.00060
       7 -> 50        -0.00034
       7 -> 53         0.00015
       8 ->  9        -0.00091
       8 -> 12         0.70578
       8 -> 14         0.02968
       8 -> 15         0.02700
       8 -> 18         0.00928
       8 -> 20         0.01581
       8 -> 21         0.00519
       8 -> 25        -0.00085
       8 -> 26         0.00165
       8 -> 30        -0.00247
       8 -> 31         0.00032
       8 -> 33        -0.00028
       8 -> 38        -0.00028
       8 -> 39         0.00139
       8 -> 42        -0.00087
       8 -> 46        -0.00049
       8 -> 49         0.00014
       8 -> 54        -0.00015
       3 <- 16         0.00048
       3 <- 22         0.00014
       3 <- 24        -0.00042
       3 <- 29        -0.00028
       3 <- 32         0.00013
       3 <- 36        -0.00023
       3 <- 43        -0.00020
       3 <- 47         0.00012
       3 <- 53        -0.00022
       4 <-  9        -0.00123
       4 <- 12        -0.00013
       4 <- 14         0.00135
       4 <- 15         0.00070
       4 <- 18         0.00062
       4 <- 20        -0.00043
       4 <- 21         0.00087
       4 <- 25         0.00097
       4 <- 26         0.00070
       4 <- 30        -0.00143
       4 <- 31        -0.00016
       4 <- 33        -0.00062
       4 <- 38         0.00014
       4 <- 39        -0.00072
       4 <- 42         0.00034
       4 <- 46         0.00052
       5 <- 28        -0.00058
       5 <- 35        -0.00107
       5 <- 45        -0.00064
       6 <- 11        -0.00035
       6 <- 16         0.00088
       6 <- 19         0.00046
       6 <- 22        -0.00067
       6 <- 24        -0.00178
       6 <- 29         0.00128
       6 <- 32         0.00059
       6 <- 36         0.00058
       6 <- 40         0.00037
       6 <- 43         0.00019
       6 <- 47        -0.00022
       6 <- 50        -0.00014
       7 <- 11        -0.00014
       7 <- 16        -0.00130
       7 <- 19        -0.00056
       7 <- 22         0.00049
       7 <- 24         0.00157
       7 <- 32        -0.00031
       7 <- 36         0.00028
       7 <- 43         0.00015
       7 <- 47        -0.00053
       7 <- 50        -0.00041
       8 <-  9        -0.00464
       8 <- 12         0.00119
       8 <- 14         0.01055
       8 <- 15         0.00398
       8 <- 18        -0.00119
       8 <- 20        -0.00293
       8 <- 21         0.00331
       8 <- 25         0.00065
       8 <- 26        -0.00015
       8 <- 30        -0.00217
       8 <- 31         0.00023
       8 <- 38        -0.00011
       8 <- 39         0.00119
       8 <- 42        -0.00076
       8 <- 46        -0.00040

 Excited State   4:      Singlet-A1     6.0060 eV  206.43 nm  f=0.0121  <S**2>=0.000
       3 ->  9         0.00123
       3 -> 12        -0.00053
       3 -> 14         0.00019
       3 -> 15        -0.00068
       3 -> 18        -0.00145
       3 -> 21         0.00072
       3 -> 25        -0.00055
       3 -> 26        -0.00027
       3 -> 30         0.00077
       3 -> 31        -0.00067
       3 -> 33         0.00037
       3 -> 38         0.00033
       3 -> 39         0.00032
       3 -> 46        -0.00012
       3 -> 51         0.00020
       3 -> 54        -0.00014
       4 -> 11        -0.00629
       4 -> 16        -0.00673
       4 -> 19        -0.00465
       4 -> 22        -0.00225
       4 -> 24         0.00330
       4 -> 29         0.00041
       4 -> 36        -0.00104
       4 -> 40        -0.00010
       4 -> 43         0.00027
       4 -> 50         0.00022
       5 -> 10        -0.00387
       5 -> 13        -0.00324
       5 -> 17        -0.00337
       5 -> 23        -0.00339
       5 -> 27        -0.00098
       5 -> 34        -0.00091
       5 -> 37        -0.00058
       5 -> 41        -0.00016
       5 -> 48         0.00025
       6 ->  9         0.01092
       6 -> 12         0.00717
       6 -> 14        -0.00460
       6 -> 15        -0.00416
       6 -> 18        -0.00655
       6 -> 20         0.00534
       6 -> 21         0.00078
       6 -> 25        -0.00603
       6 -> 26         0.00096
       6 -> 30        -0.00035
       6 -> 31         0.00138
       6 -> 33         0.00189
       6 -> 38         0.00111
       6 -> 39        -0.00119
       6 -> 42         0.00011
       6 -> 44         0.00055
       6 -> 49         0.00046
       7 ->  9         0.00782
       7 -> 12        -0.01147
       7 -> 14         0.00123
       7 -> 15         0.00421
       7 -> 18        -0.00733
       7 -> 20        -0.00321
       7 -> 21        -0.00022
       7 -> 25         0.00154
       7 -> 26        -0.00245
       7 -> 30        -0.00043
       7 -> 31        -0.00172
       7 -> 33         0.00025
       7 -> 38        -0.00046
       7 -> 39         0.00046
       7 -> 42        -0.00010
       7 -> 44        -0.00029
       7 -> 51        -0.00018
       8 -> 11         0.70484
       8 -> 16         0.05118
       8 -> 19        -0.01795
       8 -> 22        -0.00028
       8 -> 24        -0.00561
       8 -> 29        -0.00405
       8 -> 32         0.00187
       8 -> 36        -0.00315
       8 -> 40        -0.00033
       8 -> 43         0.00180
       8 -> 47        -0.00082
       8 -> 50         0.00016
       3 <-  9         0.00065
       3 <- 12        -0.00025
       3 <- 14         0.00014
       3 <- 15        -0.00041
       3 <- 18        -0.00092
       3 <- 21         0.00046
       3 <- 25        -0.00044
       3 <- 26        -0.00021
       3 <- 30         0.00056
       3 <- 31        -0.00043
       3 <- 33         0.00033
       3 <- 38         0.00025
       3 <- 39         0.00027
       3 <- 46        -0.00016
       3 <- 51         0.00016
       3 <- 54        -0.00013
       4 <- 11        -0.00249
       4 <- 16        -0.00269
       4 <- 19        -0.00261
       4 <- 22        -0.00164
       4 <- 24         0.00178
       4 <- 29         0.00019
       4 <- 32         0.00017
       4 <- 36        -0.00087
       4 <- 43         0.00025
       4 <- 50         0.00020
       5 <- 10        -0.00204
       5 <- 13        -0.00179
       5 <- 17        -0.00198
       5 <- 23        -0.00231
       5 <- 27        -0.00071
       5 <- 34        -0.00074
       5 <- 37        -0.00050
       5 <- 41        -0.00013
       5 <- 48         0.00023
       6 <-  9         0.00803
       6 <- 12         0.00347
       6 <- 14        -0.00360
       6 <- 15        -0.00343
       6 <- 18        -0.00357
       6 <- 20         0.00302
       6 <- 21         0.00136
       6 <- 25        -0.00400
       6 <- 26         0.00056
       6 <- 30         0.00014
       6 <- 31         0.00105
       6 <- 33         0.00136
       6 <- 38         0.00113
       6 <- 39        -0.00094
       6 <- 44         0.00055
       6 <- 49         0.00038
       7 <-  9         0.00071
       7 <- 12        -0.00454
       7 <- 14         0.00155
       7 <- 15         0.00294
       7 <- 18        -0.00342
       7 <- 20        -0.00153
       7 <- 21        -0.00046
       7 <- 25         0.00106
       7 <- 26        -0.00155
       7 <- 30        -0.00050
       7 <- 31        -0.00133
       7 <- 33         0.00017
       7 <- 38        -0.00042
       7 <- 39         0.00025
       7 <- 44        -0.00029
       7 <- 46         0.00010
       7 <- 51        -0.00017
       8 <- 11        -0.00848
       8 <- 16         0.00499
       8 <- 19        -0.01496
       8 <- 22        -0.00375
       8 <- 24        -0.00175
       8 <- 29        -0.00277
       8 <- 32         0.00167
       8 <- 36        -0.00247
       8 <- 40        -0.00011
       8 <- 43         0.00145
       8 <- 47        -0.00081
       8 <- 50         0.00016

 Excited State   5:      Singlet-A2     8.0368 eV  154.27 nm  f=0.0000  <S**2>=0.000
       3 -> 28         0.00267
       3 -> 35         0.00181
       3 -> 45         0.00065
       4 -> 10         0.00116
       4 -> 13        -0.00826
       4 -> 17         0.00138
       4 -> 23        -0.00349
       4 -> 27         0.00075
       4 -> 34         0.00122
       4 -> 37         0.00283
       4 -> 52         0.00039
       5 -> 16        -0.00074
       5 -> 19        -0.00045
       5 -> 22         0.00155
       5 -> 24         0.00061
       5 -> 32         0.00011
       5 -> 36         0.00048
       5 -> 40        -0.00011
       5 -> 43         0.00064
       5 -> 47         0.00051
       5 -> 50        -0.00013
       5 -> 53         0.00016
       6 -> 28         0.00291
       6 -> 35        -0.00072
       6 -> 45         0.00013
       7 -> 28        -0.00101
       7 -> 35         0.00040
       7 -> 45         0.00064
       8 -> 10         0.03561
       8 -> 13         0.70395
       8 -> 17        -0.05198
       8 -> 23         0.02126
       8 -> 27        -0.00288
       8 -> 34        -0.00279
       8 -> 37         0.00281
       8 -> 52        -0.00045
       3 <- 28         0.00182
       3 <- 35         0.00149
       3 <- 45         0.00071
       4 <- 10         0.00033
       4 <- 13        -0.00080
       4 <- 17         0.00037
       4 <- 23        -0.00016
       4 <- 27         0.00021
       4 <- 34        -0.00065
       4 <- 37         0.00107
       4 <- 41         0.00033
       4 <- 52         0.00013
       5 <- 11         0.00032
       5 <- 16        -0.00027
       5 <- 19        -0.00070
       5 <- 22         0.00210
       5 <- 24         0.00164
       5 <- 29        -0.00043
       5 <- 32        -0.00065
       5 <- 36         0.00131
       5 <- 43         0.00078
       5 <- 47         0.00022
       5 <- 53         0.00035
       6 <- 28         0.00315
       6 <- 35        -0.00052
       6 <- 45        -0.00011
       7 <- 28        -0.00107
       7 <- 45         0.00041
       8 <- 10         0.00590
       8 <- 13        -0.00387
       8 <- 17         0.00379
       8 <- 23        -0.00076
       8 <- 27         0.00048

 The electronic state is 1-A1.
 Alpha  occ. eigenvalues --  -19.18204 -10.29837  -1.32471  -0.76511  -0.73293
 Alpha  occ. eigenvalues --   -0.57886  -0.54776  -0.20794
 Alpha virt. eigenvalues --    0.00913   0.02809   0.04433   0.04643   0.14164
 Alpha virt. eigenvalues --    0.14412   0.17732   0.18755   0.21679   0.23717
 Alpha virt. eigenvalues --    0.26637   0.36563   0.50690   0.57171   0.57440

 Mulliken charges:
               1
     1  C    0.328610
     2  H   -0.088698
     3  H   -0.088698
     4  O   -0.151214
 Sum of Mulliken charges =  -0.00000

 Dipole moment (field-independent basis, Debye):
    X=              0.0000    Y=             -0.0000    Z=              0.9803  Tot=              0.9803
 Quadrupole moment (field-independent basis, Debye-Ang):
   XX=            -10.2730   YY=            -13.4782   ZZ=            -13.6054
   XY=             -0.0000   XZ=             -0.0000   YZ=             -0.0000

 Normal termination of Gaussian 16 at Fri Sep 17 10:52:23 2021.
