 Gaussian 16, Revision C.01,
 Gaussian 16:  ES64L-G16RevC.01  3-Jul-2019

 ----------------------------------------
 #P wB97XD/6-311+G* NoSymm #P Field=Y+194
 ----------------------------------------

 -------
 TitleMe
 -------
 Symbolic Z-matrix:
 Charge =  1 Multiplicity = 1

                          Input orientation:
 ---------------------------------------------------------------------
 Center     Atomic      Atomic             Coordinates (Angstroms)
 Number     Number       Type             X           Y           Z
 ---------------------------------------------------------------------
      1          6           0        0.519300    1.233000   -0.031900
      2          6           0        1.944500    1.269200   -0.036700
      3          6           0        2.620400    0.092800   -0.025000
      4          6           0       -0.196000    0.030100    0.001000
      5          1           0       -0.020700    2.174200   -0.043400
      6          1           0        2.482800    2.208900   -0.036100
      7          1           0       -1.277700    0.039900    0.011700
      8          7           0        4.092100    0.095900    0.036600
      9          8           0        4.639300   -1.021700    0.144600
     10          8           0        4.664900    1.198400   -0.023300
     11          6           0        0.494300   -1.167100    0.021000
     12          1           0       -0.032500   -2.114900    0.054500
     13          6           0        1.962900   -1.216500   -0.021100
     14          1           0        2.443600   -1.963100    0.615100
     15         35           0        2.173000   -1.949100   -1.906200
 ---------------------------------------------------------------------

 SCF Done:  E(RwB97XD) =  -3010.56059316     A.U. after   21 cycles

 Alpha  occ. eigenvalues -- -483.28397 -62.83369 -56.63105 -56.62485 -56.62463
 Alpha  occ. eigenvalues --  -19.46363 -19.45988 -14.85447 -10.58662 -10.56674
 Alpha  occ. eigenvalues --  -10.55690 -10.55347 -10.53689 -10.52037  -8.99136
 Alpha  occ. eigenvalues --   -6.81926  -6.79900  -6.79832  -2.91802  -2.91280
 Alpha  occ. eigenvalues --   -2.91226  -2.89606  -2.89605  -1.49790  -1.32766
 Alpha  occ. eigenvalues --   -1.21418  -1.12112  -1.11110  -1.03079  -0.99137
 Alpha  occ. eigenvalues --   -0.94321  -0.89878  -0.84640  -0.80482  -0.79836
 Alpha  occ. eigenvalues --   -0.79370  -0.77206  -0.75892  -0.74546  -0.70800
 Alpha  occ. eigenvalues --   -0.67508  -0.66674  -0.62197  -0.58422  -0.57318
 Alpha  occ. eigenvalues --   -0.56442  -0.55708  -0.52675  -0.52010
 Alpha virt. eigenvalues --   -0.28803  -0.20144  -0.16368  -0.13685  -0.12205
 Alpha virt. eigenvalues --   -0.12037  -0.07503  -0.07357  -0.05829  -0.03552
 Alpha virt. eigenvalues --   -0.02956  -0.01972  -0.00876  -0.00131   0.00297

 Mulliken charges:
               1
     1  C   -0.102518
     2  C    0.214794
     3  C   -0.125897
     4  C   -0.388816
     5  H    0.259188
     6  H    0.270847
     7  H    0.326584
     8  N   -0.247242
     9  O    0.197313
    10  O   -0.040199
    11  C   -0.169854
    12  H    0.422676
    13  C   -0.406340
    14  H    0.456675
    15  Br   0.332789
 Sum of Mulliken charges =   1.00000

 Dipole moment (field-independent basis, Debye):
    X=              3.0762    Y=             -6.6261    Z=             -1.5563  Tot=              7.4693
 Quadrupole moment (field-independent basis, Debye-Ang):
   XX=            -67.5631   YY=            -48.7479   ZZ=            -60.1447
   XY=            -14.9300   XZ=             -4.3228   YZ=              5.4944

 Normal termination of Gaussian 16 at Thu May  2 14:20:39 2024.
