 Gaussian 16, Revision A.03,
 Gaussian 16:  ES64L-G16RevA.03 25-Dec-2016

 --------------------------------------------------------------------
 #p B3LYP/6-311+G** #p TD=(singlets,nstates=30)IOp(6/8=3) IOp(9/40=4)
 --------------------------------------------------------------------

 --------------------------------
 Scan Step 155, Bond Length 1.275
 --------------------------------
 Symbolic Z-matrix:
 Charge =  0 Multiplicity = 1

                         Standard orientation:
 ---------------------------------------------------------------------
 Center     Atomic      Atomic             Coordinates (Angstroms)
 Number     Number       Type             X           Y           Z
 ---------------------------------------------------------------------
      1          6           0        0.000000    0.000000   -0.563581
      2          1           0        0.000000    0.937260   -1.154931
      3          1           0       -0.000000   -0.937260   -1.154931
      4          8           0        0.000000   -0.000000    0.711419
 ---------------------------------------------------------------------

 SCF Done:  E(RB3LYP) =  -114.534512067     A.U. after    9 cycles

 Excitation energies and oscillator strengths:

 Excited State   1:      Singlet-A2     3.5373 eV  350.50 nm  f=0.0000  <S**2>=0.000
       3 -> 27         0.00225
       3 -> 38         0.00188
       3 -> 45         0.00268
       4 -> 27         0.00164
       4 -> 38        -0.00047
       4 -> 45        -0.00136
       5 ->  9         0.01966
       5 -> 13        -0.00192
       5 -> 17         0.00525
       5 -> 23         0.00040
       5 -> 29         0.00433
       5 -> 31        -0.00177
       5 -> 37         0.00306
       5 -> 44         0.00057
       5 -> 48         0.00014
       5 -> 52         0.00070
       6 -> 27        -0.00028
       6 -> 38        -0.00087
       6 -> 45         0.00176
       7 -> 12        -0.00062
       7 -> 15         0.00321
       7 -> 18        -0.00303
       7 -> 22         0.00040
       7 -> 25         0.00141
       7 -> 30        -0.00100
       7 -> 33         0.00045
       7 -> 35         0.00020
       7 -> 40         0.00018
       7 -> 42        -0.00011
       7 -> 49         0.00027
       7 -> 50         0.00032
       7 -> 53         0.00047
       8 ->  9         0.70606
       8 -> 13        -0.03513
       8 -> 17         0.02269
       8 -> 23        -0.00918
       8 -> 29         0.00978
       8 -> 31        -0.00190
       8 -> 37         0.00018
       8 -> 48        -0.00026
       8 -> 52         0.00177
       3 <- 27         0.00141
       3 <- 38         0.00154
       3 <- 45         0.00277
       4 <- 27         0.00243
       4 <- 45        -0.00114
       5 <-  9        -0.00052
       5 <- 13        -0.00079
       5 <- 17        -0.00101
       5 <- 23         0.00051
       5 <- 29        -0.00070
       5 <- 31         0.00078
       5 <- 37         0.00150
       5 <- 44         0.00022
       5 <- 48         0.00014
       5 <- 52         0.00019
       6 <- 27         0.00032
       6 <- 38        -0.00076
       6 <- 45         0.00138
       7 <- 12        -0.00065
       7 <- 15        -0.00783
       7 <- 18         0.00084
       7 <- 22         0.00744
       7 <- 30         0.00382
       7 <- 33        -0.00123
       7 <- 35         0.00221
       7 <- 40         0.00092
       7 <- 50         0.00022
       7 <- 53         0.00134
       8 <-  9        -0.02750
       8 <- 13         0.00248
       8 <- 17        -0.00466
       8 <- 23         0.00077
       8 <- 29        -0.00121
       8 <- 31        -0.00066
       8 <- 37        -0.00124
       8 <- 52         0.00050
 This state for optimization and/or second-order correction.
 Total Energy, E(TD-HF/TD-DFT) =  -114.404517568
 Copying the excited state density for this state as the 1-particle RhoCI density.

 Excited State   2:      Singlet-B2     6.9264 eV  179.00 nm  f=0.0220  <S**2>=0.000
       3 -> 12         0.00162
       3 -> 15         0.00068
       3 -> 18         0.00125
       3 -> 22        -0.00033
       3 -> 25         0.00123
       3 -> 33         0.00023
       3 -> 35        -0.00048
       3 -> 40        -0.00017
       4 -> 12        -0.00270
       4 -> 15         0.00199
       4 -> 18         0.00191
       4 -> 22        -0.00325
       4 -> 25         0.00316
       4 -> 30         0.00034
       4 -> 33        -0.00037
       4 -> 35         0.00049
       4 -> 40         0.00044
       4 -> 42        -0.00013
       5 -> 10        -0.00786
       5 -> 11        -0.00755
       5 -> 14         0.00704
       5 -> 16        -0.00069
       5 -> 19        -0.00173
       5 -> 20         0.00277
       5 -> 21         0.00584
       5 -> 24        -0.00044
       5 -> 26         0.00221
       5 -> 28         0.00103
       5 -> 32        -0.00104
       5 -> 34        -0.00099
       5 -> 36        -0.00018
       5 -> 39        -0.00026
       5 -> 41        -0.00045
       5 -> 43        -0.00050
       5 -> 46        -0.00024
       5 -> 54         0.00012
       6 -> 12        -0.00054
       6 -> 15         0.00146
       6 -> 18         0.00147
       6 -> 22        -0.00234
       6 -> 25         0.00101
       6 -> 30        -0.00053
       6 -> 33        -0.00026
       6 -> 35         0.00053
       6 -> 42        -0.00017
       6 -> 49         0.00045
       6 -> 50        -0.00024
       7 -> 38        -0.00064
       7 -> 45         0.00026
       8 -> 10         0.70262
       8 -> 11        -0.07389
       8 -> 14         0.01808
       8 -> 16        -0.00464
       8 -> 19         0.00433
       8 -> 20         0.01707
       8 -> 21        -0.00249
       8 -> 26         0.00281
       8 -> 28         0.00096
       8 -> 32         0.00097
       8 -> 34         0.00086
       8 -> 36         0.00033
       8 -> 39         0.00033
       8 -> 41        -0.00022
       8 -> 43         0.00059
       8 -> 46        -0.00044
       8 -> 47         0.00016
       8 -> 51        -0.00013
       8 -> 54         0.00021
       3 <- 12         0.00037
       3 <- 15         0.00052
       3 <- 18         0.00047
       3 <- 22        -0.00050
       3 <- 25         0.00069
       3 <- 30        -0.00011
       3 <- 33         0.00020
       3 <- 35        -0.00043
       3 <- 40        -0.00019
       3 <- 49         0.00015
       4 <- 12         0.00077
       4 <- 15         0.00196
       4 <- 18         0.00182
       4 <- 22        -0.00203
       4 <- 25         0.00215
       4 <- 30         0.00024
       4 <- 33        -0.00019
       4 <- 35         0.00024
       4 <- 40         0.00012
       4 <- 42        -0.00023
       4 <- 50        -0.00013
       5 <- 10         0.00230
       5 <- 11        -0.00024
       5 <- 14         0.00468
       5 <- 16        -0.00058
       5 <- 19        -0.00028
       5 <- 20         0.00081
       5 <- 21         0.00182
       5 <- 24        -0.00208
       5 <- 26         0.00146
       5 <- 28         0.00012
       5 <- 32        -0.00075
       5 <- 34        -0.00091
       5 <- 36        -0.00025
       5 <- 39        -0.00014
       5 <- 41        -0.00026
       5 <- 43        -0.00039
       5 <- 46        -0.00022
       6 <- 15        -0.00020
       6 <- 18         0.00101
       6 <- 22        -0.00053
       6 <- 25         0.00034
       6 <- 30         0.00033
       6 <- 33        -0.00032
       6 <- 35         0.00058
       6 <- 42        -0.00016
       6 <- 49         0.00037
       6 <- 50        -0.00026
       6 <- 53         0.00016
       7 <- 27         0.00010
       7 <- 38        -0.00048
       7 <- 45         0.00025
       8 <- 10        -0.00151
       8 <- 11        -0.00056
       8 <- 14        -0.00457
       8 <- 16        -0.00053
       8 <- 19         0.00021
       8 <- 20        -0.00069
       8 <- 21        -0.00155
       8 <- 24         0.00193
       8 <- 26        -0.00083
       8 <- 28        -0.00045
       8 <- 32         0.00097
       8 <- 36         0.00032
       8 <- 39         0.00023
       8 <- 43         0.00038
       8 <- 46        -0.00026

 Excited State   3:      Singlet-B2     7.6805 eV  161.43 nm  f=0.0275  <S**2>=0.000
       3 -> 12        -0.00034
       3 -> 15        -0.00097
       3 -> 18         0.00109
       3 -> 22         0.00050
       3 -> 30         0.00248
       3 -> 33         0.00015
       3 -> 35        -0.00061
       3 -> 40        -0.00053
       3 -> 49         0.00060
       3 -> 50        -0.00019
       4 -> 12         0.00247
       4 -> 15         0.00039
       4 -> 18         0.00189
       4 -> 22        -0.00149
       4 -> 25         0.00281
       4 -> 30        -0.00138
       4 -> 33         0.00049
       4 -> 35        -0.00058
       4 -> 49         0.00023
       5 -> 10        -0.00577
       5 -> 11        -0.00021
       5 -> 14         0.00980
       5 -> 16        -0.00686
       5 -> 19        -0.00070
       5 -> 20        -0.00479
       5 -> 21         0.00239
       5 -> 24        -0.00082
       5 -> 26         0.00155
       5 -> 28         0.00155
       5 -> 32        -0.00011
       5 -> 34        -0.00086
       5 -> 36        -0.00038
       5 -> 39         0.00045
       5 -> 41        -0.00067
       5 -> 43         0.00019
       5 -> 46         0.00091
       5 -> 51        -0.00042
       6 -> 12        -0.00285
       6 -> 15        -0.00146
       6 -> 18        -0.00075
       6 -> 22         0.00112
       6 -> 25         0.00017
       6 -> 30         0.00116
       6 -> 33        -0.00055
       6 -> 35         0.00149
       6 -> 40         0.00112
       6 -> 49        -0.00128
       6 -> 50         0.00031
       6 -> 53         0.00012
       7 -> 27         0.00021
       7 -> 38        -0.00083
       7 -> 45        -0.00200
       8 -> 10         0.07403
       8 -> 11         0.70217
       8 -> 14        -0.00177
       8 -> 16         0.00882
       8 -> 19        -0.03477
       8 -> 21        -0.00286
       8 -> 24         0.00032
       8 -> 26        -0.00069
       8 -> 28         0.00207
       8 -> 32         0.00012
       8 -> 34        -0.00021
       8 -> 36        -0.00022
       8 -> 39        -0.00026
       8 -> 41        -0.00111
       8 -> 43         0.00038
       8 -> 46         0.00234
       8 -> 47        -0.00010
       8 -> 51        -0.00109
       3 <- 12         0.00034
       3 <- 15        -0.00031
       3 <- 18         0.00100
       3 <- 25         0.00022
       3 <- 30         0.00134
       3 <- 33         0.00026
       3 <- 35        -0.00063
       3 <- 40        -0.00049
       3 <- 49         0.00053
       3 <- 50        -0.00012
       3 <- 53        -0.00033
       4 <- 12         0.00030
       4 <- 15         0.00085
       4 <- 18         0.00041
       4 <- 22        -0.00116
       4 <- 25         0.00120
       4 <- 30        -0.00072
       4 <- 33         0.00046
       4 <- 35        -0.00029
       4 <- 42        -0.00011
       4 <- 49         0.00018
       5 <- 10         0.00120
       5 <- 11        -0.00136
       5 <- 14         0.00273
       5 <- 16        -0.00043
       5 <- 19         0.00144
       5 <- 20        -0.00041
       5 <- 21         0.00081
       5 <- 24        -0.00141
       5 <- 26         0.00011
       5 <- 28         0.00065
       5 <- 32        -0.00089
       5 <- 36         0.00013
       5 <- 39         0.00011
       5 <- 41        -0.00071
       5 <- 43         0.00010
       5 <- 46         0.00087
       5 <- 47        -0.00012
       5 <- 51        -0.00030
       6 <- 12        -0.00028
       6 <- 15        -0.00104
       6 <- 18         0.00034
       6 <- 22         0.00090
       6 <- 25        -0.00014
       6 <- 30         0.00111
       6 <- 33        -0.00047
       6 <- 35         0.00129
       6 <- 40         0.00089
       6 <- 49        -0.00104
       6 <- 50         0.00023
       7 <- 27         0.00035
       7 <- 38        -0.00066
       7 <- 45        -0.00167
       8 <- 10        -0.00081
       8 <- 11        -0.00177
       8 <- 14        -0.00362
       8 <- 16         0.00041
       8 <- 19         0.00525
       8 <- 21        -0.00195
       8 <- 24        -0.00046
       8 <- 26        -0.00165
       8 <- 28         0.00058
       8 <- 32        -0.00127
       8 <- 34         0.00161
       8 <- 39        -0.00071
       8 <- 41        -0.00102
       8 <- 43         0.00018
       8 <- 46         0.00188
       8 <- 47        -0.00030
       8 <- 51        -0.00072

 Excited State   4:      Singlet-A1     7.9365 eV  156.22 nm  f=0.0389  <S**2>=0.000
       3 -> 10         0.00224
       3 -> 11        -0.00024
       3 -> 14         0.00136
       3 -> 19        -0.00216
       3 -> 20         0.00219
       3 -> 21         0.00111
       3 -> 24         0.00088
       3 -> 26         0.00138
       3 -> 28         0.00084
       3 -> 32         0.00018
       3 -> 34        -0.00088
       3 -> 36        -0.00016
       3 -> 41        -0.00019
       3 -> 46         0.00021
       3 -> 47        -0.00029
       3 -> 51        -0.00014
       3 -> 54        -0.00016
       4 -> 10         0.00504
       4 -> 11         0.00406
       4 -> 14         0.00455
       4 -> 16         0.00068
       4 -> 19         0.00033
       4 -> 20         0.00304
       4 -> 21        -0.00060
       4 -> 24        -0.00683
       4 -> 26         0.00228
       4 -> 28        -0.00026
       4 -> 32        -0.00062
       4 -> 34         0.00028
       4 -> 43         0.00016
       4 -> 46        -0.00020
       4 -> 51        -0.00013
       5 -> 12         0.00568
       5 -> 15         0.00378
       5 -> 18         0.00898
       5 -> 22        -0.00266
       5 -> 25         0.00559
       5 -> 30        -0.00038
       5 -> 33        -0.00024
       5 -> 35         0.00074
       5 -> 50         0.00015
       5 -> 53        -0.00012
       6 -> 10         0.01014
       6 -> 11        -0.00272
       6 -> 14         0.00382
       6 -> 16        -0.00072
       6 -> 19         0.00266
       6 -> 20         0.00131
       6 -> 21        -0.00172
       6 -> 24        -0.00498
       6 -> 26        -0.00063
       6 -> 28        -0.00244
       6 -> 32        -0.00024
       6 -> 34        -0.00017
       6 -> 39         0.00022
       6 -> 43         0.00016
       6 -> 47         0.00072
       6 -> 51         0.00020
       6 -> 54        -0.00012
       7 ->  9         0.03923
       7 -> 13         0.01266
       7 -> 23         0.00519
       7 -> 29        -0.00098
       7 -> 31        -0.00100
       7 -> 37         0.00058
       7 -> 44         0.00060
       7 -> 48        -0.00031
       8 -> 12         0.70502
       8 -> 15         0.00388
       8 -> 18         0.02903
       8 -> 22         0.00176
       8 -> 25         0.00491
       8 -> 30        -0.00107
       8 -> 33         0.00176
       8 -> 35        -0.00207
       8 -> 40         0.00032
       8 -> 49        -0.00047
       8 -> 50         0.00024
       8 -> 53        -0.00027
       3 <- 10         0.00069
       3 <- 11         0.00047
       3 <- 14         0.00071
       3 <- 16         0.00016
       3 <- 19        -0.00130
       3 <- 20         0.00095
       3 <- 21         0.00075
       3 <- 24         0.00026
       3 <- 26         0.00096
       3 <- 28         0.00056
       3 <- 32         0.00029
       3 <- 34        -0.00060
       3 <- 36        -0.00011
       3 <- 41        -0.00011
       3 <- 46         0.00029
       3 <- 47        -0.00023
       3 <- 51        -0.00012
       3 <- 54        -0.00015
       4 <- 10         0.00399
       4 <- 11         0.00072
       4 <- 14         0.00329
       4 <- 20         0.00175
       4 <- 21        -0.00049
       4 <- 24        -0.00368
       4 <- 26         0.00138
       4 <- 32        -0.00082
       4 <- 34        -0.00013
       4 <- 41        -0.00013
       4 <- 43         0.00013
       4 <- 46        -0.00014
       4 <- 51        -0.00011
       5 <- 12         0.00278
       5 <- 15         0.00311
       5 <- 18         0.00322
       5 <- 22        -0.00103
       5 <- 25         0.00304
       5 <- 30        -0.00020
       5 <- 33        -0.00038
       5 <- 35         0.00066
       5 <- 53        -0.00010
       6 <- 10         0.00239
       6 <- 14         0.00145
       6 <- 16        -0.00028
       6 <- 19         0.00072
       6 <- 20         0.00060
       6 <- 21        -0.00100
       6 <- 24        -0.00240
       6 <- 26        -0.00019
       6 <- 28        -0.00158
       6 <- 32        -0.00032
       6 <- 34        -0.00020
       6 <- 46        -0.00017
       6 <- 47         0.00059
       6 <- 51         0.00022
       6 <- 54        -0.00011
       7 <-  9        -0.00310
       7 <- 13         0.00259
       7 <- 17        -0.00047
       7 <- 23         0.00264
       7 <- 29        -0.00078
       7 <- 31        -0.00065
       7 <- 37         0.00044
       7 <- 44         0.00051
       7 <- 48        -0.00028
       8 <- 12        -0.00034
       8 <- 15        -0.00336
       8 <- 18        -0.00164
       8 <- 25        -0.00123
       8 <- 30        -0.00129
       8 <- 33         0.00067
       8 <- 35        -0.00077
       8 <- 40         0.00040
       8 <- 49        -0.00046
       8 <- 50         0.00015
       8 <- 53        -0.00026

 Excited State   5:      Singlet-B1     8.2833 eV  149.68 nm  f=0.0012  <S**2>=0.000
       3 ->  9        -0.03343
       3 -> 13         0.00492
       3 -> 17        -0.00698
       3 -> 23         0.00395
       3 -> 29        -0.00254
       3 -> 31        -0.00026
       3 -> 44         0.00064
       3 -> 48         0.00017
       3 -> 52         0.00113
       4 ->  9         0.01685
       4 -> 13        -0.00276
       4 -> 17         0.00097
       4 -> 23        -0.00249
       4 -> 31        -0.00248
       4 -> 37        -0.00040
       4 -> 48        -0.00161
       4 -> 52        -0.00097
       5 -> 27        -0.00172
       5 -> 38         0.00211
       5 -> 45         0.00284
       6 ->  9         0.70505
       6 -> 13        -0.03458
       6 -> 17         0.02270
       6 -> 23        -0.01242
       6 -> 29         0.00791
       6 -> 31         0.00370
       6 -> 37        -0.00262
       6 -> 44        -0.00352
       6 -> 48         0.00555
       6 -> 52         0.00196
       7 -> 10         0.00300
       7 -> 11         0.00855
       7 -> 14         0.00048
       7 -> 16        -0.01253
       7 -> 19        -0.00370
       7 -> 20         0.00265
       7 -> 21         0.00382
       7 -> 24         0.00284
       7 -> 26         0.00243
       7 -> 28        -0.00467
       7 -> 32        -0.00130
       7 -> 36        -0.00156
       7 -> 39         0.00032
       7 -> 41        -0.00214
       7 -> 43         0.00103
       7 -> 46         0.00498
       7 -> 47         0.00231
       7 -> 51         0.00109
       7 -> 54         0.00054
       8 -> 27         0.00299
       8 -> 38         0.00100
       8 -> 45         0.00684
       3 <-  9        -0.01038
       3 <- 13         0.00080
       3 <- 17        -0.00337
       3 <- 23         0.00052
       3 <- 29        -0.00151
       3 <- 31        -0.00015
       3 <- 37        -0.00016
       3 <- 44        -0.00011
       3 <- 48         0.00046
       3 <- 52         0.00091
       4 <-  9         0.00533
       4 <- 17         0.00250
       4 <- 23        -0.00032
       4 <- 29         0.00224
       4 <- 31        -0.00244
       4 <- 37         0.00021
       4 <- 44         0.00020
       4 <- 48        -0.00139
       4 <- 52        -0.00052
       5 <- 27        -0.00172
       5 <- 38         0.00160
       5 <- 45         0.00249
       6 <-  9        -0.02126
       6 <- 13         0.00324
       6 <- 17        -0.00307
       6 <- 23         0.00071
       6 <- 29        -0.00193
       6 <- 31         0.00320

 The electronic state is 1-A1.
 Alpha  occ. eigenvalues --  -19.15575 -10.29032  -1.03960  -0.65644  -0.49804
 Alpha  occ. eigenvalues --   -0.45532  -0.39283  -0.28599
 Alpha virt. eigenvalues --   -0.08291   0.00555   0.03728   0.04220   0.06345
 Alpha virt. eigenvalues --    0.12580   0.17041   0.18726   0.21914   0.23439
 Alpha virt. eigenvalues --    0.25668   0.31319   0.43592   0.45229   0.50921

 Mulliken charges:
               1
     1  C    0.002215
     2  H    0.129504
     3  H    0.129504
     4  O   -0.261222
 Sum of Mulliken charges =  -0.00000

 Dipole moment (field-independent basis, Debye):
    X=             -0.0000    Y=              0.0000    Z=             -2.7974  Tot=              2.7974
 Quadrupole moment (field-independent basis, Debye-Ang):
   XX=            -11.9645   YY=            -11.7304   ZZ=            -12.2452
   XY=              0.0000   XZ=              0.0000   YZ=              0.0000

 Normal termination of Gaussian 16 at Fri Sep 17 10:52:46 2021.
