 Gaussian 16, Revision A.03,
 Gaussian 16:  ES64L-G16RevA.03 25-Dec-2016

 --------------------------------------------------------------------
 #p B3LYP/6-311+G** #p TD=(singlets,nstates=30)IOp(6/8=3) IOp(9/40=4)
 --------------------------------------------------------------------

 --------------------------------
 Scan Step 187, Bond Length 1.435
 --------------------------------
 Symbolic Z-matrix:
 Charge =  0 Multiplicity = 1

                         Standard orientation:
 ---------------------------------------------------------------------
 Center     Atomic      Atomic             Coordinates (Angstroms)
 Number     Number       Type             X           Y           Z
 ---------------------------------------------------------------------
      1          6           0        0.000000    0.000000   -0.643581
      2          1           0        0.000000    0.937260   -1.234931
      3          1           0       -0.000000   -0.937260   -1.234931
      4          8           0        0.000000   -0.000000    0.791419
 ---------------------------------------------------------------------

 SCF Done:  E(RB3LYP) =  -114.488901181     A.U. after    9 cycles

 Excitation energies and oscillator strengths:

 Excited State   1:      Singlet-A2     2.6893 eV  461.03 nm  f=0.0000  <S**2>=0.000
       3 -> 27         0.00168
       3 -> 38         0.00134
       3 -> 46         0.00307
       4 -> 27         0.00108
       4 -> 38        -0.00027
       4 -> 46        -0.00141
       5 ->  9         0.01364
       5 -> 13         0.00012
       5 -> 18         0.00404
       5 -> 23         0.00137
       5 -> 28         0.00360
       5 -> 31        -0.00065
       5 -> 37         0.00214
       5 -> 44         0.00044
       5 -> 52         0.00051
       6 -> 27        -0.00054
       6 -> 38        -0.00087
       6 -> 46         0.00160
       7 -> 12        -0.00071
       7 -> 15         0.00409
       7 -> 19        -0.00357
       7 -> 22        -0.00029
       7 -> 25         0.00122
       7 -> 30        -0.00126
       7 -> 33         0.00043
       7 -> 42        -0.00011
       7 -> 49         0.00015
       7 -> 50         0.00024
       7 -> 53         0.00047
       8 ->  9         0.70731
       8 -> 13        -0.02130
       8 -> 18         0.02210
       8 -> 23        -0.00612
       8 -> 28         0.01089
       8 -> 37         0.00060
       8 -> 48        -0.00029
       8 -> 52         0.00191
       3 <- 27         0.00094
       3 <- 38         0.00104
       3 <- 46         0.00314
       4 <- 27         0.00175
       4 <- 38         0.00020
       4 <- 46        -0.00115
       5 <-  9        -0.00053
       5 <- 13        -0.00066
       5 <- 18        -0.00090
       5 <- 23         0.00039
       5 <- 28        -0.00064
       5 <- 31         0.00051
       5 <- 37         0.00113
       5 <- 44         0.00015
       5 <- 52         0.00014
       6 <- 38        -0.00074
       6 <- 46         0.00125
       7 <- 12        -0.00011
       7 <- 15        -0.00915
       7 <- 19         0.00230
       7 <- 22         0.00739
       7 <- 25         0.00035
       7 <- 30         0.00471
       7 <- 33        -0.00086
       7 <- 35         0.00154
       7 <- 40         0.00074
       7 <- 49        -0.00022
       7 <- 50         0.00016
       7 <- 53         0.00143
       8 <-  9        -0.03791
       8 <- 13         0.00133
       8 <- 18        -0.00562
       8 <- 23         0.00053
       8 <- 28        -0.00186
       8 <- 31        -0.00053
       8 <- 37        -0.00078
       8 <- 52         0.00053
 This state for optimization and/or second-order correction.
 Total Energy, E(TD-HF/TD-DFT) =  -114.390072189
 Copying the excited state density for this state as the 1-particle RhoCI density.

 Excited State   2:      Singlet-A1     6.6992 eV  185.07 nm  f=0.1210  <S**2>=0.000
       3 -> 10         0.00726
       3 -> 11        -0.01601
       3 -> 14         0.00964
       3 -> 16         0.02078
       3 -> 17        -0.00834
       3 -> 20        -0.00160
       3 -> 21        -0.00418
       3 -> 24         0.00506
       3 -> 26         0.00707
       3 -> 29         0.00013
       3 -> 32         0.00291
       3 -> 34         0.00378
       3 -> 36        -0.00105
       3 -> 39         0.00124
       3 -> 41         0.00013
       3 -> 43         0.00052
       3 -> 45         0.00160
       3 -> 47         0.00135
       3 -> 51         0.00046
       3 -> 54         0.00030
       4 -> 10         0.02279
       4 -> 11         0.01047
       4 -> 14         0.01389
       4 -> 16        -0.00576
       4 -> 17         0.00438
       4 -> 20         0.00875
       4 -> 21         0.00016
       4 -> 24        -0.00689
       4 -> 26         0.00607
       4 -> 29         0.00109
       4 -> 32        -0.00121
       4 -> 34        -0.00279
       4 -> 36         0.00046
       4 -> 39        -0.00021
       4 -> 41         0.00012
       4 -> 43        -0.00019
       4 -> 45        -0.00035
       4 -> 47        -0.00167
       4 -> 51        -0.00018
       5 -> 12         0.02681
       5 -> 15         0.02426
       5 -> 19         0.00190
       5 -> 22         0.00453
       5 -> 25         0.01199
       5 -> 30        -0.00202
       5 -> 33        -0.00336
       5 -> 35         0.00219
       5 -> 40         0.00164
       5 -> 42         0.00067
       5 -> 49         0.00062
       5 -> 50        -0.00051
       5 -> 53        -0.00027
       6 -> 10        -0.04893
       6 -> 11         0.07929
       6 -> 14        -0.04119
       6 -> 16        -0.12081
       6 -> 17         0.00359
       6 -> 20        -0.02821
       6 -> 21         0.02487
       6 -> 24        -0.02203
       6 -> 26        -0.01137
       6 -> 29        -0.01033
       6 -> 34         0.00258
       6 -> 36         0.00184
       6 -> 39         0.00033
       6 -> 41        -0.00081
       6 -> 43         0.00054
       6 -> 45         0.00032
       6 -> 47         0.00178
       6 -> 51         0.00080
       6 -> 54        -0.00035
       7 ->  9         0.68566
       7 -> 13         0.01549
       7 -> 18        -0.02556
       7 -> 23         0.00460
       7 -> 28        -0.00421
       7 -> 31        -0.00215
       7 -> 37         0.00030
       7 -> 44        -0.00097
       7 -> 48         0.00060
       7 -> 52         0.00101
       8 -> 12         0.00070
       8 -> 15         0.11405
       8 -> 19        -0.02699
       8 -> 22        -0.04210
       8 -> 25         0.00244
       8 -> 30        -0.01482
       8 -> 33         0.00458
       8 -> 35        -0.00576
       8 -> 40        -0.00242
       8 -> 42        -0.00035
       8 -> 49         0.00069
       8 -> 50         0.00034
       8 -> 53        -0.00094
       3 <- 10         0.00409
       3 <- 11        -0.00983
       3 <- 14         0.00672
       3 <- 16         0.01380
       3 <- 17        -0.00482
       3 <- 20        -0.00085
       3 <- 21        -0.00372
       3 <- 24         0.00343
       3 <- 26         0.00452
       3 <- 29         0.00020
       3 <- 32         0.00264
       3 <- 34         0.00249
       3 <- 36        -0.00068
       3 <- 39         0.00096
       3 <- 41         0.00014
       3 <- 43         0.00055
       3 <- 45         0.00157
       3 <- 47         0.00161
       3 <- 51         0.00043
       3 <- 54         0.00035
       4 <- 10         0.00982
       4 <- 11         0.00534
       4 <- 14         0.00625
       4 <- 16        -0.00356
       4 <- 17         0.00205
       4 <- 20         0.00571
       4 <- 21         0.00022
       4 <- 24        -0.00420
       4 <- 26         0.00434
       4 <- 29         0.00019
       4 <- 32        -0.00159
       4 <- 34        -0.00232
       4 <- 36         0.00021
       4 <- 39        -0.00024
       4 <- 43        -0.00019
       4 <- 45         0.00010
       4 <- 47        -0.00145
       5 <- 12         0.00886
       5 <- 15         0.00988
       5 <- 19         0.00116
       5 <- 22         0.00241
       5 <- 25         0.00710
       5 <- 30        -0.00116
       5 <- 33        -0.00244
       5 <- 35         0.00173
       5 <- 40         0.00138
       5 <- 42         0.00052
       5 <- 49         0.00052
       5 <- 50        -0.00046
       5 <- 53        -0.00024
       6 <- 10        -0.01103
       6 <- 11         0.01923
       6 <- 14        -0.01315
       6 <- 16        -0.04501
       6 <- 17         0.00116
       6 <- 20        -0.01343
       6 <- 21         0.01250
       6 <- 24        -0.01218
       6 <- 26        -0.00664
       6 <- 29        -0.00655
       6 <- 32         0.00034
       6 <- 34         0.00251
       6 <- 36         0.00127
       6 <- 39         0.00049
       6 <- 41        -0.00054
       6 <- 43         0.00047
       6 <- 47         0.00139
       6 <- 51         0.00060
       6 <- 54        -0.00027
       7 <-  9        -0.10805
       7 <- 13         0.01113
       7 <- 18        -0.01481
       7 <- 23         0.00632
       7 <- 28        -0.00555
       7 <- 31        -0.00061
       7 <- 44        -0.00044
       7 <- 52         0.00084
       8 <- 15         0.02710
       8 <- 19        -0.00829
       8 <- 22        -0.01864
       8 <- 25         0.00078
       8 <- 30        -0.00960
       8 <- 33         0.00316
       8 <- 35        -0.00410
       8 <- 40        -0.00189
       8 <- 42        -0.00028
       8 <- 49         0.00048
       8 <- 50         0.00026
       8 <- 53        -0.00083

 Excited State   3:      Singlet-B1     6.7300 eV  184.23 nm  f=0.0015  <S**2>=0.000
       3 ->  9        -0.03250
       3 -> 13         0.00298
       3 -> 18        -0.00587
       3 -> 23         0.00271
       3 -> 28        -0.00161
       3 -> 31        -0.00050
       3 -> 44         0.00041
       3 -> 48         0.00063
       3 -> 52         0.00108
       4 ->  9         0.01556
       4 -> 13        -0.00271
       4 -> 18         0.00061
       4 -> 23        -0.00248
       4 -> 28         0.00018
       4 -> 31        -0.00191
       4 -> 37        -0.00046
       4 -> 48        -0.00141
       4 -> 52        -0.00080
       5 -> 27        -0.00097
       5 -> 38         0.00198
       5 -> 46         0.00170
       6 ->  9         0.70592
       6 -> 13        -0.02523
       6 -> 18         0.01951
       6 -> 23        -0.01178
       6 -> 28         0.00575
       6 -> 31         0.00390
       6 -> 37        -0.00250
       6 -> 44        -0.00336
       6 -> 48         0.00487
       6 -> 52         0.00174
       7 -> 10        -0.00378
       7 -> 11         0.00548
       7 -> 14        -0.00406
       7 -> 16        -0.00651
       7 -> 17        -0.00955
       7 -> 20         0.00203
       7 -> 21        -0.00139
       7 -> 24         0.00060
       7 -> 26        -0.00032
       7 -> 29        -0.00449
       7 -> 32        -0.00111
       7 -> 34        -0.00020
       7 -> 36        -0.00170
       7 -> 39         0.00013
       7 -> 41        -0.00122
       7 -> 43         0.00077
       7 -> 45         0.00376
       7 -> 47         0.00324
       7 -> 51         0.00114
       7 -> 54         0.00056
       8 -> 27         0.00143
       8 -> 38         0.00046
       8 -> 46         0.00626
       3 <-  9        -0.01053
       3 <- 18        -0.00323
       3 <- 23        -0.00015
       3 <- 28        -0.00106
       3 <- 31        -0.00050
       3 <- 44        -0.00023
       3 <- 48         0.00087
       3 <- 52         0.00086
       4 <-  9         0.00631
       4 <- 18         0.00233
       4 <- 23        -0.00034
       4 <- 28         0.00208
       4 <- 31        -0.00151
       4 <- 44         0.00018
       4 <- 48        -0.00122
       4 <- 52        -0.00045
       5 <- 27        -0.00130
       5 <- 38         0.00154
       5 <- 46         0.00151
       6 <-  9        -0.02250
       6 <- 13         0.00206
       6 <- 18        -0.00301
       6 <- 28        -0.00288
       6 <- 31         0.00214
       6 <- 37        -0.00233
       6 <- 44        -0.00202
       6 <- 48         0.00432
       6 <- 52         0.00064
       7 <- 10         0.00378
       7 <- 11        -0.00637
       7 <- 14         0.00391
       7 <- 16         0.01579
       7 <- 17        -0.00311
       7 <- 20         0.00644
       7 <- 21        -0.00584
       7 <- 24         0.00528
       7 <- 26         0.00253
       7 <- 29         0.00059
       7 <- 32        -0.00089
       7 <- 34        -0.00113
       7 <- 36        -0.00271
       7 <- 39         0.00038
       7 <- 41        -0.00078
       7 <- 43         0.00070
       7 <- 45         0.00349
       7 <- 47         0.00279
       7 <- 51         0.00086
       7 <- 54         0.00109
       8 <- 27         0.00165
       8 <- 38         0.00059
       8 <- 46         0.00567

 Excited State   4:      Singlet-B2     6.9204 eV  179.16 nm  f=0.0130  <S**2>=0.000
       3 -> 12         0.00186
       3 -> 15         0.00013
       3 -> 19         0.00192
       3 -> 22        -0.00032
       3 -> 25         0.00091
       3 -> 30         0.00058
       3 -> 33         0.00034
       3 -> 35        -0.00091
       3 -> 40        -0.00058
       3 -> 42        -0.00010
       3 -> 49         0.00062
       3 -> 50        -0.00011
       3 -> 53        -0.00015
       4 -> 12        -0.00154
       4 -> 15         0.00239
       4 -> 19         0.00141
       4 -> 22        -0.00323
       4 -> 25         0.00285
       4 -> 40         0.00042
       4 -> 42        -0.00012
       4 -> 49        -0.00012
       5 -> 10        -0.00791
       5 -> 11         0.00205
       5 -> 14         0.00947
       5 -> 16         0.00511
       5 -> 17        -0.00233
       5 -> 20         0.00083
       5 -> 21        -0.00557
       5 -> 24        -0.00136
       5 -> 26         0.00181
       5 -> 29         0.00111
       5 -> 32        -0.00081
       5 -> 34         0.00104
       5 -> 36        -0.00034
       5 -> 41        -0.00067
       5 -> 43        -0.00030
       5 -> 47         0.00020
       5 -> 51        -0.00013
       5 -> 54         0.00014
       6 -> 12        -0.00238
       6 -> 15         0.00102
       6 -> 19        -0.00024
       6 -> 22        -0.00150
       6 -> 25         0.00072
       6 -> 30        -0.00023
       6 -> 33        -0.00040
       6 -> 35         0.00121
       6 -> 40         0.00052
       6 -> 50        -0.00011
       7 -> 38        -0.00086
       7 -> 46        -0.00073
       8 -> 10         0.70517
       8 -> 11         0.01269
       8 -> 14         0.03712
       8 -> 16         0.02725
       8 -> 17        -0.00613
       8 -> 20         0.01455
       8 -> 21         0.00093
       8 -> 24         0.00090
       8 -> 26         0.00397
       8 -> 29         0.00277
       8 -> 32         0.00090
       8 -> 39         0.00029
       8 -> 41        -0.00040
       8 -> 43         0.00063
       8 -> 45         0.00068
       8 -> 47         0.00048
       8 -> 51        -0.00060
       8 -> 54         0.00040
       3 <- 12         0.00043
       3 <- 15         0.00033
       3 <- 19         0.00079
       3 <- 22        -0.00064
       3 <- 25         0.00043
       3 <- 30         0.00013
       3 <- 33         0.00029
       3 <- 35        -0.00078
       3 <- 40        -0.00055
       3 <- 49         0.00066
       3 <- 53        -0.00024
       4 <- 12         0.00074
       4 <- 15         0.00212
       4 <- 19         0.00135
       4 <- 22        -0.00220
       4 <- 25         0.00185
       4 <- 33         0.00015
       4 <- 35        -0.00012
       4 <- 42        -0.00021
       4 <- 50        -0.00012
       5 <- 10         0.00206
       5 <- 11         0.00038
       5 <- 14         0.00435
       5 <- 16        -0.00043
       5 <- 17        -0.00027
       5 <- 20         0.00024
       5 <- 21        -0.00136
       5 <- 24        -0.00247
       5 <- 26         0.00117
       5 <- 29         0.00020
       5 <- 32        -0.00082
       5 <- 34         0.00073
       5 <- 36        -0.00016
       5 <- 41        -0.00053
       5 <- 43        -0.00028
       5 <- 45         0.00013
       6 <- 12        -0.00024
       6 <- 15        -0.00123
       6 <- 19         0.00092
       6 <- 22         0.00049
       6 <- 25         0.00024
       6 <- 30         0.00111
       6 <- 33        -0.00047
       6 <- 35         0.00117
       6 <- 40         0.00047
       6 <- 50        -0.00014
       6 <- 53         0.00030
       7 <- 27         0.00012
       7 <- 38        -0.00065
       7 <- 46        -0.00056
       8 <- 10        -0.00181
       8 <- 11         0.00228
       8 <- 14        -0.00412
       8 <- 16        -0.00273
       8 <- 20        -0.00030
       8 <- 21         0.00148
       8 <- 24         0.00076
       8 <- 26        -0.00117
       8 <- 32         0.00023
       8 <- 36         0.00039
       8 <- 39        -0.00018
       8 <- 41        -0.00021
       8 <- 43         0.00026
       8 <- 45         0.00075
       8 <- 51        -0.00026
       8 <- 54         0.00011

 Excited State   5:      Singlet-B2     7.4618 eV  166.16 nm  f=0.0246  <S**2>=0.000
       3 -> 12         0.00044
       3 -> 15         0.00176
       3 -> 19        -0.00207
       3 -> 22        -0.00053
       3 -> 25         0.00045
       3 -> 30        -0.00348
       3 -> 33        -0.00019
       3 -> 35         0.00118
       3 -> 40         0.00094
       3 -> 49        -0.00116
       3 -> 50         0.00016
       4 -> 12        -0.00179
       4 -> 15        -0.00096
       4 -> 19        -0.00040
       4 -> 22         0.00135
       4 -> 25        -0.00187
       4 -> 30         0.00182
       4 -> 33        -0.00048
       4 -> 35         0.00066
       4 -> 40        -0.00013
       4 -> 49        -0.00010
       4 -> 50        -0.00010
       5 -> 10        -0.00153
       5 -> 11         0.00136
       5 -> 14        -0.01084
       5 -> 16         0.00328
       5 -> 17         0.00390
       5 -> 20         0.00360
       5 -> 21         0.00404
       5 -> 24         0.00059
       5 -> 26        -0.00194
       5 -> 29        -0.00146
       5 -> 32        -0.00085
       5 -> 34        -0.00049
       5 -> 36         0.00076
       5 -> 39        -0.00079
       5 -> 41         0.00050
       5 -> 43        -0.00032
       5 -> 45        -0.00090
       5 -> 47        -0.00043
       5 -> 51         0.00051
       6 -> 12         0.00188
       6 -> 15         0.00035
       6 -> 19         0.00103
       6 -> 22        -0.00088
       6 -> 25        -0.00014
       6 -> 30        -0.00133
       6 -> 33         0.00045
       6 -> 35        -0.00149
       6 -> 40        -0.00143
       6 -> 42        -0.00018
       6 -> 49         0.00171
       6 -> 50        -0.00016
       6 -> 53        -0.00018
       7 -> 27        -0.00069
       7 -> 38         0.00059
       7 -> 46         0.00287
       8 -> 10        -0.00917
       8 -> 11         0.70355
       8 -> 14        -0.02023
       8 -> 16        -0.06499
       8 -> 17         0.00819
       8 -> 20         0.01159
       8 -> 21         0.00122
       8 -> 24        -0.00351
       8 -> 26        -0.00086
       8 -> 29        -0.00485
       8 -> 32        -0.00037
       8 -> 34        -0.00051
       8 -> 36         0.00088
       8 -> 39         0.00019
       8 -> 41         0.00070
       8 -> 43        -0.00036
       8 -> 45        -0.00349
       8 -> 47        -0.00105
       8 -> 51         0.00165
       8 -> 54        -0.00037
       3 <- 12        -0.00031
       3 <- 15         0.00062
       3 <- 19        -0.00136
       3 <- 25         0.00012
       3 <- 30        -0.00170
       3 <- 33        -0.00027
       3 <- 35         0.00104
       3 <- 40         0.00086
       3 <- 49        -0.00114
       3 <- 50         0.00012
       3 <- 53         0.00052
       4 <- 15        -0.00094

 The electronic state is 1-A1.
 Alpha  occ. eigenvalues --  -19.16498 -10.31103  -0.97468  -0.67821  -0.48920
 Alpha  occ. eigenvalues --   -0.43572  -0.35676  -0.28985
 Alpha virt. eigenvalues --   -0.11759  -0.00007   0.02958   0.04143   0.06193
 Alpha virt. eigenvalues --    0.11619   0.15604   0.18264   0.18969   0.21692
 Alpha virt. eigenvalues --    0.23799   0.30080   0.40471   0.42895   0.50972

 Mulliken charges:
               1
     1  C   -0.029224
     2  H    0.159510
     3  H    0.159510
     4  O   -0.289795
 Sum of Mulliken charges =  -0.00000

 Dipole moment (field-independent basis, Debye):
    X=             -0.0000    Y=              0.0000    Z=             -3.3451  Tot=              3.3451
 Quadrupole moment (field-independent basis, Debye-Ang):
   XX=            -12.3872   YY=            -11.7829   ZZ=            -11.7958
   XY=              0.0000   XZ=              0.0000   YZ=             -0.0000

 Normal termination of Gaussian 16 at Fri Sep 17 10:52:51 2021.
