 Gaussian 16, Revision A.03,
 Gaussian 16:  ES64L-G16RevA.03 25-Dec-2016

 --------------------------------------------------------------------
 #p B3LYP/6-311+G** #p TD=(singlets,nstates=30)IOp(6/8=3) IOp(9/40=4)
 --------------------------------------------------------------------

 ---------------------------------------------
 Scan Step 193, Bond Length 1.4649999999999999
 ---------------------------------------------
 Symbolic Z-matrix:
 Charge =  0 Multiplicity = 1

                         Standard orientation:
 ---------------------------------------------------------------------
 Center     Atomic      Atomic             Coordinates (Angstroms)
 Number     Number       Type             X           Y           Z
 ---------------------------------------------------------------------
      1          6           0        0.000000    0.000000   -0.658581
      2          1           0        0.000000    0.937260   -1.249931
      3          1           0       -0.000000   -0.937260   -1.249931
      4          8           0        0.000000   -0.000000    0.806419
 ---------------------------------------------------------------------

 SCF Done:  E(RB3LYP) =  -114.478181003     A.U. after    9 cycles

 Excitation energies and oscillator strengths:

 Excited State   1:      Singlet-A2     2.5472 eV  486.74 nm  f=0.0000  <S**2>=0.000
       3 -> 27         0.00158
       3 -> 38         0.00125
       3 -> 46         0.00312
       4 -> 27         0.00100
       4 -> 38        -0.00024
       4 -> 46        -0.00140
       5 ->  9         0.01241
       5 -> 13         0.00034
       5 -> 18         0.00381
       5 -> 23         0.00146
       5 -> 28         0.00340
       5 -> 31        -0.00052
       5 -> 37         0.00198
       5 -> 44         0.00042
       5 -> 52         0.00048
       6 -> 27        -0.00057
       6 -> 38        -0.00086
       6 -> 46         0.00156
       7 -> 12        -0.00074
       7 -> 15         0.00423
       7 -> 19        -0.00366
       7 -> 22        -0.00040
       7 -> 25         0.00117
       7 -> 30        -0.00131
       7 -> 33         0.00042
       7 -> 42        -0.00010
       7 -> 49         0.00014
       7 -> 50         0.00023
       7 -> 53         0.00047
       8 ->  9         0.70752
       8 -> 13        -0.01949
       8 -> 18         0.02202
       8 -> 23        -0.00557
       8 -> 28         0.01098
       8 -> 31         0.00019
       8 -> 37         0.00063
       8 -> 48        -0.00030
       8 -> 52         0.00192
       3 <- 27         0.00086
       3 <- 38         0.00095
       3 <- 46         0.00319
       4 <- 27         0.00164
       4 <- 38         0.00022
       4 <- 46        -0.00114
       5 <-  9        -0.00050
       5 <- 13        -0.00064
       5 <- 18        -0.00087
       5 <- 23         0.00036
       5 <- 28        -0.00061
       5 <- 31         0.00047
       5 <- 37         0.00106
       5 <- 44         0.00014
       5 <- 52         0.00013
       6 <- 38        -0.00072
       6 <- 46         0.00122
       7 <- 15        -0.00935
       7 <- 19         0.00256
       7 <- 22         0.00733
       7 <- 25         0.00039
       7 <- 30         0.00483
       7 <- 33        -0.00078
       7 <- 35         0.00140
       7 <- 40         0.00070
       7 <- 42         0.00010
       7 <- 49        -0.00026
       7 <- 50         0.00015
       7 <- 53         0.00144
       8 <-  9        -0.04019
       8 <- 13         0.00116
       8 <- 18        -0.00581
       8 <- 23         0.00047
       8 <- 28        -0.00197
       8 <- 31        -0.00054
       8 <- 37        -0.00071
       8 <- 52         0.00052
 This state for optimization and/or second-order correction.
 Total Energy, E(TD-HF/TD-DFT) =  -114.384571756
 Copying the excited state density for this state as the 1-particle RhoCI density.

 Excited State   2:      Singlet-A1     6.3827 eV  194.25 nm  f=0.1131  <S**2>=0.000
       3 -> 10         0.00819
       3 -> 11        -0.01645
       3 -> 14         0.01075
       3 -> 16         0.01994
       3 -> 17        -0.00461
       3 -> 20        -0.00239
       3 -> 21        -0.00346
       3 -> 24         0.00450
       3 -> 26         0.00643
       3 -> 29        -0.00021
       3 -> 32         0.00285
       3 -> 34         0.00366
       3 -> 36         0.00065
       3 -> 39         0.00115
       3 -> 41         0.00011
       3 -> 43         0.00048
       3 -> 45         0.00137
       3 -> 47         0.00162
       3 -> 51         0.00057
       3 -> 54         0.00029
       4 -> 10         0.02106
       4 -> 11         0.01034
       4 -> 14         0.01278
       4 -> 16        -0.00676
       4 -> 17         0.00346
       4 -> 20         0.00812
       4 -> 21         0.00025
       4 -> 24        -0.00648
       4 -> 26         0.00593
       4 -> 29         0.00113
       4 -> 32        -0.00121
       4 -> 34        -0.00263
       4 -> 36        -0.00030
       4 -> 39        -0.00020
       4 -> 41         0.00013
       4 -> 43        -0.00024
       4 -> 47        -0.00168
       4 -> 51        -0.00022
       5 -> 12         0.02477
       5 -> 15         0.02134
       5 -> 19         0.00176
       5 -> 22         0.00537
       5 -> 25         0.01125
       5 -> 30        -0.00161
       5 -> 33        -0.00335
       5 -> 35         0.00236
       5 -> 40         0.00163
       5 -> 42         0.00065
       5 -> 49         0.00060
       5 -> 50        -0.00054
       5 -> 53        -0.00024
       6 -> 10        -0.05754
       6 -> 11         0.08900
       6 -> 14        -0.05270
       6 -> 16        -0.12083
       6 -> 17        -0.01643
       6 -> 20        -0.02417
       6 -> 21         0.02253
       6 -> 24        -0.02033
       6 -> 26        -0.01041
       6 -> 29        -0.00990
       6 -> 34         0.00229
       6 -> 36        -0.00163
       6 -> 39         0.00043
       6 -> 41        -0.00073
       6 -> 43         0.00060
       6 -> 47         0.00176
       6 -> 51         0.00082
       6 -> 54        -0.00041
       7 ->  9         0.68609
       7 -> 13         0.01202
       7 -> 18        -0.02434
       7 -> 23         0.00361
       7 -> 28        -0.00371
       7 -> 31        -0.00237
       7 -> 37         0.00041
       7 -> 44        -0.00101
       7 -> 48         0.00058
       7 -> 52         0.00102
       8 -> 12        -0.00224
       8 -> 15         0.10446
       8 -> 19        -0.02679
       8 -> 22        -0.03914
       8 -> 25         0.00199
       8 -> 30        -0.01444
       8 -> 33         0.00407
       8 -> 35        -0.00514
       8 -> 40        -0.00222
       8 -> 42        -0.00035
       8 -> 49         0.00070
       8 -> 50         0.00032
       8 -> 53        -0.00089
       3 <- 10         0.00478
       3 <- 11        -0.01034
       3 <- 14         0.00755
       3 <- 16         0.01328
       3 <- 17        -0.00239
       3 <- 20        -0.00143
       3 <- 21        -0.00321
       3 <- 24         0.00303
       3 <- 26         0.00409
       3 <- 32         0.00260
       3 <- 34         0.00243
       3 <- 36         0.00038
       3 <- 39         0.00092
       3 <- 41         0.00013
       3 <- 43         0.00052
       3 <- 45         0.00130
       3 <- 47         0.00187
       3 <- 51         0.00054
       3 <- 54         0.00035
       4 <- 10         0.00947
       4 <- 11         0.00557
       4 <- 14         0.00591
       4 <- 16        -0.00406
       4 <- 17         0.00154
       4 <- 20         0.00554
       4 <- 21         0.00027
       4 <- 24        -0.00404
       4 <- 26         0.00432
       4 <- 29         0.00023
       4 <- 32        -0.00159
       4 <- 34        -0.00223
       4 <- 39        -0.00024
       4 <- 43        -0.00024
       4 <- 45         0.00030
       4 <- 47        -0.00140
       5 <- 12         0.00869
       5 <- 15         0.00907
       5 <- 19         0.00111
       5 <- 22         0.00295
       5 <- 25         0.00685
       5 <- 30        -0.00091
       5 <- 33        -0.00246
       5 <- 35         0.00187
       5 <- 40         0.00138
       5 <- 42         0.00051
       5 <- 49         0.00051
       5 <- 50        -0.00049
       5 <- 53        -0.00021
       6 <- 10        -0.01374
       6 <- 11         0.02285
       6 <- 14        -0.01760
       6 <- 16        -0.04573
       6 <- 17        -0.00670
       6 <- 20        -0.01205
       6 <- 21         0.01163
       6 <- 24        -0.01145
       6 <- 26        -0.00610
       6 <- 29        -0.00637
       6 <- 32         0.00044
       6 <- 34         0.00236
       6 <- 36        -0.00116
       6 <- 39         0.00058
       6 <- 41        -0.00048
       6 <- 43         0.00053
       6 <- 45        -0.00022
       6 <- 47         0.00133
       6 <- 51         0.00062
       6 <- 54        -0.00031
       7 <-  9        -0.11172
       7 <- 13         0.01046
       7 <- 18        -0.01475
       7 <- 23         0.00579
       7 <- 28        -0.00529
       7 <- 31        -0.00080
       7 <- 44        -0.00049
       7 <- 52         0.00086
       8 <- 12        -0.00034
       8 <- 15         0.02695
       8 <- 19        -0.00880
       8 <- 22        -0.01803
       8 <- 25         0.00064
       8 <- 30        -0.00956
       8 <- 33         0.00285
       8 <- 35        -0.00371
       8 <- 40        -0.00175
       8 <- 42        -0.00027
       8 <- 49         0.00048
       8 <- 50         0.00025
       8 <- 53        -0.00079

 Excited State   3:      Singlet-B1     6.4709 eV  191.60 nm  f=0.0015  <S**2>=0.000
       3 ->  9        -0.03200
       3 -> 13         0.00271
       3 -> 18        -0.00565
       3 -> 23         0.00251
       3 -> 28        -0.00147
       3 -> 31        -0.00050
       3 -> 44         0.00037
       3 -> 48         0.00071
       3 -> 52         0.00106
       4 ->  9         0.01524
       4 -> 13        -0.00271
       4 -> 18         0.00054
       4 -> 23        -0.00248
       4 -> 28         0.00019
       4 -> 31        -0.00183
       4 -> 37        -0.00045
       4 -> 48        -0.00136
       4 -> 52        -0.00077
       5 -> 27        -0.00081
       5 -> 38         0.00198
       5 -> 46         0.00153
       6 ->  9         0.70599
       6 -> 13        -0.02408
       6 -> 18         0.01900
       6 -> 23        -0.01164
       6 -> 28         0.00543
       6 -> 31         0.00382
       6 -> 37        -0.00246
       6 -> 44        -0.00329
       6 -> 48         0.00474
       6 -> 52         0.00169
       7 -> 10        -0.00627
       7 -> 11         0.00883
       7 -> 14        -0.00572
       7 -> 16        -0.00650
       7 -> 17        -0.01008
       7 -> 20         0.00218
       7 -> 21        -0.00105
       7 -> 24         0.00034
       7 -> 26        -0.00061
       7 -> 29        -0.00438
       7 -> 32        -0.00104
       7 -> 34        -0.00010
       7 -> 36         0.00176
       7 -> 39         0.00012
       7 -> 41        -0.00108
       7 -> 43         0.00072
       7 -> 45         0.00320
       7 -> 47         0.00364
       7 -> 51         0.00115
       7 -> 54         0.00054
       8 -> 27         0.00122
       8 -> 38         0.00038
       8 -> 46         0.00610
       3 <-  9        -0.01044
       3 <- 13        -0.00018
       3 <- 18        -0.00318
       3 <- 23        -0.00024
       3 <- 28        -0.00097
       3 <- 31        -0.00054
       3 <- 44        -0.00025
       3 <- 48         0.00093
       3 <- 52         0.00084
       4 <-  9         0.00643
       4 <- 18         0.00228
       4 <- 23        -0.00038
       4 <- 28         0.00200
       4 <- 31        -0.00139
       4 <- 37        -0.00011
       4 <- 44         0.00017
       4 <- 48        -0.00118
       4 <- 52        -0.00043
       5 <- 27        -0.00119
       5 <- 38         0.00155
       5 <- 46         0.00136
       6 <-  9        -0.02281
       6 <- 13         0.00194
       6 <- 18        -0.00303
       6 <- 23        -0.00014
       6 <- 28        -0.00299
       6 <- 31         0.00196
       6 <- 37        -0.00225
       6 <- 44        -0.00196
       6 <- 48         0.00421
       6 <- 52         0.00062
       7 <- 10         0.00470
       7 <- 11        -0.00757
       7 <- 14         0.00550
       7 <- 16         0.01680
       7 <- 17        -0.00025
       7 <- 20         0.00613
       7 <- 21        -0.00552
       7 <- 24         0.00506
       7 <- 26         0.00232
       7 <- 29         0.00065
       7 <- 32        -0.00079
       7 <- 34        -0.00089
       7 <- 36         0.00280
       7 <- 39         0.00038
       7 <- 41        -0.00066
       7 <- 43         0.00063
       7 <- 45         0.00301
       7 <- 47         0.00318
       7 <- 51         0.00089
       7 <- 54         0.00109
       8 <- 27         0.00151
       8 <- 38         0.00052
       8 <- 46         0.00556

 Excited State   4:      Singlet-B2     6.8799 eV  180.21 nm  f=0.0142  <S**2>=0.000
       3 -> 12         0.00188
       3 -> 15        -0.00019
       3 -> 19         0.00231
       3 -> 22        -0.00030
       3 -> 25         0.00076
       3 -> 30         0.00103
       3 -> 33         0.00036
       3 -> 35        -0.00113
       3 -> 40        -0.00077
       3 -> 42        -0.00011
       3 -> 49         0.00088
       3 -> 50        -0.00013
       3 -> 53        -0.00017
       4 -> 12        -0.00128
       4 -> 15         0.00256
       4 -> 19         0.00126
       4 -> 22        -0.00334
       4 -> 25         0.00288
       4 -> 30        -0.00024
       4 -> 33         0.00014
       4 -> 40         0.00044
       4 -> 42        -0.00011
       4 -> 49        -0.00014
       5 -> 10        -0.00682
       5 -> 11         0.00032
       5 -> 14         0.01106
       5 -> 16         0.00512
       5 -> 17        -0.00160
       5 -> 20         0.00022
       5 -> 21        -0.00586
       5 -> 24        -0.00152
       5 -> 26         0.00189
       5 -> 29         0.00127
       5 -> 32        -0.00056
       5 -> 34         0.00111
       5 -> 36         0.00044
       5 -> 39         0.00022
       5 -> 41        -0.00073
       5 -> 43        -0.00023
       5 -> 45         0.00017
       5 -> 47         0.00031
       5 -> 51        -0.00021
       5 -> 54         0.00015
       6 -> 12        -0.00281
       6 -> 15         0.00098
       6 -> 19        -0.00068
       6 -> 22        -0.00125
       6 -> 25         0.00070
       6 -> 33        -0.00044
       6 -> 35         0.00146
       6 -> 40         0.00076
       6 -> 49        -0.00025
       6 -> 53         0.00012
       7 -> 27         0.00013
       7 -> 38        -0.00092
       7 -> 46        -0.00121
       8 -> 10         0.70284
       8 -> 11        -0.04105
       8 -> 14         0.04768
       8 -> 16         0.04109
       8 -> 17        -0.00033
       8 -> 20         0.01278
       8 -> 24         0.00162
       8 -> 26         0.00435
       8 -> 29         0.00376
       8 -> 32         0.00103
       8 -> 34         0.00020
       8 -> 36         0.00021
       8 -> 39         0.00030
       8 -> 41        -0.00045
       8 -> 43         0.00065
       8 -> 45         0.00115
       8 -> 47         0.00086
       8 -> 51        -0.00086
       8 -> 54         0.00053
       3 <- 12         0.00046
       3 <- 15         0.00021
       3 <- 19         0.00100
       3 <- 22        -0.00069
       3 <- 25         0.00034
       3 <- 30         0.00033
       3 <- 33         0.00032
       3 <- 35        -0.00095
       3 <- 40        -0.00072
       3 <- 49         0.00093
       3 <- 50        -0.00011
       3 <- 53        -0.00033
       4 <- 12         0.00071
       4 <- 15         0.00223
       4 <- 19         0.00122
       4 <- 22        -0.00235
       4 <- 25         0.00184
       4 <- 30        -0.00021
       4 <- 33         0.00025
       4 <- 35        -0.00023
       4 <- 40         0.00010
       4 <- 42        -0.00021
       4 <- 49        -0.00011
       4 <- 50        -0.00011
       5 <- 10         0.00200
       5 <- 11         0.00055
       5 <- 14         0.00432
       5 <- 16        -0.00102
       5 <- 17        -0.00028
       5 <- 20         0.00012
       5 <- 21        -0.00146
       5 <- 24        -0.00260
       5 <- 26         0.00111
       5 <- 29         0.00027
       5 <- 32        -0.00078
       5 <- 34         0.00068
       5 <- 36         0.00014
       5 <- 41        -0.00060
       5 <- 43        -0.00025
       5 <- 45         0.00026
       6 <- 12        -0.00027
       6 <- 15        -0.00177
       6 <- 19         0.00107
       6 <- 22         0.00095
       6 <- 25         0.00024
       6 <- 30         0.00157
       6 <- 33        -0.00053
       6 <- 35         0.00141
       6 <- 40         0.00071
       6 <- 49        -0.00030
       6 <- 50        -0.00012
       6 <- 53         0.00039
       7 <- 27         0.00020
       7 <- 38        -0.00070
       7 <- 46        -0.00095
       8 <- 10        -0.00245
       8 <- 11         0.00352
       8 <- 14        -0.00491
       8 <- 16        -0.00376
       8 <- 17        -0.00031
       8 <- 21         0.00167
       8 <- 24         0.00044
       8 <- 26        -0.00135
       8 <- 29         0.00014
       8 <- 32        -0.00011
       8 <- 34        -0.00030
       8 <- 36        -0.00041
       8 <- 39        -0.00038
       8 <- 41        -0.00031
       8 <- 43         0.00021
       8 <- 45         0.00123
       8 <- 47         0.00032
       8 <- 51        -0.00042
       8 <- 54         0.00014

 Excited State   5:      Singlet-B2     7.3644 eV  168.36 nm  f=0.0204  <S**2>=0.000
       3 -> 12         0.00056
       3 -> 15         0.00193
       3 -> 19        -0.00220
       3 -> 22        -0.00050
       3 -> 25         0.00062
       3 -> 30        -0.00358
       3 -> 33        -0.00017
       3 -> 35         0.00124
       3 -> 40         0.00100
       3 -> 49        -0.00127
       3 -> 50         0.00015
       4 -> 12        -0.00170
       4 -> 15        -0.00088
       4 -> 22         0.00111
       4 -> 25        -0.00145
       4 -> 30         0.00187
       4 -> 33        -0.00047
       4 -> 35         0.00066
       4 -> 40        -0.00012
       4 -> 50        -0.00012
       5 -> 10        -0.00377
       5 -> 11         0.00181
       5 -> 14        -0.00980
       5 -> 16         0.00348
       5 -> 17         0.00362
       5 -> 20         0.00339
       5 -> 21         0.00379
       5 -> 24         0.00053
       5 -> 26        -0.00177
       5 -> 29        -0.00140
       5 -> 32        -0.00115
       5 -> 34        -0.00042
       5 -> 36        -0.00078
       5 -> 39        -0.00086
       5 -> 41         0.00042
       5 -> 43        -0.00034
       5 -> 45        -0.00082
       5 -> 47        -0.00054
       5 -> 51         0.00052
       6 -> 12         0.00147
       6 -> 15         0.00014
       6 -> 19         0.00115
       6 -> 22        -0.00094
       6 -> 25        -0.00011
       6 -> 30        -0.00131
       6 -> 33         0.00038
       6 -> 35        -0.00140
       6 -> 40        -0.00144
       6 -> 42        -0.00021
       6 -> 49         0.00178
       6 -> 50        -0.00015
       6 -> 53        -0.00019
       7 -> 27        -0.00075
       7 -> 38         0.00049
       7 -> 46         0.00298
       8 -> 10         0.04681
       8 -> 11         0.70118
       8 -> 14        -0.02717
       8 -> 16        -0.07182
       8 -> 17        -0.00347
       8 -> 20         0.01276
       8 -> 21         0.00254
       8 -> 24        -0.00416
       8 -> 26        -0.00087
       8 -> 29        -0.00526
       8 -> 32        -0.00052
       8 -> 34        -0.00069
       8 -> 36        -0.00101
       8 -> 39         0.00015
       8 -> 41         0.00057
       8 -> 43        -0.00028
       8 -> 45        -0.00345
       8 -> 47        -0.00164

 The electronic state is 1-A1.
 Alpha  occ. eigenvalues --  -19.16646 -10.31423  -0.96491  -0.68186  -0.48864
 Alpha  occ. eigenvalues --   -0.43214  -0.35133  -0.29003
 Alpha virt. eigenvalues --   -0.12317  -0.00141   0.02723   0.04132   0.06177
 Alpha virt. eigenvalues --    0.11335   0.15374   0.16841   0.18953   0.21643
 Alpha virt. eigenvalues --    0.23843   0.30060   0.40127   0.42532   0.50978

 Mulliken charges:
               1
     1  C   -0.035063
     2  H    0.163834
     3  H    0.163834
     4  O   -0.292605
 Sum of Mulliken charges =   0.00000

 Dipole moment (field-independent basis, Debye):
    X=             -0.0000    Y=              0.0000    Z=             -3.4290  Tot=              3.4290
 Quadrupole moment (field-independent basis, Debye-Ang):
   XX=            -12.4571   YY=            -11.7998   ZZ=            -11.7092
   XY=              0.0000   XZ=              0.0000   YZ=              0.0000

 Normal termination of Gaussian 16 at Fri Sep 17 10:52:54 2021.
