 Gaussian 16, Revision C.01,
 Gaussian 16:  ES64L-G16RevC.01  3-Jul-2019

 ---------------------------------------
 #P wB97XD/6-311+G* NoSymm #P Field=X+29
 ---------------------------------------

 -------
 TitleMe
 -------
 Symbolic Z-matrix:
 Charge =  1 Multiplicity = 1

                          Input orientation:
 ---------------------------------------------------------------------
 Center     Atomic      Atomic             Coordinates (Angstroms)
 Number     Number       Type             X           Y           Z
 ---------------------------------------------------------------------
      1          6           0        0.029500    1.339700    0.068200
      2          6           0        1.434800    1.286700    0.006400
      3          6           0        2.111800    0.051100   -0.005400
      4          6           0        1.445100   -1.137200    0.031200
      5          6           0       -0.687900    0.168200    0.110000
      6          1           0       -0.471300    2.298400    0.078100
      7          1           0        2.027300    2.196500   -0.032200
      8          1           0        1.989700   -2.076400    0.023200
      9          1           0       -1.771600    0.180400    0.158200
     10          7           0        3.586400    0.051000   -0.067500
     11          8           0        4.147100   -1.059700   -0.088100
     12          8           0        4.145000    1.163900   -0.090100
     13          6           0       -0.023600   -1.145800    0.083500
     14          1           0       -0.436700   -1.872500    0.788900
     15         35           0       -0.535900   -1.869700   -1.740800
 ---------------------------------------------------------------------

 SCF Done:  E(RwB97XD) =  -3010.53678260     A.U. after   18 cycles

 Alpha  occ. eigenvalues -- -483.31268 -62.86290 -56.65985 -56.65410 -56.65407
 Alpha  occ. eigenvalues --  -19.47155 -19.47081 -14.86619 -10.58330 -10.57783
 Alpha  occ. eigenvalues --  -10.57672 -10.57365 -10.56822 -10.53001  -9.02094
 Alpha  occ. eigenvalues --   -6.84776  -6.82896  -6.82880  -2.94680  -2.94181
 Alpha  occ. eigenvalues --   -2.94167  -2.92663  -2.92663  -1.50913  -1.33906
 Alpha  occ. eigenvalues --   -1.22899  -1.14374  -1.11961  -1.04519  -1.01607
 Alpha  occ. eigenvalues --   -0.95654  -0.91288  -0.85931  -0.81428  -0.81194
 Alpha  occ. eigenvalues --   -0.81020  -0.78472  -0.77216  -0.76103  -0.72487
 Alpha  occ. eigenvalues --   -0.69451  -0.67731  -0.63904  -0.60285  -0.58390
 Alpha  occ. eigenvalues --   -0.57545  -0.56965  -0.56343  -0.55302
 Alpha virt. eigenvalues --   -0.29765  -0.22190  -0.15740  -0.13797  -0.08699
 Alpha virt. eigenvalues --   -0.06155  -0.05688  -0.05005  -0.04698  -0.03376
 Alpha virt. eigenvalues --   -0.02713  -0.02368  -0.01407  -0.00819   0.00410

 Mulliken charges:
               1
     1  C   -0.585004
     2  C    0.527973
     3  C   -0.725111
     4  C    0.273700
     5  C    0.012903
     6  H    0.339943
     7  H    0.361049
     8  H    0.369474
     9  H    0.363691
    10  N   -0.105820
    11  O    0.018060
    12  O    0.014848
    13  C   -0.465373
    14  H    0.408735
    15  Br   0.190933
 Sum of Mulliken charges =   1.00000

 Dipole moment (field-independent basis, Debye):
    X=             -1.6951    Y=             -0.6849    Z=             -0.0910  Tot=              1.8305
 Quadrupole moment (field-independent basis, Debye-Ang):
   XX=            -73.2824   YY=            -51.8986   ZZ=            -62.4089
   XY=              1.4370   XZ=              1.3330   YZ=              1.8624

 Normal termination of Gaussian 16 at Wed May  1 14:45:43 2024.
