 Gaussian 16, Revision C.01,
 Gaussian 16:  ES64L-G16RevC.01  3-Jul-2019

 ----------------------------------------
 #P wB97XD/6-311+G* NoSymm #P Field=Y-214
 ----------------------------------------

 -------
 TitleMe
 -------
 Symbolic Z-matrix:
 Charge =  1 Multiplicity = 1

                          Input orientation:
 ---------------------------------------------------------------------
 Center     Atomic      Atomic             Coordinates (Angstroms)
 Number     Number       Type             X           Y           Z
 ---------------------------------------------------------------------
      1          6           0        0.519300    1.233000   -0.031900
      2          6           0        1.944500    1.269200   -0.036700
      3          6           0        2.620400    0.092800   -0.025000
      4          6           0       -0.196000    0.030100    0.001000
      5          1           0       -0.020700    2.174200   -0.043400
      6          1           0        2.482800    2.208900   -0.036100
      7          1           0       -1.277700    0.039900    0.011700
      8          7           0        4.092100    0.095900    0.036600
      9          8           0        4.639300   -1.021700    0.144600
     10          8           0        4.664900    1.198400   -0.023300
     11          6           0        0.494300   -1.167100    0.021000
     12          1           0       -0.032500   -2.114900    0.054500
     13          6           0        1.962900   -1.216500   -0.021100
     14          1           0        2.443600   -1.963100    0.615100
     15         35           0        2.173000   -1.949100   -1.906200
 ---------------------------------------------------------------------

 SCF Done:  E(RwB97XD) =  -3010.55077064     A.U. after   22 cycles

 Alpha  occ. eigenvalues -- -483.34653 -62.89709 -56.69354 -56.68851 -56.68845
 Alpha  occ. eigenvalues --  -19.46790 -19.46368 -14.85912 -10.61146 -10.59778
 Alpha  occ. eigenvalues --  -10.58923 -10.57381 -10.53931 -10.53120  -9.05539
 Alpha  occ. eigenvalues --   -6.88085  -6.86422  -6.86401  -2.98021  -2.97578
 Alpha  occ. eigenvalues --   -2.97561  -2.96229  -2.96228  -1.50208  -1.33165
 Alpha  occ. eigenvalues --   -1.23890  -1.14517  -1.13489  -1.07045  -1.01486
 Alpha  occ. eigenvalues --   -0.96569  -0.91499  -0.85961  -0.81630  -0.81260
 Alpha  occ. eigenvalues --   -0.80544  -0.79095  -0.76761  -0.76339  -0.73617
 Alpha  occ. eigenvalues --   -0.69386  -0.67864  -0.64570  -0.62205  -0.60367
 Alpha  occ. eigenvalues --   -0.58184  -0.57631  -0.56213  -0.55834
 Alpha virt. eigenvalues --   -0.31585  -0.20924  -0.18810  -0.18527  -0.14553
 Alpha virt. eigenvalues --   -0.13715  -0.12945  -0.09433  -0.08630  -0.07536
 Alpha virt. eigenvalues --   -0.06128  -0.04963  -0.04431  -0.03945  -0.01659

 Mulliken charges:
               1
     1  C   -0.121512
     2  C    0.229027
     3  C   -0.037539
     4  C   -0.284857
     5  H    0.428557
     6  H    0.425712
     7  H    0.337947
     8  N   -0.233839
     9  O   -0.025863
    10  O    0.193464
    11  C   -0.197472
    12  H    0.274841
    13  C   -0.373057
    14  H    0.358254
    15  Br   0.026337
 Sum of Mulliken charges =   1.00000

 Dipole moment (field-independent basis, Debye):
    X=              2.4588    Y=              5.4053    Z=              0.0847  Tot=              5.9389
 Quadrupole moment (field-independent basis, Debye-Ang):
   XX=            -68.1925   YY=            -55.1203   ZZ=            -64.5708
   XY=             10.1585   XZ=             -0.7460   YZ=             -0.8981

 Normal termination of Gaussian 16 at Thu May  2 14:21:11 2024.
