 Gaussian 16, Revision C.01,
 Gaussian 16:  ES64L-G16RevC.01  3-Jul-2019

 ----------------------------------------
 #P wB97XD/6-311+G* NoSymm #P Field=X-214
 ----------------------------------------

 -------
 TitleMe
 -------
 Symbolic Z-matrix:
 Charge =  1 Multiplicity = 1

                          Input orientation:
 ---------------------------------------------------------------------
 Center     Atomic      Atomic             Coordinates (Angstroms)
 Number     Number       Type             X           Y           Z
 ---------------------------------------------------------------------
      1          6           0        0.029500    1.339700    0.068200
      2          6           0        1.434800    1.286700    0.006400
      3          6           0        2.111800    0.051100   -0.005400
      4          6           0        1.445100   -1.137200    0.031200
      5          6           0       -0.687900    0.168200    0.110000
      6          1           0       -0.471300    2.298400    0.078100
      7          1           0        2.027300    2.196500   -0.032200
      8          1           0        1.989700   -2.076400    0.023200
      9          1           0       -1.771600    0.180400    0.158200
     10          7           0        3.586400    0.051000   -0.067500
     11          8           0        4.147100   -1.059700   -0.088100
     12          8           0        4.145000    1.163900   -0.090100
     13          6           0       -0.023600   -1.145800    0.083500
     14          1           0       -0.436700   -1.872500    0.788900
     15         35           0       -0.535900   -1.869700   -1.740800
 ---------------------------------------------------------------------

 SCF Done:  E(RwB97XD) =  -3010.55567478     A.U. after   28 cycles

 Alpha  occ. eigenvalues -- -483.29910 -62.84961 -56.64611 -56.64101 -56.64095
 Alpha  occ. eigenvalues --  -19.35371 -19.35312 -14.74877 -10.56486 -10.54353
 Alpha  occ. eigenvalues --  -10.53397 -10.52479 -10.51774 -10.50963  -9.00787
 Alpha  occ. eigenvalues --   -6.83344  -6.81664  -6.81641  -2.93277  -2.92830
 Alpha  occ. eigenvalues --   -2.92811  -2.91466  -2.91466  -1.39008  -1.21873
 Alpha  occ. eigenvalues --   -1.19291  -1.10648  -1.08135  -1.02229  -0.95328
 Alpha  occ. eigenvalues --   -0.92118  -0.86603  -0.81042  -0.76777  -0.75694
 Alpha  occ. eigenvalues --   -0.73256  -0.71983  -0.70499  -0.68555  -0.66043
 Alpha  occ. eigenvalues --   -0.65792  -0.63259  -0.60478  -0.57467  -0.55569
 Alpha  occ. eigenvalues --   -0.52856  -0.46062  -0.44512  -0.44502
 Alpha virt. eigenvalues --   -0.26764  -0.15807  -0.15088  -0.13463  -0.11063
 Alpha virt. eigenvalues --   -0.09121  -0.07835  -0.06846  -0.03941  -0.03481
 Alpha virt. eigenvalues --   -0.02504  -0.01173  -0.00281   0.00179   0.01048

 Mulliken charges:
               1
     1  C   -0.510653
     2  C    0.394546
     3  C   -0.610847
     4  C    0.326951
     5  C   -0.037239
     6  H    0.288353
     7  H    0.401926
     8  H    0.404005
     9  H    0.247029
    10  N   -0.123569
    11  O    0.137961
    12  O    0.136030
    13  C   -0.484137
    14  H    0.368858
    15  Br   0.060785
 Sum of Mulliken charges =   1.00000

 Dipole moment (field-independent basis, Debye):
    X=              5.8358    Y=              0.1324    Z=              0.4985  Tot=              5.8585
 Quadrupole moment (field-independent basis, Debye-Ang):
   XX=            -55.8128   YY=            -52.8753   ZZ=            -64.3850
   XY=              0.1083   XZ=             -0.6173   YZ=              0.1674

 Normal termination of Gaussian 16 at Wed May  1 14:56:11 2024.
