 Gaussian 16, Revision A.03,
 Gaussian 16:  ES64L-G16RevA.03 25-Dec-2016

 --------------------------------------------------------------------
 #p B3LYP/6-311+G** #p TD=(singlets,nstates=30)IOp(6/8=3) IOp(9/40=4)
 --------------------------------------------------------------------

 ---------------------------------------------
 Scan Step 136, Bond Length 1.1800000000000002
 ---------------------------------------------
 Symbolic Z-matrix:
 Charge =  0 Multiplicity = 1

                         Standard orientation:
 ---------------------------------------------------------------------
 Center     Atomic      Atomic             Coordinates (Angstroms)
 Number     Number       Type             X           Y           Z
 ---------------------------------------------------------------------
      1          6           0        0.000000   -0.000000   -0.516081
      2          1           0        0.000000    0.937260   -1.107431
      3          1           0       -0.000000   -0.937260   -1.107431
      4          8           0        0.000000    0.000000    0.663919
 ---------------------------------------------------------------------

 SCF Done:  E(RB3LYP) =  -114.540993384     A.U. after    9 cycles

 Excitation energies and oscillator strengths:

 Excited State   1:      Singlet-A2     4.0905 eV  303.10 nm  f=0.0000  <S**2>=0.000
       3 -> 27         0.00258
       3 -> 38         0.00218
       3 -> 45         0.00238
       4 -> 27         0.00207
       4 -> 38        -0.00060
       4 -> 45        -0.00126
       5 ->  9         0.02126
       5 -> 13        -0.00394
       5 -> 17         0.00580
       5 -> 23        -0.00059
       5 -> 29         0.00431
       5 -> 31         0.00251
       5 -> 37         0.00358
       5 -> 44         0.00064
       5 -> 47         0.00015
       5 -> 52         0.00080
       6 -> 38        -0.00081
       6 -> 45         0.00177
       7 -> 12        -0.00062
       7 -> 15         0.00262
       7 -> 18        -0.00262
       7 -> 22         0.00088
       7 -> 25         0.00141
       7 -> 30        -0.00088
       7 -> 33         0.00042
       7 -> 35        -0.00032
       7 -> 40        -0.00028
       7 -> 49         0.00041
       7 -> 50         0.00031
       7 -> 53         0.00046
       8 ->  9         0.70496
       8 -> 13        -0.04896
       8 -> 17         0.02338
       8 -> 23        -0.01082
       8 -> 29         0.00866
       8 -> 31         0.00287
       8 -> 37        -0.00035
       8 -> 44        -0.00015
       8 -> 47        -0.00024
       8 -> 52         0.00162
       3 <- 27         0.00170
       3 <- 38         0.00182
       3 <- 45         0.00247
       4 <- 27         0.00289
       4 <- 45        -0.00108
       5 <-  9        -0.00033
       5 <- 13        -0.00085
       5 <- 17        -0.00094
       5 <- 23         0.00055
       5 <- 29        -0.00063
       5 <- 31        -0.00095
       5 <- 37         0.00168
       5 <- 44         0.00028
       5 <- 47         0.00017
       5 <- 52         0.00021
       6 <- 27         0.00053
       6 <- 38        -0.00073
       6 <- 45         0.00138
       7 <- 12        -0.00085
       7 <- 15        -0.00684
       7 <- 22         0.00721
       7 <- 25        -0.00026
       7 <- 30         0.00318
       7 <- 33        -0.00134
       7 <- 35        -0.00246
       7 <- 40        -0.00100
       7 <- 42         0.00013
       7 <- 49         0.00022
       7 <- 50         0.00019
       7 <- 53         0.00125
       8 <-  9        -0.02261
       8 <- 13         0.00344
       8 <- 17        -0.00419
       8 <- 23         0.00080
       8 <- 29        -0.00084
       8 <- 31         0.00100
       8 <- 37        -0.00158
       8 <- 52         0.00047
 This state for optimization and/or second-order correction.
 Total Energy, E(TD-HF/TD-DFT) =  -114.390671320
 Copying the excited state density for this state as the 1-particle RhoCI density.

 Excited State   2:      Singlet-B2     6.8209 eV  181.77 nm  f=0.0345  <S**2>=0.000
       3 -> 12         0.00143
       3 -> 15         0.00071
       3 -> 18         0.00115
       3 -> 22        -0.00030
       3 -> 25         0.00130
       3 -> 30        -0.00010
       3 -> 33         0.00017
       3 -> 35         0.00036
       4 -> 12        -0.00345
       4 -> 15         0.00170
       4 -> 18         0.00216
       4 -> 22        -0.00335
       4 -> 25         0.00348
       4 -> 30         0.00024
       4 -> 33        -0.00058
       4 -> 35        -0.00067
       4 -> 40        -0.00047
       5 -> 10        -0.00588
       5 -> 11        -0.00902
       5 -> 14         0.00699
       5 -> 16        -0.00094
       5 -> 19         0.00113
       5 -> 20         0.00172
       5 -> 21         0.00562
       5 -> 26         0.00260
       5 -> 28         0.00138
       5 -> 32         0.00075
       5 -> 34        -0.00102
       5 -> 36        -0.00023
       5 -> 39        -0.00031
       5 -> 41        -0.00029
       5 -> 43        -0.00056
       5 -> 46        -0.00039
       5 -> 54         0.00011
       6 -> 12         0.00035
       6 -> 15         0.00149
       6 -> 18         0.00246
       6 -> 22        -0.00262
       6 -> 25         0.00129
       6 -> 30        -0.00048
       6 -> 33        -0.00020
       6 -> 35        -0.00029
       6 -> 40         0.00018
       6 -> 42        -0.00021
       6 -> 49         0.00046
       6 -> 50        -0.00037
       7 -> 27         0.00024
       7 -> 38        -0.00050
       7 -> 45         0.00050
       8 -> 10         0.70342
       8 -> 11        -0.06707
       8 -> 14         0.01102
       8 -> 16        -0.00702
       8 -> 19         0.01326
       8 -> 20         0.01338
       8 -> 21        -0.00341
       8 -> 24         0.00033
       8 -> 26         0.00219
       8 -> 28         0.00068
       8 -> 32        -0.00092
       8 -> 34         0.00152
       8 -> 36         0.00043
       8 -> 39         0.00041
       8 -> 41        -0.00017
       8 -> 43         0.00064
       8 -> 46        -0.00069
       8 -> 48        -0.00013
       8 -> 54         0.00018
       3 <- 12         0.00036
       3 <- 15         0.00054
       3 <- 18         0.00045
       3 <- 22        -0.00043
       3 <- 25         0.00078
       3 <- 30        -0.00011
       3 <- 33         0.00014
       3 <- 35         0.00034
       4 <- 12         0.00071
       4 <- 15         0.00186
       4 <- 18         0.00210
       4 <- 22        -0.00205
       4 <- 25         0.00241
       4 <- 30         0.00018
       4 <- 33        -0.00036
       4 <- 35        -0.00039
       4 <- 40        -0.00015
       4 <- 42        -0.00022
       4 <- 49        -0.00010
       4 <- 50        -0.00011
       5 <- 10         0.00242
       5 <- 11        -0.00025
       5 <- 14         0.00491
       5 <- 16        -0.00083
       5 <- 19         0.00025
       5 <- 20         0.00073
       5 <- 21         0.00222
       5 <- 24         0.00181
       5 <- 26         0.00157
       5 <- 28         0.00024
       5 <- 32         0.00048
       5 <- 34        -0.00099
       5 <- 36        -0.00030
       5 <- 39        -0.00017
       5 <- 41        -0.00011
       5 <- 43        -0.00041
       5 <- 46        -0.00034
       6 <- 12         0.00016
       6 <- 18         0.00130
       6 <- 22        -0.00079
       6 <- 25         0.00045
       6 <- 30         0.00030
       6 <- 33        -0.00026
       6 <- 35        -0.00041
       6 <- 40         0.00017
       6 <- 42        -0.00020
       6 <- 49         0.00038
       6 <- 50        -0.00038
       6 <- 53         0.00013
       7 <- 27         0.00020
       7 <- 38        -0.00037
       7 <- 45         0.00044
       8 <- 10        -0.00196
       8 <- 11        -0.00054
       8 <- 14        -0.00606
       8 <- 16        -0.00030
       8 <- 19        -0.00024
       8 <- 20        -0.00051
       8 <- 21        -0.00215
       8 <- 24        -0.00244
       8 <- 26        -0.00055
       8 <- 28        -0.00062
       8 <- 32        -0.00111
       8 <- 34         0.00051
       8 <- 36         0.00039
       8 <- 39         0.00033
       8 <- 43         0.00045
       8 <- 46        -0.00046

 Excited State   3:      Singlet-B2     7.6109 eV  162.90 nm  f=0.0244  <S**2>=0.000
       3 -> 12        -0.00029
       3 -> 15        -0.00075
       3 -> 18         0.00079
       3 -> 22         0.00038
       3 -> 25         0.00019
       3 -> 30         0.00199
       3 -> 33         0.00013
       3 -> 35         0.00044
       3 -> 40         0.00041
       3 -> 49         0.00041
       3 -> 50        -0.00024
       4 -> 12         0.00284
       4 -> 15        -0.00011
       4 -> 18         0.00261
       4 -> 22        -0.00150
       4 -> 25         0.00307
       4 -> 30        -0.00119
       4 -> 33         0.00051
       4 -> 35         0.00051
       4 -> 42        -0.00014
       4 -> 49         0.00024
       5 -> 10        -0.00742
       5 -> 14         0.00802
       5 -> 16        -0.00711
       5 -> 19        -0.00276
       5 -> 20        -0.00425
       5 -> 21         0.00131
       5 -> 24         0.00122
       5 -> 26         0.00069
       5 -> 28         0.00163
       5 -> 32         0.00016
       5 -> 34        -0.00126
       5 -> 36        -0.00021
       5 -> 39         0.00040
       5 -> 41        -0.00077
       5 -> 43         0.00011
       5 -> 46         0.00087
       5 -> 51        -0.00042
       6 -> 12        -0.00314
       6 -> 15        -0.00183
       6 -> 18        -0.00099
       6 -> 22         0.00134
       6 -> 25         0.00014
       6 -> 30         0.00091
       6 -> 33        -0.00052
       6 -> 35        -0.00149
       6 -> 40        -0.00101
       6 -> 49        -0.00105
       6 -> 50         0.00051
       6 -> 53         0.00011
       7 -> 27        -0.00011
       7 -> 38        -0.00098
       7 -> 45        -0.00169
       8 -> 10         0.06756
       8 -> 11         0.70296
       8 -> 14        -0.00742
       8 -> 16         0.01186
       8 -> 19        -0.02862
       8 -> 20         0.00817
       8 -> 21        -0.00269
       8 -> 24         0.00052
       8 -> 26        -0.00148
       8 -> 28         0.00075
       8 -> 32        -0.00026
       8 -> 34        -0.00017
       8 -> 39        -0.00018
       8 -> 41        -0.00127
       8 -> 43         0.00028
       8 -> 46         0.00178
       8 -> 51        -0.00093
       8 -> 54        -0.00013
       3 <- 12         0.00034
       3 <- 15        -0.00024
       3 <- 18         0.00088
       3 <- 25         0.00033
       3 <- 30         0.00114
       3 <- 33         0.00023
       3 <- 35         0.00049
       3 <- 40         0.00037
       3 <- 49         0.00035
       3 <- 50        -0.00016
       3 <- 53        -0.00027
       4 <- 12         0.00034
       4 <- 15         0.00071
       4 <- 18         0.00065
       4 <- 22        -0.00115
       4 <- 25         0.00127
       4 <- 30        -0.00056
       4 <- 33         0.00046
       4 <- 35         0.00017
       4 <- 42        -0.00015
       4 <- 49         0.00017
       4 <- 50        -0.00014
       5 <- 10         0.00127
       5 <- 11        -0.00112
       5 <- 14         0.00253
       5 <- 16        -0.00044
       5 <- 19         0.00101
       5 <- 20        -0.00042
       5 <- 21         0.00077
       5 <- 24         0.00132
       5 <- 26        -0.00015
       5 <- 28         0.00073
       5 <- 32         0.00106
       5 <- 34        -0.00027
       5 <- 36         0.00017
       5 <- 39         0.00012
       5 <- 41        -0.00080
       5 <- 46         0.00080
       5 <- 48         0.00013
       5 <- 51        -0.00032
       6 <- 12        -0.00032
       6 <- 15        -0.00062
       6 <- 22         0.00066
       6 <- 30         0.00063
       6 <- 33        -0.00037
       6 <- 35        -0.00119
       6 <- 40        -0.00076
       6 <- 49        -0.00086
       6 <- 50         0.00041
       7 <- 27         0.00015
       7 <- 38        -0.00078
       7 <- 45        -0.00142
       8 <- 10        -0.00069
       8 <- 11        -0.00063
       8 <- 14        -0.00379
       8 <- 16         0.00047
       8 <- 19         0.00394
       8 <- 20        -0.00109
       8 <- 21        -0.00204
       8 <- 24         0.00033
       8 <- 26        -0.00168
       8 <- 28         0.00020
       8 <- 32         0.00113
       8 <- 34         0.00123
       8 <- 39        -0.00050
       8 <- 41        -0.00111
       8 <- 43         0.00014
       8 <- 46         0.00142
       8 <- 48         0.00020
       8 <- 51        -0.00064

 Excited State   4:      Singlet-A1     7.7963 eV  159.03 nm  f=0.0503  <S**2>=0.000
       3 -> 10         0.00190
       3 -> 11        -0.00087
       3 -> 14         0.00086
       3 -> 16        -0.00017
       3 -> 20         0.00180
       3 -> 21         0.00079
       3 -> 24        -0.00063
       3 -> 26         0.00118
       3 -> 28         0.00097
       3 -> 34        -0.00062
       3 -> 36        -0.00021
       3 -> 41        -0.00021
       3 -> 46         0.00014
       3 -> 48         0.00030
       3 -> 51        -0.00022
       3 -> 54        -0.00020
       4 -> 10         0.00489
       4 -> 11         0.00595
       4 -> 14         0.00495
       4 -> 16         0.00037
       4 -> 19         0.00028
       4 -> 20         0.00414
       4 -> 21         0.00085
       4 -> 24         0.00715
       4 -> 26         0.00163
       4 -> 28        -0.00039
       4 -> 32         0.00065
       4 -> 43         0.00016
       4 -> 46        -0.00021
       4 -> 51        -0.00015
       5 -> 12         0.00643
       5 -> 15         0.00211
       5 -> 18         0.01059
       5 -> 22        -0.00214
       5 -> 25         0.00535
       5 -> 30        -0.00014
       5 -> 33        -0.00016
       5 -> 35        -0.00077
       5 -> 50         0.00024
       5 -> 53        -0.00013
       6 -> 10         0.01235
       6 -> 11        -0.00273
       6 -> 14         0.00441
       6 -> 16         0.00097
       6 -> 19         0.00250
       6 -> 20         0.00407
       6 -> 21         0.00076
       6 -> 24         0.00351
       6 -> 28        -0.00179
       6 -> 32         0.00046
       6 -> 43         0.00013
       6 -> 48        -0.00065
       6 -> 51         0.00021
       6 -> 54        -0.00010
       7 ->  9         0.01818
       7 -> 13         0.01030
       7 -> 17         0.00269
       7 -> 23         0.00523
       7 -> 29        -0.00051
       7 -> 31         0.00089
       7 -> 37         0.00058
       7 -> 44         0.00065
       7 -> 47        -0.00034
       7 -> 52        -0.00011
       8 -> 12         0.70576
       8 -> 15        -0.00886
       8 -> 18         0.03018
       8 -> 22         0.00440
       8 -> 25         0.00361
       8 -> 30         0.00026
       8 -> 33         0.00157
       8 -> 35         0.00199
       8 -> 40        -0.00061
       8 -> 42         0.00022
       8 -> 49        -0.00043
       8 -> 50         0.00029
       8 -> 53        -0.00023
       3 <- 10         0.00061
       3 <- 14         0.00047
       3 <- 19        -0.00018
       3 <- 20         0.00082
       3 <- 21         0.00056
       3 <- 24        -0.00010
       3 <- 26         0.00076
       3 <- 28         0.00064
       3 <- 32        -0.00020
       3 <- 34        -0.00042
       3 <- 36        -0.00016
       3 <- 41        -0.00014
       3 <- 46         0.00022
       3 <- 48         0.00024
       3 <- 51        -0.00019
       3 <- 54        -0.00018
       4 <- 10         0.00431
       4 <- 11         0.00140
       4 <- 14         0.00365
       4 <- 16        -0.00019
       4 <- 19         0.00014
       4 <- 20         0.00237
       4 <- 21         0.00025
       4 <- 24         0.00390
       4 <- 26         0.00103
       4 <- 32         0.00076
       4 <- 34        -0.00049
       4 <- 39        -0.00017
       4 <- 43         0.00011
       4 <- 46        -0.00018
       4 <- 51        -0.00014
       5 <- 12         0.00273
       5 <- 15         0.00251
       5 <- 18         0.00372
       5 <- 22        -0.00075
       5 <- 25         0.00290
       5 <- 30        -0.00014
       5 <- 33        -0.00034
       5 <- 35        -0.00071
       5 <- 50         0.00015
       5 <- 53        -0.00012
       6 <- 10         0.00308
       6 <- 11        -0.00012
       6 <- 14         0.00171
       6 <- 16         0.00028
       6 <- 19         0.00071
       6 <- 20         0.00191
       6 <- 21         0.00016
       6 <- 24         0.00174
       6 <- 26         0.00023
       6 <- 28        -0.00115
       6 <- 32         0.00044
       6 <- 34        -0.00013
       6 <- 41         0.00013
       6 <- 46        -0.00013
       6 <- 48        -0.00054
       6 <- 51         0.00025
       7 <-  9         0.00054
       7 <- 13         0.00234
       7 <- 17         0.00063
       7 <- 23         0.00265
       7 <- 29        -0.00043
       7 <- 31         0.00062
       7 <- 37         0.00045
       7 <- 44         0.00054
       7 <- 47        -0.00029
       7 <- 52        -0.00010
       8 <- 12        -0.00095
       8 <- 15        -0.00584
       8 <- 18        -0.00191
       8 <- 22         0.00072
       8 <- 25        -0.00177
       8 <- 30        -0.00056
       8 <- 33         0.00069
       8 <- 35         0.00088
       8 <- 40        -0.00060
       8 <- 42         0.00020
       8 <- 49        -0.00045
       8 <- 50         0.00020
       8 <- 53        -0.00023

 Excited State   5:      Singlet-A2     8.3009 eV  149.36 nm  f=0.0000  <S**2>=0.000
       3 -> 27        -0.00048
       3 -> 38        -0.00043
       3 -> 45        -0.00024
       4 -> 27         0.00020
       4 -> 38         0.00049
       5 ->  9        -0.00664
       5 -> 13        -0.00414
       5 -> 17         0.00654
       5 -> 23        -0.00193
       5 -> 29        -0.00013
       5 -> 31        -0.00149
       5 -> 37        -0.00098
       5 -> 44        -0.00020
       6 -> 27         0.00023
       6 -> 38         0.00029
       6 -> 45        -0.00025
       7 -> 12        -0.00033
       7 -> 15        -0.00186
       7 -> 18         0.00200
       7 -> 22        -0.00069
       7 -> 35         0.00013
       7 -> 40         0.00011
       8 ->  9         0.04868
       8 -> 13         0.70489
       8 -> 17         0.01905
       8 -> 23         0.01707
       8 -> 29         0.00019
       8 -> 31        -0.00155
       8 -> 37        -0.00031
       8 -> 47         0.00017
       8 -> 52        -0.00011
       3 <- 27        -0.00014
       3 <- 38        -0.00028
       3 <- 45        -0.00032
       4 <- 27        -0.00012
       5 <-  9        -0.00031
       5 <- 13        -0.00033
       5 <- 17         0.00054
       5 <- 37        -0.00021
       6 <- 38         0.00019
       7 <- 12        -0.00061
       7 <- 15        -0.00097
       7 <- 18         0.00074
       7 <- 22        -0.00098
       7 <- 25        -0.00041
       7 <- 30         0.00022
       7 <- 33         0.00038
       7 <- 35         0.00061
       7 <- 40         0.00037
       8 <-  9         0.00189
       8 <- 13         0.00134
       8 <- 17         0.00024
       8 <- 23        -0.00017
       8 <- 37         0.00014

 Excited State   6:      Singlet-B1     9.3621 eV  132.43 nm  f=0.0008  <S**2>=0.000
       3 ->  9        -0.03220
       3 -> 13         0.00663
       3 -> 17        -0.00752
       3 -> 23         0.00482
       3 -> 29        -0.00310
       3 -> 31        -0.00013
       3 -> 44         0.00075
       3 -> 52         0.00111
       4 ->  9         0.01694
       4 -> 13        -0.00284
       4 -> 17         0.00109
       4 -> 23        -0.00246
       4 -> 29        -0.00017
       4 -> 31         0.00292
       4 -> 37        -0.00028
       4 -> 44        -0.00017
       4 -> 47        -0.00169
       4 -> 52        -0.00102

 The electronic state is 1-A1.
 Alpha  occ. eigenvalues --  -19.14962 -10.27533  -1.08886  -0.64200  -0.51053
 Alpha  occ. eigenvalues --   -0.46809  -0.42146  -0.28027
 Alpha virt. eigenvalues --   -0.05848   0.00846   0.03976   0.04276   0.06526
 Alpha virt. eigenvalues --    0.13032   0.18065   0.18520   0.21993   0.23122
 Alpha virt. eigenvalues --    0.27064   0.33349   0.46194   0.46959   0.50956

 Mulliken charges:
               1
     1  C    0.024893
     2  H    0.105531
     3  H    0.105531
     4  O   -0.235956
 Sum of Mulliken charges =  -0.00000

 Dipole moment (field-independent basis, Debye):
    X=             -0.0000    Y=              0.0000    Z=             -2.3730  Tot=              2.3730
 Quadrupole moment (field-independent basis, Debye-Ang):
   XX=            -11.6823   YY=            -11.7519   ZZ=            -12.4991
   XY=              0.0000   XZ=              0.0000   YZ=              0.0000

 Normal termination of Gaussian 16 at Fri Sep 17 10:52:42 2021.
