 Gaussian 16, Revision A.03,
 Gaussian 16:  ES64L-G16RevA.03 25-Dec-2016

 --------------------------------------------------------------------
 #p B3LYP/6-311+G** #p TD=(singlets,nstates=30)IOp(6/8=3) IOp(9/40=4)
 --------------------------------------------------------------------

 ---------------------------------------------
 Scan Step 255, Bond Length 1.7750000000000001
 ---------------------------------------------
 Symbolic Z-matrix:
 Charge =  0 Multiplicity = 1

                         Standard orientation:
 ---------------------------------------------------------------------
 Center     Atomic      Atomic             Coordinates (Angstroms)
 Number     Number       Type             X           Y           Z
 ---------------------------------------------------------------------
      1          6           0        0.000000    0.000000   -0.813581
      2          1           0        0.000000    0.937260   -1.404931
      3          1           0       -0.000000   -0.937260   -1.404931
      4          8           0        0.000000   -0.000000    0.961419
 ---------------------------------------------------------------------

 SCF Done:  E(RB3LYP) =  -114.364968140     A.U. after   11 cycles

 Excitation energies and oscillator strengths:

 Excited State   1:      Singlet-A2     1.4310 eV  866.41 nm  f=0.0000  <S**2>=0.000
       3 -> 27         0.00081
       3 -> 38         0.00053
       3 -> 46         0.00336
       4 -> 27         0.00045
       4 -> 46        -0.00105
       5 ->  9         0.00281
       5 -> 13         0.00111
       5 -> 18         0.00195
       5 -> 23         0.00146
       5 -> 28         0.00156
       5 -> 37         0.00087
       5 -> 44         0.00024
       5 -> 52         0.00021
       6 -> 27        -0.00060
       6 -> 38        -0.00062
       6 -> 46         0.00104
       7 -> 12        -0.00118
       7 -> 16         0.00520
       7 -> 19        -0.00453
       7 -> 22        -0.00107
       7 -> 25        -0.00065
       7 -> 29        -0.00183
       7 -> 33         0.00029
       7 -> 49         0.00013
       7 -> 53         0.00040
       8 ->  9         0.71019
       8 -> 13        -0.00806
       8 -> 18         0.02105
       8 -> 23        -0.00144
       8 -> 28         0.01054
       8 -> 31         0.00155
       8 -> 37         0.00052
       8 -> 48        -0.00030
       8 -> 52         0.00189
       3 <- 27         0.00026
       3 <- 38         0.00030
       3 <- 46         0.00339
       4 <- 27         0.00082
       4 <- 38         0.00021
       4 <- 46        -0.00083
       5 <-  9         0.00021
       5 <- 13        -0.00038
       5 <- 18        -0.00045
       5 <- 23         0.00019
       5 <- 28        -0.00032
       5 <- 31         0.00025
       5 <- 37         0.00050
       6 <- 38        -0.00048
       6 <- 46         0.00077
       7 <- 12         0.00152
       7 <- 16        -0.01051
       7 <- 19         0.00515
       7 <- 22         0.00606
       7 <- 25        -0.00062
       7 <- 29         0.00557
       7 <- 33        -0.00037
       7 <- 35         0.00028
       7 <- 40        -0.00019
       7 <- 42         0.00014
       7 <- 49        -0.00048
       7 <- 53         0.00146
       8 <-  9        -0.06922
       8 <- 13        -0.00023
       8 <- 18        -0.00749
       8 <- 23        -0.00022
       8 <- 28        -0.00269
       8 <- 31        -0.00077
       8 <- 37        -0.00025
       8 <- 48         0.00013
       8 <- 52         0.00046
 This state for optimization and/or second-order correction.
 Total Energy, E(TD-HF/TD-DFT) =  -114.312379600
 Copying the excited state density for this state as the 1-particle RhoCI density.

 Excited State   2:      Singlet-A1     3.7575 eV  329.97 nm  f=0.0394  <S**2>=0.000
       3 -> 10        -0.01643
       3 -> 11        -0.00441
       3 -> 14         0.00292
       3 -> 15         0.00097
       3 -> 17        -0.00320
       3 -> 20        -0.00376
       3 -> 21         0.00019
       3 -> 24         0.00091
       3 -> 26         0.00187
       3 -> 30        -0.00102
       3 -> 32         0.00277
       3 -> 34        -0.00127
       3 -> 36        -0.00109
       3 -> 39         0.00051
       3 -> 43         0.00053
       3 -> 45         0.00078
       3 -> 47         0.00230
       3 -> 50         0.00145
       4 -> 10        -0.00307
       4 -> 11         0.01153
       4 -> 14         0.00245
       4 -> 15        -0.00839
       4 -> 17         0.00247
       4 -> 20         0.00277
       4 -> 21         0.00032
       4 -> 24        -0.00404
       4 -> 26         0.00376
       4 -> 30         0.00059
       4 -> 32        -0.00131
       4 -> 34         0.00095
       4 -> 36         0.00024
       4 -> 39         0.00013
       4 -> 43        -0.00050
       4 -> 45        -0.00080
       4 -> 47        -0.00087
       4 -> 50        -0.00030
       4 -> 54         0.00015
       5 -> 12         0.01127
       5 -> 16         0.00421
       5 -> 19         0.00127
       5 -> 22         0.00719
       5 -> 25        -0.00544
       5 -> 29         0.00030
       5 -> 33        -0.00257
       5 -> 35         0.00276
       5 -> 40        -0.00113
       5 -> 42         0.00091
       5 -> 49         0.00022
       5 -> 51        -0.00081
       6 -> 10         0.23604
       6 -> 11         0.04838
       6 -> 14        -0.05459
       6 -> 15        -0.02870
       6 -> 17        -0.01691
       6 -> 20        -0.00322
       6 -> 21         0.00714
       6 -> 24        -0.00925
       6 -> 26        -0.00397
       6 -> 30        -0.00544
       6 -> 32         0.00306
       6 -> 34        -0.00140
       6 -> 36         0.00026
       6 -> 39         0.00122
       6 -> 41        -0.00017
       6 -> 43         0.00085
       6 -> 45         0.00084
       6 -> 47         0.00088
       6 -> 50         0.00064
       6 -> 54        -0.00091
       7 ->  9         0.67815
       7 -> 13        -0.00562
       7 -> 18        -0.01220
       7 -> 23        -0.00215
       7 -> 28         0.00072
       7 -> 31        -0.00326
       7 -> 37         0.00126
       7 -> 44        -0.00098
       7 -> 48         0.00015
       7 -> 52         0.00106
       8 -> 12        -0.00779
       8 -> 16         0.04334
       8 -> 19        -0.02000
       8 -> 22        -0.01553
       8 -> 29        -0.00895
       8 -> 33         0.00118
       8 -> 35        -0.00105
       8 -> 40         0.00046
       8 -> 42        -0.00032
       8 -> 49         0.00024
       8 -> 51         0.00016
       8 -> 53        -0.00055
       3 <- 10        -0.01246
       3 <- 11        -0.00371
       3 <- 14         0.00239
       3 <- 15         0.00036
       3 <- 17        -0.00179
       3 <- 20        -0.00311
       3 <- 21        -0.00027
       3 <- 24         0.00033
       3 <- 26         0.00082
       3 <- 30        -0.00052
       3 <- 32         0.00246
       3 <- 34        -0.00069
       3 <- 36        -0.00103
       3 <- 39         0.00048
       3 <- 43         0.00060
       3 <- 45         0.00094
       3 <- 47         0.00233
       3 <- 50         0.00145
       3 <- 54         0.00010
       4 <- 10        -0.00082
       4 <- 11         0.00811
       4 <- 14         0.00168
       4 <- 15        -0.00556
       4 <- 17         0.00144
       4 <- 20         0.00303
       4 <- 21         0.00016
       4 <- 24        -0.00300
       4 <- 26         0.00324
       4 <- 32        -0.00147
       4 <- 34         0.00080
       4 <- 36         0.00053
       4 <- 39         0.00013
       4 <- 43        -0.00046
       4 <- 45        -0.00077
       4 <- 47        -0.00054
       4 <- 50        -0.00017
       4 <- 54         0.00012
       5 <- 12         0.00635
       5 <- 16         0.00262
       5 <- 19         0.00098
       5 <- 22         0.00501
       5 <- 25        -0.00412
       5 <- 29         0.00033
       5 <- 33        -0.00211
       5 <- 35         0.00235
       5 <- 40        -0.00102
       5 <- 42         0.00080
       5 <- 49         0.00021
       5 <- 51        -0.00076
       6 <- 10         0.07880
       6 <- 11         0.01889
       6 <- 14        -0.02512
       6 <- 15        -0.01455
       6 <- 17        -0.00973
       6 <- 20        -0.00322
       6 <- 21         0.00475
       6 <- 24        -0.00602
       6 <- 26        -0.00215
       6 <- 30        -0.00377
       6 <- 32         0.00317
       6 <- 34        -0.00159
       6 <- 36        -0.00024
       6 <- 39         0.00114
       6 <- 41        -0.00015
       6 <- 43         0.00070
       6 <- 45         0.00064
       6 <- 47         0.00051
       6 <- 50         0.00050
       6 <- 54        -0.00082
       7 <-  9        -0.13060
       7 <- 13         0.00433
       7 <- 18        -0.01204
       7 <- 23         0.00139
       7 <- 28        -0.00220
       7 <- 31        -0.00159
       7 <- 37         0.00058
       7 <- 44        -0.00074
       7 <- 48        -0.00037
       7 <- 52         0.00096
       8 <- 12        -0.00286
       8 <- 16         0.02015
       8 <- 19        -0.01084
       8 <- 22        -0.00984
       8 <- 25         0.00010
       8 <- 29        -0.00701
       8 <- 33         0.00093
       8 <- 35        -0.00083
       8 <- 40         0.00037
       8 <- 42        -0.00025
       8 <- 51         0.00014
       8 <- 53        -0.00051

 Excited State   3:      Singlet-B1     4.2269 eV  293.32 nm  f=0.0007  <S**2>=0.000
       3 ->  9        -0.02457
       3 -> 13         0.00103
       3 -> 18        -0.00386
       3 -> 23         0.00132
       3 -> 28        -0.00082
       3 -> 31        -0.00062
       3 -> 37         0.00012
       3 -> 44         0.00030
       3 -> 48         0.00071
       3 -> 52         0.00079
       4 ->  9         0.00950
       4 -> 13        -0.00211
       4 -> 18         0.00013
       4 -> 23        -0.00189
       4 -> 28         0.00044
       4 -> 31        -0.00128
       4 -> 37        -0.00030
       4 -> 48        -0.00067
       4 -> 52        -0.00037
       5 -> 38         0.00177
       5 -> 46         0.00053
       6 ->  9         0.68540
       6 -> 13        -0.01744
       6 -> 18         0.01462
       6 -> 23        -0.01030
       6 -> 28         0.00360
       6 -> 31         0.00247
       6 -> 37        -0.00167
       6 -> 44        -0.00205
       6 -> 48         0.00355
       6 -> 52         0.00109
       7 -> 10         0.17572
       7 -> 11         0.02594
       7 -> 14        -0.02392
       7 -> 15        -0.00738
       7 -> 17        -0.00943
       7 -> 20         0.00362
       7 -> 21         0.00140
       7 -> 24        -0.00220
       7 -> 26        -0.00258
       7 -> 30        -0.00438
       7 -> 34        -0.00074
       7 -> 36         0.00150
       7 -> 39         0.00018
       7 -> 41        -0.00023
       7 -> 43         0.00048
       7 -> 45         0.00045
       7 -> 47         0.00370
       7 -> 50         0.00122
       8 -> 27         0.00015
       8 -> 46         0.00455
       3 <-  9        -0.00828
       3 <- 13        -0.00084
       3 <- 18        -0.00258
       3 <- 23        -0.00058
       3 <- 28        -0.00045
       3 <- 31        -0.00075
       3 <- 37         0.00016
       3 <- 48         0.00083
       3 <- 52         0.00070
       4 <-  9         0.00574
       4 <- 13        -0.00039
       4 <- 18         0.00152
       4 <- 23        -0.00071
       4 <- 28         0.00142
       4 <- 31        -0.00089
       4 <- 37        -0.00019
       4 <- 48        -0.00060
       4 <- 52        -0.00020
       5 <- 27        -0.00046
       5 <- 38         0.00152
       5 <- 46         0.00047
       6 <-  9        -0.03556
       6 <- 13         0.00200
       6 <- 18        -0.00436
       6 <- 28        -0.00387
       6 <- 31         0.00036
       6 <- 37        -0.00137
       6 <- 44        -0.00074
       6 <- 48         0.00318
       6 <- 52         0.00015
       7 <- 10        -0.04033
       7 <- 11        -0.00956
       7 <- 14         0.01378
       7 <- 15         0.00890
       7 <- 17         0.00270
       7 <- 20         0.00340
       7 <- 21        -0.00350
       7 <- 24         0.00420
       7 <- 26         0.00174
       7 <- 30         0.00186
       7 <- 32         0.00036
       7 <- 34        -0.00105
       7 <- 36         0.00166
       7 <- 39         0.00058
       7 <- 41         0.00011
       7 <- 43         0.00028
       7 <- 45         0.00022
       7 <- 47         0.00343
       7 <- 50         0.00129
       7 <- 54         0.00089
       8 <- 27         0.00062
       8 <- 38         0.00013
       8 <- 46         0.00427

 Excited State   4:      Singlet-B2     4.2703 eV  290.34 nm  f=0.0038  <S**2>=0.000
       3 -> 12        -0.00133
       3 -> 16         0.00157
       3 -> 19        -0.00426
       3 -> 22         0.00097
       3 -> 25        -0.00083
       3 -> 29        -0.00289
       3 -> 33         0.00011
       3 -> 35         0.00169
       3 -> 40        -0.00151
       3 -> 42         0.00052
       3 -> 49        -0.00364
       3 -> 51         0.00019
       3 -> 53         0.00029
       4 -> 12         0.00044
       4 -> 16        -0.00179
       4 -> 19         0.00042
       4 -> 22         0.00209
       4 -> 25         0.00087
       4 -> 29         0.00110
       4 -> 33        -0.00038
       4 -> 35         0.00047
       4 -> 40         0.00036
       4 -> 42        -0.00012
       4 -> 49         0.00069
       4 -> 51        -0.00011
       5 -> 10         0.01081
       5 -> 11         0.00199
       5 -> 14        -0.00499
       5 -> 15         0.00375
       5 -> 17        -0.00042
       5 -> 20         0.00208
       5 -> 21         0.00385
       5 -> 24         0.00158
       5 -> 26        -0.00082
       5 -> 30        -0.00202
       5 -> 32        -0.00174
       5 -> 34         0.00047
       5 -> 39        -0.00080
       5 -> 41         0.00050
       5 -> 47        -0.00052
       5 -> 50         0.00033
       5 -> 54        -0.00022
       6 -> 12         0.00262
       6 -> 16        -0.00256
       6 -> 19         0.00396
       6 -> 22        -0.00055
       6 -> 25         0.00108
       6 -> 35        -0.00150
       6 -> 40         0.00111
       6 -> 42        -0.00068
       6 -> 49         0.00142
       6 -> 53        -0.00045
       7 -> 27        -0.00061
       7 -> 38         0.00045
       7 -> 46         0.00337
       8 -> 10         0.69805
       8 -> 11         0.08540
       8 -> 14        -0.07318
       8 -> 15        -0.02863
       8 -> 17        -0.01642
       8 -> 20         0.00323
       8 -> 21         0.00689
       8 -> 24        -0.00640
       8 -> 26        -0.00496
       8 -> 30        -0.01224
       8 -> 32        -0.00313
       8 -> 34         0.00149
       8 -> 36         0.00101
       8 -> 39        -0.00068
       8 -> 41        -0.00011
       8 -> 45         0.00097
       8 -> 47        -0.00417
       8 -> 50         0.00175
       8 -> 54        -0.00232
       3 <- 12        -0.00047
       3 <- 16         0.00051
       3 <- 19        -0.00207
       3 <- 22         0.00096
       3 <- 25        -0.00074
       3 <- 29        -0.00116
       3 <- 33         0.00013
       3 <- 35         0.00119
       3 <- 40        -0.00131
       3 <- 42         0.00040
       3 <- 49        -0.00371
       3 <- 51         0.00018
       3 <- 53         0.00080
       4 <- 16        -0.00188
       4 <- 19         0.00015
       4 <- 22         0.00230
       4 <- 25         0.00053
       4 <- 29         0.00123
       4 <- 33        -0.00042
       4 <- 35         0.00068
       4 <- 40         0.00014
       4 <- 49         0.00049
       5 <- 10        -0.00084
       5 <- 11        -0.00089
       5 <- 14        -0.00060
       5 <- 15         0.00291
       5 <- 17         0.00020
       5 <- 20         0.00076
       5 <- 21         0.00183
       5 <- 24         0.00187
       5 <- 26        -0.00021
       5 <- 30        -0.00043
       5 <- 32        -0.00032
       5 <- 39        -0.00033
       5 <- 41         0.00053
       5 <- 45         0.00027
       5 <- 47        -0.00051
       5 <- 50         0.00018
       6 <- 12        -0.00051
       6 <- 16         0.00724
       6 <- 19        -0.00365
       6 <- 22        -0.00502
       6 <- 25         0.00105
       6 <- 29        -0.00585
       6 <- 33         0.00031
       6 <- 35        -0.00139
       6 <- 40         0.00113
       6 <- 42        -0.00073
       6 <- 49         0.00183
       6 <- 53        -0.00135
       7 <- 27        -0.00060
       7 <- 38         0.00037
       7 <- 46         0.00288
       8 <- 10        -0.03497
       8 <- 11        -0.00833
       8 <- 14         0.00886
       8 <- 15         0.00245
       8 <- 17         0.00142
       8 <- 20        -0.00301
       8 <- 21        -0.00165
       8 <- 24         0.00160
       8 <- 26         0.00147
       8 <- 30         0.00060
       8 <- 32         0.00307
       8 <- 34        -0.00097
       8 <- 36        -0.00066
       8 <- 39         0.00130
       8 <- 41         0.00030
       8 <- 43         0.00048
       8 <- 45         0.00174
       8 <- 47        -0.00338
       8 <- 50         0.00128
       8 <- 54        -0.00063

 Excited State   5:      Singlet-B1     5.1143 eV  242.43 nm  f=0.0074  <S**2>=0.000
       3 ->  9        -0.00823
       3 -> 13         0.00038
       3 -> 18        -0.00249
       3 -> 23         0.00061
       3 -> 28        -0.00285
       3 -> 31        -0.00153
       3 -> 37         0.00011
       3 -> 44         0.00030
       3 -> 48        -0.00285
       3 -> 52        -0.00013
       4 ->  9        -0.03127
       4 -> 13         0.00608
       4 -> 18         0.00107
       4 -> 23         0.00462
       4 -> 28         0.00136
       4 -> 31         0.00016
       4 -> 37         0.00033
       4 -> 44        -0.00045
       4 -> 48         0.00077
       4 -> 52         0.00014
       5 -> 27        -0.00669
       5 -> 38        -0.00331
       5 -> 46         0.00029
       6 ->  9        -0.17635
       6 -> 13         0.00021
       6 -> 18         0.00116
       6 -> 23         0.00071
       6 -> 28         0.00310
       6 -> 31        -0.00377
       6 -> 37         0.00222
       6 -> 44         0.00054
       6 -> 48         0.00012
       6 -> 52        -0.00071
       7 -> 10         0.67699
       7 -> 11         0.07190
       7 -> 14        -0.06490
       7 -> 15        -0.03458
       7 -> 17        -0.00953
       7 -> 20        -0.00302
       7 -> 21         0.00363
       7 -> 24        -0.00971
       7 -> 26        -0.00639
       7 -> 30        -0.00722
       7 -> 32        -0.00191
       7 -> 34         0.00381
       7 -> 36        -0.00146
       7 -> 39        -0.00063
       7 -> 43         0.00059
       7 -> 45         0.00096
       7 -> 47         0.00126
       7 -> 50         0.00061
       7 -> 54        -0.00161
       8 -> 27         0.00075
       8 -> 38         0.00022
       8 -> 46         0.00153
       3 <-  9        -0.00176
       3 <- 13         0.00067
       3 <- 18        -0.00096
       3 <- 23         0.00060
       3 <- 28        -0.00188
       3 <- 31        -0.00024
       3 <- 37        -0.00021
       3 <- 48        -0.00300
       3 <- 52         0.00032
       4 <-  9        -0.01273
       4 <- 13         0.00270
       4 <- 18         0.00033
       4 <- 23         0.00263
       4 <- 28         0.00131
       4 <- 37         0.00037
       4 <- 44        -0.00066
       4 <- 48         0.00036
       4 <- 52         0.00013
       5 <- 27        -0.00471
       5 <- 38        -0.00265
       5 <- 46         0.00030
       6 <-  9        -0.02817
       6 <- 18        -0.00367
       6 <- 23         0.00055
       6 <- 28        -0.00042
       6 <- 31        -0.00454
       6 <- 37         0.00204
       6 <- 44         0.00067

 The electronic state is 1-A1.
 Alpha  occ. eigenvalues --  -19.17654 -10.33697  -0.89894  -0.71074  -0.49128
 Alpha  occ. eigenvalues --   -0.39531  -0.31190  -0.28777
 Alpha virt. eigenvalues --   -0.16634  -0.05710   0.00111   0.04055   0.06097
 Alpha virt. eigenvalues --    0.06725   0.11942   0.13557   0.18793   0.21101
 Alpha virt. eigenvalues --    0.23972   0.30369   0.38593   0.39883   0.50720

 Mulliken charges:
               1
     1  C   -0.090042
     2  H    0.190203
     3  H    0.190203
     4  O   -0.290365
 Sum of Mulliken charges =   0.00000

 Dipole moment (field-independent basis, Debye):
    X=             -0.0000    Y=              0.0000    Z=             -4.0876  Tot=              4.0876
 Quadrupole moment (field-independent basis, Debye-Ang):
   XX=            -12.9835   YY=            -12.0055   ZZ=            -10.7966
   XY=              0.0000   XZ=              0.0000   YZ=             -0.0000

 Normal termination of Gaussian 16 at Fri Sep 17 10:53:08 2021.
