 Gaussian 16, Revision C.01,
 Gaussian 16:  ES64L-G16RevC.01  3-Jul-2019

 ----------------------------------------
 #P wB97XD/6-311+G* NoSymm #P Field=Y-243
 ----------------------------------------

 -------
 TitleMe
 -------
 Symbolic Z-matrix:
 Charge =  1 Multiplicity = 1

                          Input orientation:
 ---------------------------------------------------------------------
 Center     Atomic      Atomic             Coordinates (Angstroms)
 Number     Number       Type             X           Y           Z
 ---------------------------------------------------------------------
      1          6           0        0.029500    1.339700    0.068200
      2          6           0        1.434800    1.286700    0.006400
      3          6           0        2.111800    0.051100   -0.005400
      4          6           0        1.445100   -1.137200    0.031200
      5          6           0       -0.687900    0.168200    0.110000
      6          1           0       -0.471300    2.298400    0.078100
      7          1           0        2.027300    2.196500   -0.032200
      8          1           0        1.989700   -2.076400    0.023200
      9          1           0       -1.771600    0.180400    0.158200
     10          7           0        3.586400    0.051000   -0.067500
     11          8           0        4.147100   -1.059700   -0.088100
     12          8           0        4.145000    1.163900   -0.090100
     13          6           0       -0.023600   -1.145800    0.083500
     14          1           0       -0.436700   -1.872500    0.788900
     15         35           0       -0.535900   -1.869700   -1.740800
 ---------------------------------------------------------------------

 SCF Done:  E(RwB97XD) =  -3010.56316752     A.U. after   21 cycles

 Alpha  occ. eigenvalues -- -483.35360 -62.90423 -56.70056 -56.69570 -56.69564
 Alpha  occ. eigenvalues --  -19.46931 -19.46385 -14.85993 -10.61694 -10.58570
 Alpha  occ. eigenvalues --  -10.58485 -10.57282 -10.56790 -10.51944  -9.06256
 Alpha  occ. eigenvalues --   -6.88766  -6.87158  -6.87139  -2.98710  -2.98280
 Alpha  occ. eigenvalues --   -2.98265  -2.96977  -2.96977  -1.50338  -1.33305
 Alpha  occ. eigenvalues --   -1.24022  -1.16099  -1.12148  -1.07475  -1.01712
 Alpha  occ. eigenvalues --   -0.96673  -0.91771  -0.86083  -0.81787  -0.81305
 Alpha  occ. eigenvalues --   -0.80764  -0.79826  -0.76698  -0.76194  -0.74220
 Alpha  occ. eigenvalues --   -0.69524  -0.67305  -0.64694  -0.62843  -0.61216
 Alpha  occ. eigenvalues --   -0.57975  -0.57594  -0.56785  -0.56046
 Alpha virt. eigenvalues --   -0.31135  -0.22116  -0.20472  -0.18942  -0.15587
 Alpha virt. eigenvalues --   -0.14731  -0.13598  -0.10394  -0.09298  -0.08823
 Alpha virt. eigenvalues --   -0.07004  -0.05645  -0.04706  -0.03552  -0.02353

 Mulliken charges:
               1
     1  C   -0.518651
     2  C    0.416914
     3  C   -0.613471
     4  C    0.283538
     5  C    0.059640
     6  H    0.426805
     7  H    0.448004
     8  H    0.287270
     9  H    0.358796
    10  N   -0.110065
    11  O   -0.088649
    12  O    0.169712
    13  C   -0.476339
    14  H    0.341050
    15  Br   0.015447
 Sum of Mulliken charges =   1.00000

 Dipole moment (field-independent basis, Debye):
    X=              0.0707    Y=              6.4303    Z=              0.8636  Tot=              6.4884
 Quadrupole moment (field-independent basis, Debye-Ang):
   XX=            -69.7521   YY=            -56.0304   ZZ=            -64.7847
   XY=              9.1229   XZ=              0.3388   YZ=             -1.5758

 Normal termination of Gaussian 16 at Wed May  1 14:49:23 2024.
