 Gaussian 16, Revision A.03,
 Gaussian 16:  ES64L-G16RevA.03 25-Dec-2016

 --------------------------------------------------------------------
 #p B3LYP/6-311+G** #p TD=(singlets,nstates=30)IOp(6/8=3) IOp(9/40=4)
 --------------------------------------------------------------------

 --------------------------------
 Scan Step 173, Bond Length 1.365
 --------------------------------
 Symbolic Z-matrix:
 Charge =  0 Multiplicity = 1

                         Standard orientation:
 ---------------------------------------------------------------------
 Center     Atomic      Atomic             Coordinates (Angstroms)
 Number     Number       Type             X           Y           Z
 ---------------------------------------------------------------------
      1          6           0        0.000000    0.000000   -0.608581
      2          1           0        0.000000    0.937260   -1.199931
      3          1           0       -0.000000   -0.937260   -1.199931
      4          8           0        0.000000   -0.000000    0.756419
 ---------------------------------------------------------------------

 SCF Done:  E(RB3LYP) =  -114.512021500     A.U. after    9 cycles

 Excitation energies and oscillator strengths:

 Excited State   1:      Singlet-A2     3.0430 eV  407.44 nm  f=0.0000  <S**2>=0.000
       3 -> 27         0.00192
       3 -> 38         0.00158
       3 -> 46         0.00292
       4 -> 27         0.00130
       4 -> 38        -0.00035
       4 -> 46        -0.00141
       5 ->  9         0.01651
       5 -> 13        -0.00058
       5 -> 17         0.00458
       5 -> 23         0.00106
       5 -> 29         0.00401
       5 -> 31        -0.00106
       5 -> 37         0.00253
       5 -> 44         0.00050
       5 -> 48         0.00012
       5 -> 52         0.00060
       6 -> 27        -0.00045
       6 -> 38        -0.00088
       6 -> 46         0.00169
       7 -> 12        -0.00066
       7 -> 15         0.00373
       7 -> 19        -0.00335
       7 -> 25         0.00132
       7 -> 30        -0.00114
       7 -> 33         0.00045
       7 -> 35         0.00010
       7 -> 40         0.00011
       7 -> 42        -0.00011
       7 -> 49         0.00019
       7 -> 50         0.00028
       7 -> 53         0.00048
       8 ->  9         0.70680
       8 -> 13        -0.02634
       8 -> 17         0.02232
       8 -> 23        -0.00744
       8 -> 29         0.01054
       8 -> 31        -0.00082
       8 -> 37         0.00048
       8 -> 48        -0.00028
       8 -> 52         0.00186
       3 <- 27         0.00114
       3 <- 38         0.00125
       3 <- 46         0.00300
       4 <- 27         0.00203
       4 <- 38         0.00017
       4 <- 46        -0.00116
       5 <-  9        -0.00058
       5 <- 13        -0.00072
       5 <- 17        -0.00097
       5 <- 23         0.00044
       5 <- 29        -0.00069
       5 <- 31         0.00061
       5 <- 37         0.00129
       5 <- 44         0.00018
       5 <- 48         0.00012
       5 <- 52         0.00016
       6 <- 27         0.00017
       6 <- 38        -0.00076
       6 <- 46         0.00132
       7 <- 12        -0.00038
       7 <- 15        -0.00863
       7 <- 19         0.00166
       7 <- 22         0.00747
       7 <- 25         0.00023
       7 <- 30         0.00436
       7 <- 33        -0.00104
       7 <- 35         0.00185
       7 <- 40         0.00083
       7 <- 49        -0.00012
       7 <- 50         0.00019
       7 <- 53         0.00139
       8 <-  9        -0.03299
       8 <- 13         0.00178
       8 <- 17        -0.00520
       8 <- 23         0.00066
       8 <- 29        -0.00159
       8 <- 31        -0.00054
       8 <- 37        -0.00096
       8 <- 52         0.00052
 This state for optimization and/or second-order correction.
 Total Energy, E(TD-HF/TD-DFT) =  -114.400194325
 Copying the excited state density for this state as the 1-particle RhoCI density.

 Excited State   2:      Singlet-B2     6.9533 eV  178.31 nm  f=0.0146  <S**2>=0.000
       3 -> 12         0.00177
       3 -> 15         0.00050
       3 -> 19         0.00146
       3 -> 22        -0.00034
       3 -> 25         0.00110
       3 -> 30         0.00010
       3 -> 33         0.00029
       3 -> 35        -0.00064
       3 -> 40        -0.00033
       3 -> 49         0.00029
       3 -> 53        -0.00011
       4 -> 12        -0.00205
       4 -> 15         0.00217
       4 -> 19         0.00165
       4 -> 22        -0.00316
       4 -> 25         0.00292
       4 -> 30         0.00028
       4 -> 33        -0.00016
       4 -> 35         0.00029
       4 -> 40         0.00042
       4 -> 42        -0.00013
       5 -> 10        -0.00863
       5 -> 11        -0.00502
       5 -> 14         0.00761
       5 -> 16        -0.00048
       5 -> 18         0.00460
       5 -> 20         0.00197
       5 -> 21        -0.00552
       5 -> 24        -0.00101
       5 -> 26         0.00187
       5 -> 28         0.00096
       5 -> 32        -0.00104
       5 -> 34        -0.00098
       5 -> 36        -0.00022
       5 -> 39        -0.00014
       5 -> 41        -0.00057
       5 -> 43        -0.00040
       5 -> 54         0.00013
       6 -> 12        -0.00150
       6 -> 15         0.00123
       6 -> 19         0.00055
       6 -> 22        -0.00193
       6 -> 25         0.00081
       6 -> 30        -0.00044
       6 -> 33        -0.00033
       6 -> 35         0.00083
       6 -> 40         0.00018
       6 -> 42        -0.00013
       6 -> 49         0.00031
       6 -> 50        -0.00016
       7 -> 38        -0.00075
       7 -> 46        -0.00012
       8 -> 10         0.70342
       8 -> 11        -0.06282
       8 -> 14         0.02550
       8 -> 16        -0.00153
       8 -> 18         0.00984
       8 -> 20         0.01699
       8 -> 21         0.00188
       8 -> 24         0.00022
       8 -> 26         0.00336
       8 -> 28         0.00158
       8 -> 32         0.00087
       8 -> 34         0.00040
       8 -> 36         0.00018
       8 -> 39         0.00029
       8 -> 41        -0.00030
       8 -> 43         0.00059
       8 -> 47         0.00021
       8 -> 51        -0.00029
       8 -> 54         0.00027
       3 <- 12         0.00039
       3 <- 15         0.00046
       3 <- 19         0.00056
       3 <- 22        -0.00057
       3 <- 25         0.00057
       3 <- 33         0.00025
       3 <- 35        -0.00056
       3 <- 40        -0.00033
       3 <- 49         0.00034
       3 <- 53        -0.00012
       4 <- 12         0.00077
       4 <- 15         0.00200
       4 <- 19         0.00157
       4 <- 22        -0.00204
       4 <- 25         0.00194
       4 <- 30         0.00019
       4 <- 42        -0.00022
       4 <- 50        -0.00014
       5 <- 10         0.00215
       5 <- 11        -0.00024
       5 <- 14         0.00443
       5 <- 16        -0.00041
       5 <- 18         0.00036
       5 <- 20         0.00050
       5 <- 21        -0.00142
       5 <- 24        -0.00228
       5 <- 26         0.00130
       5 <- 28         0.00013
       5 <- 32        -0.00083
       5 <- 34        -0.00081
       5 <- 36        -0.00020
       5 <- 39        -0.00010
       5 <- 41        -0.00040
       5 <- 43        -0.00033
       6 <- 12        -0.00014
       6 <- 15        -0.00056
       6 <- 19         0.00086
       6 <- 22        -0.00012
       6 <- 25         0.00027
       6 <- 30         0.00057
       6 <- 33        -0.00038
       6 <- 35         0.00083
       6 <- 40         0.00015
       6 <- 42        -0.00011
       6 <- 49         0.00023
       6 <- 50        -0.00018
       6 <- 53         0.00021
       7 <- 38        -0.00056
       8 <- 10        -0.00137
       8 <- 11        -0.00101
       8 <- 14        -0.00379
       8 <- 16        -0.00069
       8 <- 18        -0.00113
       8 <- 20        -0.00066
       8 <- 21         0.00133
       8 <- 24         0.00133
       8 <- 26        -0.00096
       8 <- 28        -0.00027
       8 <- 32         0.00067
       8 <- 34        -0.00012
       8 <- 36         0.00032
       8 <- 43         0.00032
       8 <- 45         0.00011

 Excited State   3:      Singlet-B1     7.3721 eV  168.18 nm  f=0.0014  <S**2>=0.000
       3 ->  9        -0.03331
       3 -> 13         0.00372
       3 -> 17        -0.00638
       3 -> 23         0.00321
       3 -> 29        -0.00199
       3 -> 31        -0.00045
       3 -> 44         0.00051
       3 -> 48         0.00044
       3 -> 52         0.00111
       4 ->  9         0.01623
       4 -> 13        -0.00272
       4 -> 17         0.00078
       4 -> 23        -0.00249
       4 -> 29         0.00016
       4 -> 31        -0.00213
       4 -> 37        -0.00045
       4 -> 48        -0.00151
       4 -> 52        -0.00088
       5 -> 27        -0.00133
       5 -> 38         0.00200
       5 -> 46         0.00215
       6 ->  9         0.70563
       6 -> 13        -0.02851
       6 -> 17         0.02078
       6 -> 23        -0.01210
       6 -> 29         0.00660
       6 -> 31         0.00397
       6 -> 37        -0.00258
       6 -> 44        -0.00347
       6 -> 48         0.00518
       6 -> 52         0.00184
       7 -> 11         0.00117
       7 -> 14        -0.00152
       7 -> 16        -0.01161
       7 -> 18         0.00080
       7 -> 20         0.00188
       7 -> 21        -0.00236
       7 -> 24         0.00140
       7 -> 26         0.00058
       7 -> 28        -0.00469
       7 -> 32        -0.00122
       7 -> 34         0.00024
       7 -> 36        -0.00159
       7 -> 39         0.00017
       7 -> 41        -0.00160
       7 -> 43         0.00089
       7 -> 45         0.00451
       7 -> 47         0.00263
       7 -> 51         0.00113
       7 -> 54         0.00057
       8 -> 27         0.00202
       8 -> 38         0.00068
       8 -> 46         0.00657
       3 <-  9        -0.01060
       3 <- 13         0.00028
       3 <- 17        -0.00332
       3 <- 23         0.00012
       3 <- 29        -0.00127
       3 <- 31        -0.00038
       3 <- 37        -0.00011
       3 <- 44        -0.00018
       3 <- 48         0.00070
       3 <- 52         0.00089
       4 <-  9         0.00595
       4 <- 17         0.00244
       4 <- 23        -0.00030
       4 <- 29         0.00221
       4 <- 31        -0.00186
       4 <- 44         0.00020
       4 <- 48        -0.00130
       4 <- 52        -0.00049
       5 <- 27        -0.00152
       5 <- 38         0.00154
       5 <- 46         0.00191
       6 <-  9        -0.02194
       6 <- 13         0.00246
       6 <- 17        -0.00301
       6 <- 23         0.00020
       6 <- 29        -0.00255
       6 <- 31         0.00261
       6 <- 37        -0.00250
       6 <- 44        -0.00213
       6 <- 48         0.00456
       6 <- 52         0.00068
       7 <- 10         0.00247
       7 <- 11         0.00424
       7 <- 14         0.00178
       7 <- 16         0.00131
       7 <- 18         0.01299
       7 <- 20         0.00741
       7 <- 21        -0.00660
       7 <- 24         0.00592
       7 <- 26         0.00322
       7 <- 28         0.00053
       7 <- 32        -0.00108
       7 <- 34         0.00146
       7 <- 36        -0.00255
       7 <- 39         0.00041
       7 <- 41        -0.00109
       7 <- 43         0.00084
       7 <- 45         0.00410
       7 <- 47         0.00220
       7 <- 51         0.00081
       7 <- 54         0.00106
       8 <- 27         0.00203
       8 <- 38         0.00076
       8 <- 46         0.00587

 Excited State   4:      Singlet-A1     7.4784 eV  165.79 nm  f=0.1324  <S**2>=0.000
       3 -> 10         0.00572
       3 -> 11         0.01464
       3 -> 14         0.00768
       3 -> 16        -0.00116
       3 -> 18         0.02429
       3 -> 20         0.00148
       3 -> 21        -0.00609
       3 -> 24         0.00652
       3 -> 26         0.00870
       3 -> 28         0.00116
       3 -> 32         0.00310
       3 -> 34        -0.00392
       3 -> 36        -0.00186
       3 -> 39         0.00144
       3 -> 41         0.00020
       3 -> 43         0.00066
       3 -> 45         0.00181
       3 -> 47         0.00085
       3 -> 51         0.00018
       3 -> 54         0.00029
       4 -> 10         0.02705
       4 -> 11        -0.01115
       4 -> 14         0.01616
       4 -> 16         0.00186
       4 -> 18        -0.00752
       4 -> 20         0.00992
       4 -> 21        -0.00019
       4 -> 24        -0.00807
       4 -> 26         0.00629
       4 -> 28         0.00092
       4 -> 32        -0.00128
       4 -> 34         0.00315
       4 -> 36         0.00072
       4 -> 39        -0.00021
       4 -> 45        -0.00072
       4 -> 47        -0.00157
       5 -> 12         0.03225
       5 -> 15         0.03203
       5 -> 19         0.00266
       5 -> 22         0.00181
       5 -> 25         0.01388
       5 -> 30        -0.00316
       5 -> 33        -0.00322
       5 -> 35         0.00165
       5 -> 40         0.00165
       5 -> 42         0.00074
       5 -> 49         0.00061
       5 -> 50        -0.00044
       5 -> 53        -0.00036
       6 -> 10        -0.03499
       6 -> 11        -0.05785
       6 -> 14        -0.02267
       6 -> 16        -0.03338
       6 -> 18        -0.09802
       6 -> 20        -0.03990
       6 -> 21         0.03030
       6 -> 24        -0.02646
       6 -> 26        -0.01384
       6 -> 28        -0.01142
       6 -> 32        -0.00019
       6 -> 34        -0.00322
       6 -> 36         0.00238
       6 -> 41        -0.00103
       6 -> 43         0.00039
       6 -> 45         0.00069
       6 -> 47         0.00176
       6 -> 51         0.00073
       6 -> 54        -0.00025
       7 ->  9         0.68229
       7 -> 13         0.02554
       7 -> 17        -0.02789
       7 -> 23         0.00730
       7 -> 29        -0.00530
       7 -> 31        -0.00149
       7 -> 44        -0.00083
       7 -> 48         0.00059
       7 -> 52         0.00099
       8 -> 12         0.02262
       8 -> 15         0.14023
       8 -> 19        -0.02613
       8 -> 22        -0.04883
       8 -> 25         0.00386
       8 -> 30        -0.01533
       8 -> 33         0.00587
       8 -> 35        -0.00725
       8 -> 40        -0.00284
       8 -> 42        -0.00038
       8 -> 49         0.00063
       8 -> 50         0.00041
       8 -> 53        -0.00104
       3 <- 10         0.00294
       3 <- 11         0.00854
       3 <- 14         0.00525
       3 <- 18         0.01543
       3 <- 20         0.00122
       3 <- 21        -0.00502
       3 <- 24         0.00447
       3 <- 26         0.00563
       3 <- 28         0.00090
       3 <- 32         0.00276
       3 <- 34        -0.00250
       3 <- 36        -0.00127
       3 <- 39         0.00109
       3 <- 41         0.00015
       3 <- 43         0.00065
       3 <- 45         0.00187
       3 <- 47         0.00111
       3 <- 51         0.00017
       3 <- 54         0.00032
       4 <- 10         0.01043
       4 <- 11        -0.00494
       4 <- 14         0.00674
       4 <- 16         0.00050
       4 <- 18        -0.00424
       4 <- 20         0.00582
       4 <- 24        -0.00468
       4 <- 26         0.00431
       4 <- 32        -0.00168
       4 <- 34         0.00244
       4 <- 36         0.00041
       4 <- 39        -0.00021
       4 <- 41        -0.00012
       4 <- 45        -0.00021
       4 <- 47        -0.00143
       5 <- 12         0.00920
       5 <- 15         0.01178
       5 <- 19         0.00146
       5 <- 22         0.00088
       5 <- 25         0.00770
       5 <- 30        -0.00180
       5 <- 33        -0.00228
       5 <- 35         0.00134
       5 <- 40         0.00137
       5 <- 42         0.00056
       5 <- 49         0.00051
       5 <- 50        -0.00040
       5 <- 53        -0.00030
       6 <- 10        -0.00679
       6 <- 11        -0.01206
       6 <- 14        -0.00640
       6 <- 16        -0.01141
       6 <- 18        -0.03524
       6 <- 20        -0.01710
       6 <- 21         0.01434
       6 <- 24        -0.01397
       6 <- 26        -0.00796
       6 <- 28        -0.00700
       6 <- 32         0.00018
       6 <- 34        -0.00278
       6 <- 36         0.00161
       6 <- 39         0.00027
       6 <- 41        -0.00067
       6 <- 43         0.00033
       6 <- 45         0.00023
       6 <- 47         0.00143
       6 <- 51         0.00053
       6 <- 54        -0.00017
       7 <-  9        -0.09785
       7 <- 13         0.01270
       7 <- 17        -0.01468
       7 <- 23         0.00757
       7 <- 29        -0.00603
       7 <- 37        -0.00025
       7 <- 44        -0.00030
       7 <- 52         0.00081
       8 <- 12         0.00057
       8 <- 15         0.02665
       8 <- 19        -0.00688
       8 <- 22        -0.01959
       8 <- 25         0.00111
       8 <- 30        -0.00942
       8 <- 33         0.00388
       8 <- 35        -0.00496
       8 <- 40        -0.00217
       8 <- 42        -0.00029
       8 <- 49         0.00042
       8 <- 50         0.00031
       8 <- 53        -0.00091

 Excited State   5:      Singlet-B2     7.6183 eV  162.75 nm  f=0.0284  <S**2>=0.000
       3 -> 12        -0.00037
       3 -> 15        -0.00135
       3 -> 19         0.00158
       3 -> 22         0.00056
       3 -> 25        -0.00017
       3 -> 30         0.00304
       3 -> 33         0.00019
       3 -> 35        -0.00091
       3 -> 40        -0.00073
       3 -> 49         0.00087
       3 -> 50        -0.00016
       4 -> 12         0.00208
       4 -> 15         0.00079
       4 -> 19         0.00112
       4 -> 22        -0.00149
       4 -> 25         0.00243
       4 -> 30        -0.00162
       4 -> 33         0.00048
       4 -> 35        -0.00063
       4 -> 49         0.00018
       5 -> 10        -0.00251
       5 -> 11         0.00028
       5 -> 14         0.01100
       5 -> 16        -0.00594
       5 -> 18        -0.00077
       5 -> 20        -0.00415
       5 -> 21        -0.00362
       5 -> 24        -0.00063
       5 -> 26         0.00196
       5 -> 28         0.00149
       5 -> 32         0.00029
       5 -> 34        -0.00061
       5 -> 36        -0.00060
       5 -> 39         0.00060
       5 -> 41        -0.00059
       5 -> 43         0.00026
       5 -> 45         0.00093
       5 -> 47         0.00021
       5 -> 51        -0.00047
       6 -> 12        -0.00242
       6 -> 15        -0.00089
       6 -> 19        -0.00078
       6 -> 22         0.00090
       6 -> 25         0.00016
       6 -> 30         0.00129
       6 -> 33        -0.00053
       6 -> 35         0.00150
       6 -> 40         0.00129
       6 -> 42         0.00011
       6 -> 49        -0.00150
       6 -> 50         0.00020
       6 -> 53         0.00014
       7 -> 27         0.00050
       7 -> 38        -0.00071
       7 -> 46        -0.00244
       8 -> 10         0.06193
       8 -> 11         0.70259
       8 -> 14         0.00731
       8 -> 16         0.00961
       8 -> 18         0.04653
       8 -> 20        -0.00848
       8 -> 21         0.00135
       8 -> 24         0.00190
       8 -> 26         0.00026
       8 -> 28         0.00352
       8 -> 32         0.00015
       8 -> 34        -0.00027
       8 -> 36        -0.00052
       8 -> 39        -0.00026
       8 -> 41        -0.00091
       8 -> 43         0.00041
       8 -> 45         0.00301
       8 -> 47         0.00023
       8 -> 51        -0.00137
       8 -> 54         0.00014
       3 <- 12         0.00033
       3 <- 15        -0.00045
       3 <- 19         0.00119
       3 <- 30         0.00155
       3 <- 33         0.00029
       3 <- 35        -0.00085
       3 <- 40        -0.00068
       3 <- 49         0.00082
       3 <- 50        -0.00011
       3 <- 53        -0.00042
       4 <- 12         0.00021
       4 <- 15         0.00096
       4 <- 19         0.00015

 The electronic state is 1-A1.
 Alpha  occ. eigenvalues --  -19.16118 -10.30273  -1.00035  -0.66914  -0.49165
 Alpha  occ. eigenvalues --   -0.44414  -0.37094  -0.28886
 Alpha virt. eigenvalues --   -0.10345   0.00258   0.03375   0.04173   0.06244
 Alpha virt. eigenvalues --    0.12104   0.16188   0.18855   0.21799   0.21962
 Alpha virt. eigenvalues --    0.23668   0.30290   0.41540   0.43831   0.50948

 Mulliken charges:
               1
     1  C   -0.015619
     2  H    0.147883
     3  H    0.147883
     4  O   -0.280147
 Sum of Mulliken charges =  -0.00000

 Dipole moment (field-independent basis, Debye):
    X=             -0.0000    Y=              0.0000    Z=             -3.1281  Tot=              3.1281
 Quadrupole moment (field-independent basis, Debye-Ang):
   XX=            -12.2119   YY=            -11.7503   ZZ=            -11.9954
   XY=              0.0000   XZ=              0.0000   YZ=             -0.0000

 Normal termination of Gaussian 16 at Fri Sep 17 10:52:50 2021.
