 Gaussian 16, Revision C.01,
 Gaussian 16:  ES64L-G16RevC.01  3-Jul-2019

 ---------------------------------------
 #P wB97XD/6-311+G* NoSymm #P Field=Y-97
 ---------------------------------------

 -------
 TitleMe
 -------
 Symbolic Z-matrix:
 Charge =  1 Multiplicity = 1

                          Input orientation:
 ---------------------------------------------------------------------
 Center     Atomic      Atomic             Coordinates (Angstroms)
 Number     Number       Type             X           Y           Z
 ---------------------------------------------------------------------
      1          6           0        0.029500    1.339700    0.068200
      2          6           0        1.434800    1.286700    0.006400
      3          6           0        2.111800    0.051100   -0.005400
      4          6           0        1.445100   -1.137200    0.031200
      5          6           0       -0.687900    0.168200    0.110000
      6          1           0       -0.471300    2.298400    0.078100
      7          1           0        2.027300    2.196500   -0.032200
      8          1           0        1.989700   -2.076400    0.023200
      9          1           0       -1.771600    0.180400    0.158200
     10          7           0        3.586400    0.051000   -0.067500
     11          8           0        4.147100   -1.059700   -0.088100
     12          8           0        4.145000    1.163900   -0.090100
     13          6           0       -0.023600   -1.145800    0.083500
     14          1           0       -0.436700   -1.872500    0.788900
     15         35           0       -0.535900   -1.869700   -1.740800
 ---------------------------------------------------------------------

 SCF Done:  E(RwB97XD) =  -3010.53842150     A.U. after   18 cycles

 Alpha  occ. eigenvalues -- -483.32668 -62.87712 -56.67380 -56.66841 -56.66840
 Alpha  occ. eigenvalues --  -19.46066 -19.45813 -14.85445 -10.59466 -10.57509
 Alpha  occ. eigenvalues --  -10.57428 -10.57240 -10.56619 -10.52364  -9.03532
 Alpha  occ. eigenvalues --   -6.86141  -6.84374  -6.84364  -2.96062  -2.95590
 Alpha  occ. eigenvalues --   -2.95581  -2.94167  -2.94166  -1.49718  -1.32688
 Alpha  occ. eigenvalues --   -1.22954  -1.14646  -1.11728  -1.05456  -1.01103
 Alpha  occ. eigenvalues --   -0.95750  -0.91077  -0.85335  -0.80887  -0.80704
 Alpha  occ. eigenvalues --   -0.80100  -0.78713  -0.76159  -0.75872  -0.72782
 Alpha  occ. eigenvalues --   -0.69340  -0.67409  -0.63888  -0.60849  -0.58225
 Alpha  occ. eigenvalues --   -0.57155  -0.56323  -0.56112  -0.55619
 Alpha virt. eigenvalues --   -0.30007  -0.21452  -0.16472  -0.13724  -0.11525
 Alpha virt. eigenvalues --   -0.07883  -0.07520  -0.06257  -0.05067  -0.03971
 Alpha virt. eigenvalues --   -0.03476  -0.03054  -0.02357  -0.01902  -0.01572

 Mulliken charges:
               1
     1  C   -0.557198
     2  C    0.472093
     3  C   -0.668274
     4  C    0.266032
     5  C    0.031052
     6  H    0.372968
     7  H    0.400607
     8  H    0.340570
     9  H    0.353734
    10  N   -0.108745
    11  O   -0.017789
    12  O    0.083997
    13  C   -0.458861
    14  H    0.378954
    15  Br   0.110859
 Sum of Mulliken charges =   1.00000

 Dipole moment (field-independent basis, Debye):
    X=             -0.4902    Y=              2.2000    Z=              0.3396  Tot=              2.2794
 Quadrupole moment (field-independent basis, Debye-Ang):
   XX=            -70.6950   YY=            -53.3591   ZZ=            -63.4477
   XY=              4.4168   XZ=              0.7998   YZ=              0.3859

 Normal termination of Gaussian 16 at Wed May  1 15:04:56 2024.
