 Gaussian 16, Revision A.03,
 Gaussian 16:  ES64L-G16RevA.03 25-Dec-2016

 --------------------------------------------------------------------
 #p B3LYP/6-311+G** #p TD=(singlets,nstates=30)IOp(6/8=3) IOp(9/40=4)
 --------------------------------------------------------------------

 -------------------------------
 Scan Step 97, Bond Length 0.985
 -------------------------------
 Symbolic Z-matrix:
 Charge =  0 Multiplicity = 1

                         Standard orientation:
 ---------------------------------------------------------------------
 Center     Atomic      Atomic             Coordinates (Angstroms)
 Number     Number       Type             X           Y           Z
 ---------------------------------------------------------------------
      1          6           0        0.000000    0.000000   -0.418581
      2          1           0        0.000000    0.937260   -1.009931
      3          1           0       -0.000000   -0.937260   -1.009931
      4          8           0        0.000000   -0.000000    0.566419
 ---------------------------------------------------------------------

 SCF Done:  E(RB3LYP) =  -114.418729766     A.U. after    9 cycles

 Excitation energies and oscillator strengths:

 Excited State   1:      Singlet-A2     5.1771 eV  239.49 nm  f=0.0000  <S**2>=0.000
       3 -> 27         0.00300
       3 -> 36         0.00246
       3 -> 46         0.00163
       4 -> 27         0.00308
       4 -> 36        -0.00075
       4 -> 46        -0.00090
       5 ->  9         0.01516
       5 -> 13        -0.00900
       5 -> 17         0.00622
       5 -> 23        -0.00297
       5 -> 28         0.00349
       5 -> 31         0.00268
       5 -> 37         0.00398
       5 -> 43         0.00065
       5 -> 52         0.00083
       6 -> 12        -0.00061
       6 -> 16         0.00162
       6 -> 18        -0.00121
       6 -> 22         0.00169
       6 -> 24         0.00096
       6 -> 29        -0.00061
       6 -> 33         0.00032
       6 -> 35         0.00053
       6 -> 40        -0.00023
       6 -> 42         0.00042
       6 -> 48         0.00065
       6 -> 50        -0.00017
       6 -> 53         0.00036
       7 -> 27         0.00073
       7 -> 36        -0.00050
       7 -> 46         0.00148
       8 ->  9         0.69855
       8 -> 13        -0.10506
       8 -> 17         0.02728
       8 -> 23        -0.01115
       8 -> 28         0.00631
       8 -> 31         0.00351
       8 -> 37        -0.00181
       8 -> 43        -0.00026
       8 -> 47        -0.00012
       8 -> 52         0.00120
       3 <- 27         0.00213
       3 <- 36         0.00210
       3 <- 46         0.00170
       4 <- 27         0.00377
       4 <- 36        -0.00030
       4 <- 46        -0.00084
       5 <-  9         0.00020
       5 <- 13        -0.00104
       5 <- 17        -0.00040
       5 <- 23         0.00042
       5 <- 28        -0.00029
       5 <- 31        -0.00112
       5 <- 37         0.00178
       5 <- 43         0.00042
       5 <- 47         0.00015
       5 <- 52         0.00021
       6 <- 12        -0.00097
       6 <- 16        -0.00397
       6 <- 18        -0.00245
       6 <- 22         0.00585
       6 <- 24        -0.00119
       6 <- 29         0.00204
       6 <- 33        -0.00116
       6 <- 35         0.00237
       6 <- 40        -0.00036
       6 <- 42         0.00097
       6 <- 48         0.00048
       6 <- 53         0.00095
       7 <- 27         0.00103
       7 <- 36        -0.00051
       7 <- 46         0.00116
       8 <-  9        -0.01384
       8 <- 13         0.00687
       8 <- 17        -0.00389
       8 <- 23         0.00064
       8 <- 28        -0.00045
       8 <- 31         0.00225
       8 <- 37        -0.00220
       8 <- 52         0.00036
 This state for optimization and/or second-order correction.
 Total Energy, E(TD-HF/TD-DFT) =  -114.228475623
 Copying the excited state density for this state as the 1-particle RhoCI density.

 Excited State   2:      Singlet-B2     6.3034 eV  196.69 nm  f=0.0689  <S**2>=0.000
       3 -> 12         0.00105
       3 -> 16         0.00028
       3 -> 18         0.00113
       3 -> 22        -0.00015
       3 -> 24         0.00124
       3 -> 29        -0.00015
       3 -> 35        -0.00018
       3 -> 50        -0.00013
       4 -> 12        -0.00526
       4 -> 18         0.00226
       4 -> 22        -0.00305
       4 -> 24         0.00397
       4 -> 29        -0.00025
       4 -> 33        -0.00091
       4 -> 35         0.00088
       4 -> 40        -0.00028
       4 -> 42         0.00041
       5 -> 10        -0.00053
       5 -> 11        -0.00835
       5 -> 14         0.00618
       5 -> 15        -0.00146
       5 -> 19         0.00348
       5 -> 20        -0.00058
       5 -> 21         0.00376
       5 -> 25         0.00074
       5 -> 26        -0.00172
       5 -> 30         0.00251
       5 -> 32        -0.00025
       5 -> 34        -0.00017
       5 -> 38        -0.00061
       5 -> 39        -0.00023
       5 -> 41         0.00015
       5 -> 44        -0.00049
       5 -> 45        -0.00058
       5 -> 49         0.00029
       6 -> 27         0.00071
       6 -> 46         0.00080
       7 -> 12         0.00178
       7 -> 16        -0.00049
       7 -> 18         0.00428
       7 -> 22        -0.00260
       7 -> 24         0.00204
       7 -> 29        -0.00014
       7 -> 42        -0.00038
       7 -> 48         0.00036
       7 -> 50         0.00051
       8 -> 10         0.70583
       8 -> 11        -0.03315
       8 -> 14        -0.00767
       8 -> 15        -0.01088
       8 -> 19         0.01893
       8 -> 20         0.00939
       8 -> 21        -0.00633
       8 -> 25         0.00084
       8 -> 26        -0.00091
       8 -> 30         0.00032
       8 -> 32         0.00211
       8 -> 34         0.00185
       8 -> 38         0.00065
       8 -> 39         0.00058
       8 -> 41        -0.00020
       8 -> 44         0.00067
       8 -> 45        -0.00096
       8 -> 49         0.00019
       8 -> 54         0.00016
       3 <- 12         0.00032
       3 <- 16         0.00034
       3 <- 18         0.00056
       3 <- 22        -0.00023
       3 <- 24         0.00086
       3 <- 29        -0.00013
       3 <- 35        -0.00018
       4 <- 12         0.00032
       4 <- 16         0.00053
       4 <- 18         0.00276
       4 <- 22        -0.00186
       4 <- 24         0.00292
       4 <- 29        -0.00019
       4 <- 33        -0.00065
       4 <- 35         0.00063
       4 <- 40        -0.00026
       4 <- 42         0.00011
       5 <- 10         0.00233
       5 <- 14         0.00468
       5 <- 15        -0.00145
       5 <- 19         0.00087
       5 <- 21         0.00208
       5 <- 25         0.00168
       5 <- 26        -0.00135
       5 <- 30         0.00087
       5 <- 32        -0.00053
       5 <- 34        -0.00025
       5 <- 38        -0.00046
       5 <- 39        -0.00017
       5 <- 41         0.00026
       5 <- 44        -0.00033
       5 <- 45        -0.00049
       5 <- 49         0.00026
       6 <- 27         0.00054
       6 <- 46         0.00068
       7 <- 12         0.00051
       7 <- 16        -0.00087
       7 <- 18         0.00182
       7 <- 22        -0.00099
       7 <- 24         0.00086
       7 <- 29         0.00052
       7 <- 33        -0.00016
       7 <- 35         0.00017
       7 <- 42        -0.00035
       7 <- 48         0.00031
       7 <- 50         0.00054
       8 <- 10        -0.00343
       8 <- 11        -0.00123
       8 <- 14        -0.01035
       8 <- 15         0.00085
       8 <- 19        -0.00071
       8 <- 20        -0.00035
       8 <- 21        -0.00365
       8 <- 25        -0.00299
       8 <- 26        -0.00044
       8 <- 30        -0.00061
       8 <- 32         0.00084
       8 <- 34         0.00162
       8 <- 38         0.00067
       8 <- 39         0.00047
       8 <- 44         0.00054
       8 <- 45        -0.00066
       8 <- 49         0.00021
       8 <- 51         0.00011

 Excited State   3:      Singlet-B2     7.0915 eV  174.83 nm  f=0.0205  <S**2>=0.000
       3 -> 12        -0.00016
       3 -> 16        -0.00069
       3 -> 18         0.00031
       3 -> 22         0.00020
       3 -> 24         0.00038
       3 -> 29         0.00125
       3 -> 33         0.00014
       3 -> 35        -0.00032
       3 -> 42        -0.00033
       3 -> 48         0.00022
       3 -> 50         0.00025
       4 -> 12         0.00310
       4 -> 16        -0.00243
       4 -> 18         0.00320
       4 -> 22        -0.00156
       4 -> 24         0.00349
       4 -> 29        -0.00107
       4 -> 33         0.00055
       4 -> 35        -0.00029
       4 -> 40        -0.00020
       4 -> 48         0.00016
       4 -> 50         0.00016
       5 -> 10        -0.00657
       5 -> 11         0.00029
       5 -> 14         0.00434
       5 -> 15        -0.00573
       5 -> 19        -0.00382
       5 -> 20        -0.00178
       5 -> 21         0.00115
       5 -> 25         0.00122
       5 -> 26         0.00117
       5 -> 30         0.00096
       5 -> 32        -0.00183
       5 -> 34        -0.00081
       5 -> 39         0.00059
       5 -> 41        -0.00084
       5 -> 45         0.00067
       5 -> 49        -0.00043
       5 -> 51        -0.00027
       6 -> 27        -0.00068
       6 -> 36        -0.00126
       6 -> 46        -0.00126
       7 -> 12        -0.00314
       7 -> 16        -0.00128
       7 -> 18        -0.00209
       7 -> 22         0.00144
       7 -> 29         0.00024
       7 -> 33        -0.00034
       7 -> 35         0.00136
       7 -> 40        -0.00042
       7 -> 42         0.00073
       7 -> 48        -0.00070
       7 -> 50        -0.00066
       7 -> 53         0.00014
       8 -> 10         0.03375
       8 -> 11         0.70532
       8 -> 14        -0.01431
       8 -> 15         0.02026
       8 -> 19        -0.02118
       8 -> 20         0.01373
       8 -> 21        -0.00217
       8 -> 25         0.00033
       8 -> 26         0.00066
       8 -> 30        -0.00150
       8 -> 34         0.00042
       8 -> 38        -0.00010
       8 -> 39         0.00028
       8 -> 41        -0.00142
       8 -> 45         0.00089
       8 -> 49        -0.00075
       8 -> 51        -0.00029
       8 -> 54        -0.00017
       3 <- 12         0.00028
       3 <- 16        -0.00045
       3 <- 18         0.00058
       3 <- 24         0.00045
       3 <- 29         0.00079
       3 <- 33         0.00019
       3 <- 35        -0.00036
       3 <- 42        -0.00028
       3 <- 48         0.00017
       3 <- 50         0.00015
       3 <- 53        -0.00022
       4 <- 12         0.00034
       4 <- 18         0.00118
       4 <- 22        -0.00125
       4 <- 24         0.00152
       4 <- 29        -0.00044
       4 <- 33         0.00053
       4 <- 40        -0.00018
       4 <- 42        -0.00015
       4 <- 48         0.00010
       4 <- 50         0.00022
       5 <- 10         0.00134
       5 <- 11        -0.00055
       5 <- 14         0.00202
       5 <- 15        -0.00049
       5 <- 19         0.00067
       5 <- 21         0.00097
       5 <- 25         0.00100
       5 <- 26         0.00083
       5 <- 30         0.00077
       5 <- 32        -0.00036
       5 <- 34        -0.00123
       5 <- 38         0.00014
       5 <- 39         0.00036
       5 <- 41        -0.00086
       5 <- 44        -0.00012
       5 <- 45         0.00065
       5 <- 49        -0.00029
       5 <- 51        -0.00026
       6 <- 27        -0.00024
       6 <- 36        -0.00103
       6 <- 46        -0.00108
       7 <- 12        -0.00036
       7 <- 18        -0.00030
       7 <- 22         0.00035
       7 <- 33        -0.00014
       7 <- 35         0.00098
       7 <- 40        -0.00032
       7 <- 42         0.00051
       7 <- 48        -0.00060
       7 <- 50        -0.00059
       8 <- 10        -0.00120
       8 <- 11         0.00087
       8 <- 14        -0.00523
       8 <- 15         0.00092
       8 <- 19         0.00243
       8 <- 20        -0.00164
       8 <- 21        -0.00234
       8 <- 25        -0.00018
       8 <- 26         0.00122
       8 <- 30        -0.00088
       8 <- 32         0.00116
       8 <- 34        -0.00011
       8 <- 38        -0.00025
       8 <- 41        -0.00120
       8 <- 45         0.00075
       8 <- 49        -0.00048
       8 <- 51        -0.00027

 Excited State   4:      Singlet-A1     7.2311 eV  171.46 nm  f=0.0510  <S**2>=0.000
       3 -> 10         0.00147
       3 -> 11        -0.00096
       3 -> 14         0.00032
       3 -> 15        -0.00049
       3 -> 19         0.00117
       3 -> 20         0.00069
       3 -> 26        -0.00034
       3 -> 30         0.00118
       3 -> 32        -0.00031
       3 -> 34        -0.00022
       3 -> 38        -0.00035
       3 -> 39         0.00018
       3 -> 41        -0.00018
       3 -> 49        -0.00014
       3 -> 51        -0.00034
       3 -> 54        -0.00021
       4 -> 10         0.00552
       4 -> 11         0.00923
       4 -> 14         0.00613
       4 -> 15        -0.00086
       4 -> 19         0.00068
       4 -> 20         0.00615
       4 -> 21         0.00253
       4 -> 25         0.00703
       4 -> 26        -0.00081
       4 -> 30        -0.00060
       4 -> 32        -0.00033
       4 -> 34        -0.00090
       4 -> 38        -0.00012
       4 -> 39        -0.00054
       4 -> 41         0.00021
       4 -> 45        -0.00029
       4 -> 49        -0.00024
       5 -> 12         0.00777
       5 -> 16        -0.00386
       5 -> 18         0.01078
       5 -> 22        -0.00027
       5 -> 24         0.00470
       5 -> 29         0.00041
       5 -> 33        -0.00016
       5 -> 35         0.00088
       5 -> 42        -0.00018
       5 -> 50        -0.00036
       5 -> 53        -0.00015
       6 ->  9         0.00964
       6 -> 13         0.00554
       6 -> 17         0.00502
       6 -> 23         0.00470
       6 -> 28         0.00031
       6 -> 31         0.00086
       6 -> 37         0.00054
       6 -> 43         0.00060
       6 -> 47        -0.00037
       7 -> 10         0.01338
       7 -> 11        -0.00469
       7 -> 14         0.00370
       7 -> 15         0.00141
       7 -> 19         0.00637
       7 -> 20         0.00400
       7 -> 21         0.00164
       7 -> 25         0.00221
       7 -> 26        -0.00052
       7 -> 30        -0.00035
       7 -> 32         0.00056
       7 -> 34        -0.00081
       7 -> 39        -0.00016
       7 -> 44         0.00011
       7 -> 49        -0.00019
       7 -> 51         0.00053
       8 -> 12         0.70561
       8 -> 16        -0.03291
       8 -> 18         0.01912
       8 -> 22         0.00486
       8 -> 24         0.00161
       8 -> 29         0.00237
       8 -> 33         0.00151
       8 -> 35        -0.00232
       8 -> 40        -0.00011
       8 -> 42         0.00117
       8 -> 48        -0.00038
       8 -> 50        -0.00022
       8 -> 53        -0.00016
       3 <- 10         0.00057
       3 <- 11        -0.00029
       3 <- 14         0.00021
       3 <- 15        -0.00019
       3 <- 19         0.00059
       3 <- 20         0.00031
       3 <- 21         0.00011
       3 <- 25         0.00022
       3 <- 26        -0.00015
       3 <- 30         0.00071
       3 <- 32        -0.00024
       3 <- 34        -0.00011
       3 <- 38        -0.00027
       3 <- 39         0.00016
       3 <- 41        -0.00017
       3 <- 45         0.00012
       3 <- 49        -0.00015
       3 <- 51        -0.00029
       3 <- 54        -0.00019
       4 <- 10         0.00535
       4 <- 11         0.00289
       4 <- 14         0.00451
       4 <- 15        -0.00112
       4 <- 19         0.00052
       4 <- 20         0.00348
       4 <- 21         0.00099
       4 <- 25         0.00410
       4 <- 26        -0.00040
       4 <- 32        -0.00061
       4 <- 34        -0.00095
       4 <- 38        -0.00019
       4 <- 39        -0.00050
       4 <- 45        -0.00028
       4 <- 49        -0.00020
       5 <- 12         0.00274
       5 <- 16        -0.00014
       5 <- 18         0.00440
       5 <- 22         0.00022
       5 <- 24         0.00255
       5 <- 33        -0.00032
       5 <- 35         0.00079
       5 <- 42        -0.00016
       5 <- 50        -0.00027
       5 <- 53        -0.00014
       6 <-  9         0.00246
       6 <- 13         0.00187
       6 <- 17         0.00199
       6 <- 23         0.00263
       6 <- 28         0.00014
       6 <- 31         0.00063
       6 <- 37         0.00043
       6 <- 43         0.00050
       6 <- 47        -0.00032
       7 <- 10         0.00416
       7 <- 11        -0.00085
       7 <- 14         0.00168
       7 <- 15         0.00047
       7 <- 19         0.00250
       7 <- 20         0.00215
       7 <- 21         0.00064
       7 <- 25         0.00125
       7 <- 26        -0.00052
       7 <- 32         0.00030
       7 <- 34        -0.00062
       7 <- 39        -0.00023
       7 <- 41         0.00014
       7 <- 51         0.00049
       8 <- 12        -0.00258
       8 <- 16        -0.00813
       8 <- 18        -0.00612
       8 <- 22         0.00025
       8 <- 24        -0.00238
       8 <- 29         0.00087
       8 <- 33         0.00098
       8 <- 35        -0.00148
       8 <- 40        -0.00014
       8 <- 42         0.00097
       8 <- 48        -0.00045
       8 <- 50        -0.00019
       8 <- 53        -0.00018

 Excited State   5:      Singlet-A2     7.7943 eV  159.07 nm  f=0.0000  <S**2>=0.000
       3 -> 27        -0.00108
       3 -> 36        -0.00094
       3 -> 46        -0.00052
       4 -> 27        -0.00018
       4 -> 36         0.00063
       4 -> 46         0.00017
       5 ->  9        -0.00986
       5 -> 13         0.00317
       5 -> 17         0.00440
       5 -> 23        -0.00024
       5 -> 31        -0.00204
       5 -> 37        -0.00176
       5 -> 43        -0.00028
       5 -> 52        -0.00026
       6 -> 12        -0.00042
       6 -> 16        -0.00198
       6 -> 18         0.00126
       6 -> 22        -0.00092
       6 -> 24        -0.00025
       6 -> 29         0.00026
       6 -> 35        -0.00025
       6 -> 42        -0.00021
       6 -> 48        -0.00021
       6 -> 53        -0.00013
       7 -> 36         0.00027
       7 -> 46        -0.00055
       8 ->  9         0.10533
       8 -> 13         0.69879
       8 -> 17         0.00619
       8 -> 23         0.02097
       8 -> 28        -0.00078
       8 -> 31        -0.00127
       8 -> 37         0.00032
       8 -> 47         0.00018
       8 -> 52        -0.00031
       3 <- 27        -0.00056
       3 <- 36        -0.00074
       3 <- 46        -0.00062
       4 <- 27        -0.00068
       4 <- 46         0.00018
       5 <-  9        -0.00026
       5 <- 17         0.00063
       5 <- 23        -0.00010
       5 <- 37        -0.00049
       5 <- 43        -0.00012
       6 <- 12        -0.00060
       6 <- 16        -0.00057
       6 <- 18         0.00060
       6 <- 22        -0.00185
       6 <- 29         0.00010
       6 <- 33         0.00058
       6 <- 35        -0.00101
       6 <- 40         0.00015
       6 <- 42        -0.00055
       6 <- 53        -0.00026
       7 <- 27        -0.00021
       7 <- 36         0.00024
       7 <- 46        -0.00023
       8 <-  9         0.00487
       8 <- 13         0.00080
       8 <- 17         0.00037
       8 <- 23        -0.00040
       8 <- 28         0.00015
       8 <- 31        -0.00045
       8 <- 37         0.00052
       8 <- 52        -0.00013

 Excited State   6:      Singlet-B2    10.1506 eV  122.15 nm  f=0.2500  <S**2>=0.000
       3 -> 12        -0.00040
       3 -> 16        -0.00193
       3 -> 22         0.00144
       3 -> 24         0.00081
       3 -> 29         0.00134
       3 -> 33        -0.00086
       3 -> 40         0.00023

 The electronic state is 1-A1.
 Alpha  occ. eigenvalues --  -19.13895 -10.24417  -1.21036  -0.61070  -0.56488
 Alpha  occ. eigenvalues --   -0.50488  -0.50062  -0.25752
 Alpha virt. eigenvalues --   -0.00476   0.01319   0.04285   0.04387   0.07586
 Alpha virt. eigenvalues --    0.13883   0.17979   0.20234   0.21975   0.22561
 Alpha virt. eigenvalues --    0.26781   0.35900   0.49464   0.51298   0.51688

 Mulliken charges:
               1
     1  C    0.124813
     2  H    0.040527
     3  H    0.040527
     4  O   -0.205867
 Sum of Mulliken charges =   0.00000

 Dipole moment (field-independent basis, Debye):
    X=              0.0000    Y=              0.0000    Z=             -1.2230  Tot=              1.2230
 Quadrupole moment (field-independent basis, Debye-Ang):
   XX=            -11.0744   YY=            -12.0350   ZZ=            -12.9896
   XY=             -0.0000   XZ=             -0.0000   YZ=             -0.0000

 Normal termination of Gaussian 16 at Fri Sep 17 10:52:36 2021.
