 Gaussian 16, Revision C.01,
 Gaussian 16:  ES64L-G16RevC.01  3-Jul-2019

 --------------------------------------
 #P wB97XD/6-311+G* NoSymm #P Field=Y-9
 --------------------------------------

 -------
 TitleMe
 -------
 Symbolic Z-matrix:
 Charge =  1 Multiplicity = 1

                          Input orientation:
 ---------------------------------------------------------------------
 Center     Atomic      Atomic             Coordinates (Angstroms)
 Number     Number       Type             X           Y           Z
 ---------------------------------------------------------------------
      1          6           0        0.519300    1.233000   -0.031900
      2          6           0        1.944500    1.269200   -0.036700
      3          6           0        2.620400    0.092800   -0.025000
      4          6           0       -0.196000    0.030100    0.001000
      5          1           0       -0.020700    2.174200   -0.043400
      6          1           0        2.482800    2.208900   -0.036100
      7          1           0       -1.277700    0.039900    0.011700
      8          7           0        4.092100    0.095900    0.036600
      9          8           0        4.639300   -1.021700    0.144600
     10          8           0        4.664900    1.198400   -0.023300
     11          6           0        0.494300   -1.167100    0.021000
     12          1           0       -0.032500   -2.114900    0.054500
     13          6           0        1.962900   -1.216500   -0.021100
     14          1           0        2.443600   -1.963100    0.615100
     15         35           0        2.173000   -1.949100   -1.906200
 ---------------------------------------------------------------------

 SCF Done:  E(RwB97XD) =  -3010.53163111     A.U. after   19 cycles

 Alpha  occ. eigenvalues -- -483.31163 -62.86186 -56.65879 -56.65310 -56.65300
 Alpha  occ. eigenvalues --  -19.46176 -19.46172 -14.85605 -10.59145 -10.58040
 Alpha  occ. eigenvalues --  -10.57263 -10.56871 -10.53267 -10.52684  -9.01991
 Alpha  occ. eigenvalues --   -6.84672  -6.82803  -6.82772  -2.94575  -2.94084
 Alpha  occ. eigenvalues --   -2.94058  -2.92563  -2.92562  -1.49866  -1.32825
 Alpha  occ. eigenvalues --   -1.22377  -1.12802  -1.12390  -1.04744  -1.00256
 Alpha  occ. eigenvalues --   -0.95291  -0.90511  -0.84897  -0.80847  -0.80098
 Alpha  occ. eigenvalues --   -0.79999  -0.77858  -0.76139  -0.75530  -0.71928
 Alpha  occ. eigenvalues --   -0.68471  -0.67496  -0.63281  -0.59787  -0.57361
 Alpha  occ. eigenvalues --   -0.56717  -0.56201  -0.55873  -0.54553
 Alpha virt. eigenvalues --   -0.30034  -0.20316  -0.15626  -0.13002  -0.08555
 Alpha virt. eigenvalues --   -0.06008  -0.05515  -0.04612  -0.04273  -0.03135
 Alpha virt. eigenvalues --   -0.02315  -0.01472  -0.01446  -0.00625   0.00525

 Mulliken charges:
               1
     1  C   -0.110022
     2  C    0.183656
     3  C   -0.073153
     4  C   -0.330904
     5  H    0.349129
     6  H    0.353669
     7  H    0.330865
     8  N   -0.239699
     9  O    0.083375
    10  O    0.074995
    11  C   -0.203727
    12  H    0.353401
    13  C   -0.357225
    14  H    0.409049
    15  Br   0.176591
 Sum of Mulliken charges =   1.00000

 Dipole moment (field-independent basis, Debye):
    X=              2.7686    Y=             -0.6415    Z=             -0.7149  Tot=              2.9305
 Quadrupole moment (field-independent basis, Debye-Ang):
   XX=            -67.8650   YY=            -51.2762   ZZ=            -62.2606
   XY=             -2.4196   XZ=             -2.4827   YZ=              2.3189

 Normal termination of Gaussian 16 at Thu May  2 14:18:08 2024.
