 Gaussian 16, Revision A.03,
 Gaussian 16:  ES64L-G16RevA.03 25-Dec-2016

 --------------------------------------------------------------------
 #p B3LYP/6-311+G** #p TD=(singlets,nstates=30)IOp(6/8=3) IOp(9/40=4)
 --------------------------------------------------------------------

 -------------------------------
 Scan Step 23, Bond Length 0.615
 -------------------------------
 Symbolic Z-matrix:
 Charge =  0 Multiplicity = 1

                         Standard orientation:
 ---------------------------------------------------------------------
 Center     Atomic      Atomic             Coordinates (Angstroms)
 Number     Number       Type             X           Y           Z
 ---------------------------------------------------------------------
      1          6           0        0.000000    0.000000   -0.233581
      2          1           0        0.000000    0.937260   -0.824931
      3          1           0       -0.000000   -0.937260   -0.824931
      4          8           0        0.000000   -0.000000    0.381419
 ---------------------------------------------------------------------

 SCF Done:  E(RB3LYP) =  -111.853492337     A.U. after   10 cycles

 Excitation energies and oscillator strengths:

 Excited State   1:      Singlet-B2     4.5785 eV  270.80 nm  f=0.1364  <S**2>=0.000
       3 -> 11         0.00075
       3 -> 15         0.00085
       3 -> 19         0.00075
       3 -> 22         0.00070
       3 -> 25         0.00112
       3 -> 29         0.00015
       3 -> 31        -0.00025
       3 -> 40        -0.00033
       3 -> 43         0.00023
       3 -> 54         0.00016
       4 ->  9        -0.00268
       4 -> 12         0.00226
       4 -> 13         0.00318
       4 -> 16         0.00138
       4 -> 18         0.00227
       4 -> 20         0.00210
       4 -> 21         0.00159
       4 -> 24         0.00132
       4 -> 26        -0.00076
       4 -> 30         0.00118
       4 -> 32         0.00130
       4 -> 38        -0.00058
       4 -> 42         0.00046
       4 -> 44        -0.00027
       4 -> 47         0.00074
       4 -> 49        -0.00011
       4 -> 53        -0.00013
       5 -> 28         0.00200
       5 -> 35         0.00090
       5 -> 45         0.00073
       6 -> 11        -0.00594
       6 -> 15         0.00331
       6 -> 19        -0.00019
       6 -> 22        -0.00026
       6 -> 25         0.00442
       6 -> 29         0.00076
       6 -> 31        -0.00066
       6 -> 40        -0.00014
       6 -> 43         0.00015
       6 -> 46         0.00034
       7 -> 11         0.00895
       7 -> 15         0.00388
       7 -> 19         0.00350
       7 -> 22         0.00037
       7 -> 25         0.00098
       7 -> 29        -0.00118
       7 -> 31         0.00098
       7 -> 37        -0.00067
       7 -> 43        -0.00037
       7 -> 46         0.00042
       7 -> 50         0.00042
       7 -> 54        -0.00012
       8 ->  9         0.70481
       8 -> 12        -0.00222
       8 -> 13         0.05616
       8 -> 16        -0.00517
       8 -> 18        -0.02284
       8 -> 20         0.00546
       8 -> 21         0.01088
       8 -> 24        -0.00029
       8 -> 26        -0.00072
       8 -> 30        -0.00338
       8 -> 32        -0.00196
       8 -> 33        -0.00076
       8 -> 38        -0.00107
       8 -> 42         0.00075
       8 -> 44         0.00043
       8 -> 47        -0.00066
       8 -> 49         0.00027
       3 <- 11         0.00035
       3 <- 15         0.00049
       3 <- 19         0.00048
       3 <- 22         0.00058
       3 <- 25         0.00085
       3 <- 31        -0.00026
       3 <- 40        -0.00034
       3 <- 43         0.00023
       3 <- 54         0.00017
       4 <-  9        -0.00109
       4 <- 12        -0.00018
       4 <- 13         0.00261
       4 <- 16         0.00160
       4 <- 18         0.00032
       4 <- 20         0.00131
       4 <- 21         0.00129
       4 <- 24         0.00093
       4 <- 26        -0.00132
       4 <- 30         0.00089
       4 <- 32         0.00056
       4 <- 33         0.00012
       4 <- 38        -0.00038
       4 <- 39         0.00014
       4 <- 42         0.00037
       4 <- 44        -0.00022
       4 <- 47         0.00067
       5 <- 28         0.00170
       5 <- 35         0.00074
       5 <- 45         0.00062
       6 <- 11        -0.00155
       6 <- 15         0.00308
       6 <- 19         0.00020
       6 <- 22         0.00029
       6 <- 25         0.00332
       6 <- 29         0.00029
       6 <- 31        -0.00059
       6 <- 37         0.00014
       6 <- 40        -0.00012
       6 <- 43         0.00012
       6 <- 46         0.00031
       6 <- 50         0.00014
       7 <- 11         0.00213
       7 <- 15         0.00166
       7 <- 19         0.00068
       7 <- 22         0.00011
       7 <- 25         0.00030
       7 <- 29        -0.00172
       7 <- 31         0.00082
       7 <- 37        -0.00042
       7 <- 43        -0.00025
       7 <- 46         0.00045
       7 <- 50         0.00049
       8 <-  9        -0.01097
       8 <- 12        -0.00648
       8 <- 13         0.02308
       8 <- 16         0.00718
       8 <- 18         0.00086
       8 <- 20         0.00098
       8 <- 21         0.00567
       8 <- 24         0.00293
       8 <- 26        -0.00044
       8 <- 30        -0.00227
       8 <- 32        -0.00148
       8 <- 33        -0.00119
       8 <- 38        -0.00104
       8 <- 39        -0.00011
       8 <- 42         0.00067
       8 <- 44         0.00015
       8 <- 47        -0.00058
       8 <- 49         0.00017
 This state for optimization and/or second-order correction.
 Total Energy, E(TD-HF/TD-DFT) =  -111.685235980
 Copying the excited state density for this state as the 1-particle RhoCI density.

 Excited State   2:      Singlet-A2     4.9425 eV  250.85 nm  f=0.0000  <S**2>=0.000
       3 -> 28        -0.00186
       3 -> 35        -0.00105
       3 -> 45        -0.00034
       4 -> 10        -0.00078
       4 -> 14        -0.00023
       4 -> 17         0.00282
       4 -> 23        -0.00103
       4 -> 27        -0.00205
       4 -> 34         0.00018
       4 -> 36        -0.00120
       4 -> 48        -0.00014
       4 -> 52        -0.00023
       5 -> 11         0.00022
       5 -> 15        -0.00019
       5 -> 19         0.00033
       5 -> 22        -0.00077
       5 -> 25         0.00025
       5 -> 29         0.00031
       5 -> 37        -0.00031
       5 -> 40         0.00013
       5 -> 43        -0.00036
       5 -> 46        -0.00030
       5 -> 50         0.00017
       6 -> 28        -0.00311
       6 -> 35         0.00056
       6 -> 45         0.00010
       7 -> 28         0.00167
       7 -> 35        -0.00034
       7 -> 45        -0.00035
       8 -> 10         0.70653
       8 -> 14        -0.01222
       8 -> 17        -0.02668
       8 -> 23        -0.00360
       8 -> 27         0.00069
       8 -> 34         0.00334
       8 -> 36        -0.00167
       8 -> 41         0.00044
       8 -> 48         0.00015
       8 -> 52         0.00031
       3 <- 28        -0.00155
       3 <- 35        -0.00091
       3 <- 45        -0.00033
       4 <- 10        -0.00019
       4 <- 14         0.00046
       4 <- 17         0.00081
       4 <- 23        -0.00014
       4 <- 27        -0.00045
       4 <- 34         0.00068
       4 <- 36        -0.00070
       4 <- 41        -0.00016
       5 <- 11         0.00051
       5 <- 15        -0.00050
       5 <- 19         0.00120
       5 <- 22        -0.00100
       5 <- 25         0.00088
       5 <- 29         0.00125
       5 <- 31         0.00015
       5 <- 37        -0.00062
       5 <- 43        -0.00040
       5 <- 46        -0.00032
       5 <- 54        -0.00020
       6 <- 28        -0.00301
       6 <- 35         0.00069
       7 <- 28         0.00170
       7 <- 35        -0.00046
       7 <- 45        -0.00037
       8 <- 10         0.00240
       8 <- 14         0.00355
       8 <- 17         0.00699
       8 <- 23        -0.00017
       8 <- 27        -0.00068
       8 <- 34         0.00319
       8 <- 36        -0.00133
       8 <- 41         0.00026
       8 <- 52         0.00012

 Excited State   3:      Singlet-B2     5.6001 eV  221.40 nm  f=0.0368  <S**2>=0.000
       3 -> 11        -0.00019
       3 -> 15         0.00043
       3 -> 19        -0.00037
       3 -> 22         0.00029
       3 -> 25         0.00021
       3 -> 29        -0.00025
       3 -> 31         0.00012
       3 -> 37        -0.00018
       3 -> 40         0.00015
       3 -> 43        -0.00019
       3 -> 46         0.00011
       3 -> 54        -0.00019
       4 ->  9         0.00120
       4 -> 12         0.00023
       4 -> 13         0.00101
       4 -> 16         0.00199
       4 -> 18        -0.00098
       4 -> 20        -0.00057
       4 -> 21         0.00105
       4 -> 24         0.00088
       4 -> 26         0.00034
       4 -> 30        -0.00212
       4 -> 32        -0.00024
       4 -> 38         0.00036
       4 -> 39        -0.00094
       4 -> 42        -0.00030
       4 -> 47        -0.00045
       5 -> 28        -0.00100
       5 -> 35        -0.00116
       5 -> 45        -0.00062
       6 -> 11        -0.00079
       6 -> 15         0.00362
       6 -> 19        -0.00196
       6 -> 22        -0.00014
       6 -> 25         0.00156
       6 -> 29         0.00199
       6 -> 31         0.00044
       6 -> 37         0.00057
       6 -> 40         0.00042
       6 -> 43         0.00028
       6 -> 46        -0.00029
       6 -> 50        -0.00024
       6 -> 54         0.00015
       7 -> 11        -0.00146
       7 -> 15        -0.00432
       7 -> 19        -0.00100
       7 -> 22         0.00024
       7 -> 25        -0.00313
       7 -> 29        -0.00116
       7 -> 31        -0.00048
       7 -> 37         0.00049
       7 -> 46        -0.00055
       7 -> 50        -0.00026
       7 -> 54         0.00015
       8 -> 12         0.70555
       8 -> 13         0.03698
       8 -> 16         0.02634
       8 -> 18         0.00564
       8 -> 20         0.01570
       8 -> 21         0.00547
       8 -> 24        -0.00096
       8 -> 26         0.00197
       8 -> 30        -0.00287
       8 -> 32         0.00053
       8 -> 33        -0.00017
       8 -> 38        -0.00063
       8 -> 39         0.00140
       8 -> 42         0.00089
       8 -> 44        -0.00013
       8 -> 47         0.00030
       8 -> 53        -0.00016
       3 <- 15         0.00039
       3 <- 19        -0.00013
       3 <- 22         0.00015
       3 <- 25         0.00029
       3 <- 29        -0.00011
       3 <- 31         0.00013
       3 <- 37        -0.00020
       3 <- 40         0.00013
       3 <- 43        -0.00018
       3 <- 54        -0.00023
       4 <-  9        -0.00109
       4 <- 12        -0.00019
       4 <- 13         0.00111
       4 <- 16         0.00066
       4 <- 18         0.00055
       4 <- 20        -0.00040
       4 <- 21         0.00072
       4 <- 24         0.00097
       4 <- 26         0.00044
       4 <- 30        -0.00142
       4 <- 33        -0.00055
       4 <- 38         0.00024
       4 <- 39        -0.00068
       4 <- 42        -0.00032
       4 <- 47        -0.00041
       5 <- 28        -0.00062
       5 <- 35        -0.00101
       5 <- 45        -0.00056
       6 <- 11        -0.00059
       6 <- 15         0.00073
       6 <- 19         0.00017
       6 <- 22        -0.00056
       6 <- 25         0.00145
       6 <- 29         0.00156
       6 <- 31         0.00062
       6 <- 37         0.00053
       6 <- 40         0.00035
       6 <- 43         0.00021
       6 <- 46        -0.00024
       6 <- 50        -0.00018
       6 <- 54         0.00011
       7 <- 11         0.00023
       7 <- 15        -0.00141
       7 <- 19        -0.00057
       7 <- 22         0.00018
       7 <- 25        -0.00190
       7 <- 29        -0.00033
       7 <- 31        -0.00040
       7 <- 37         0.00016
       7 <- 46        -0.00049
       7 <- 50        -0.00034
       8 <-  9        -0.00594
       8 <- 12         0.00082
       8 <- 13         0.01203
       8 <- 16         0.00475
       8 <- 18        -0.00132
       8 <- 20        -0.00319
       8 <- 21         0.00328
       8 <- 24         0.00061
       8 <- 30        -0.00234
       8 <- 32         0.00054
       8 <- 33        -0.00015
       8 <- 38        -0.00047
       8 <- 39         0.00127
       8 <- 42         0.00077
       8 <- 47         0.00025

 Excited State   4:      Singlet-A1     5.8049 eV  213.58 nm  f=0.0025  <S**2>=0.000
       3 ->  9         0.00141
       3 -> 12        -0.00041
       3 -> 13         0.00021
       3 -> 16        -0.00084
       3 -> 18        -0.00165
       3 -> 20        -0.00015
       3 -> 21         0.00092
       3 -> 24        -0.00086
       3 -> 26        -0.00034
       3 -> 30         0.00066
       3 -> 32        -0.00081
       3 -> 33         0.00056
       3 -> 38         0.00043
       3 -> 39         0.00033
       3 -> 44        -0.00014
       3 -> 47         0.00010
       3 -> 51         0.00020
       4 -> 11        -0.00576
       4 -> 15        -0.00552
       4 -> 19        -0.00474
       4 -> 22        -0.00263
       4 -> 25        -0.00323
       4 -> 29        -0.00025
       4 -> 37        -0.00097
       4 -> 40        -0.00014
       4 -> 43         0.00022
       4 -> 46        -0.00011
       4 -> 50         0.00013
       5 -> 10        -0.00274
       5 -> 14        -0.00389
       5 -> 17         0.00160
       5 -> 23         0.00359
       5 -> 27        -0.00063
       5 -> 34        -0.00079
       5 -> 36        -0.00059
       5 -> 48         0.00015
       6 ->  9         0.01140
       6 -> 12         0.00638
       6 -> 13        -0.00356
       6 -> 16        -0.00506
       6 -> 18        -0.00698
       6 -> 20         0.00395
       6 -> 21         0.00199
       6 -> 24        -0.00538
       6 -> 26         0.00119
       6 -> 30        -0.00040
       6 -> 32         0.00216
       6 -> 33         0.00197
       6 -> 38         0.00147
       6 -> 39        -0.00110
       6 -> 42        -0.00022
       6 -> 44         0.00074
       6 -> 47         0.00015
       6 -> 49        -0.00040
       7 ->  9         0.00774
       7 -> 12        -0.01237
       7 -> 13         0.00035
       7 -> 16         0.00605
       7 -> 18        -0.00776
       7 -> 20        -0.00378
       7 -> 21        -0.00149
       7 -> 24         0.00113
       7 -> 26        -0.00369
       7 -> 30        -0.00085
       7 -> 32        -0.00173
       7 -> 33         0.00029
       7 -> 38        -0.00094
       7 -> 39         0.00052
       7 -> 42         0.00017
       7 -> 44        -0.00035
       7 -> 51        -0.00017
       8 -> 11         0.70450
       8 -> 15         0.05529
       8 -> 19        -0.02152
       8 -> 22        -0.00109
       8 -> 25         0.00871
       8 -> 29        -0.00326
       8 -> 31         0.00212
       8 -> 37        -0.00347
       8 -> 40        -0.00055
       8 -> 43         0.00188
       8 -> 46        -0.00106
       8 -> 50         0.00022
       3 <-  9         0.00082
       3 <- 12        -0.00019
       3 <- 13         0.00017
       3 <- 16        -0.00055
       3 <- 18        -0.00107
       3 <- 20        -0.00011
       3 <- 21         0.00065
       3 <- 24        -0.00065
       3 <- 26        -0.00027
       3 <- 30         0.00052
       3 <- 32        -0.00057
       3 <- 33         0.00046
       3 <- 38         0.00034
       3 <- 39         0.00027
       3 <- 44        -0.00013
       3 <- 47         0.00013
       3 <- 51         0.00017
       4 <- 11        -0.00249
       4 <- 15        -0.00234
       4 <- 19        -0.00279
       4 <- 22        -0.00186
       4 <- 25        -0.00182
       4 <- 29        -0.00021
       4 <- 37        -0.00081
       4 <- 40        -0.00013
       4 <- 43         0.00021
       4 <- 50         0.00012
       5 <- 10        -0.00160
       5 <- 14        -0.00237
       5 <- 17         0.00102
       5 <- 23         0.00256
       5 <- 27        -0.00046
       5 <- 34        -0.00066
       5 <- 36        -0.00050
       5 <- 48         0.00014
       6 <-  9         0.00819
       6 <- 12         0.00329
       6 <- 13        -0.00289
       6 <- 16        -0.00391
       6 <- 18        -0.00374
       6 <- 20         0.00214
       6 <- 21         0.00219
       6 <- 24        -0.00366
       6 <- 26         0.00080
       6 <- 32         0.00161
       6 <- 33         0.00141
       6 <- 38         0.00141
       6 <- 39        -0.00082
       6 <- 42        -0.00021
       6 <- 44         0.00072
       6 <- 49        -0.00035
       7 <-  9         0.00012
       7 <- 12        -0.00509
       7 <- 13         0.00126
       7 <- 16         0.00411
       7 <- 18        -0.00371
       7 <- 20        -0.00174
       7 <- 21        -0.00142
       7 <- 24         0.00085
       7 <- 26        -0.00250
       7 <- 30        -0.00081
       7 <- 32        -0.00132
       7 <- 33         0.00022
       7 <- 38        -0.00083
       7 <- 39         0.00028
       7 <- 44        -0.00035
       7 <- 47        -0.00011
       7 <- 51        -0.00015
       8 <- 11        -0.01239
       8 <- 15         0.00518
       8 <- 19        -0.01631
       8 <- 22        -0.00440
       8 <- 25         0.00438
       8 <- 29        -0.00247
       8 <- 31         0.00193
       8 <- 37        -0.00278
       8 <- 40        -0.00024
       8 <- 43         0.00152
       8 <- 46        -0.00099
       8 <- 50         0.00023

 Excited State   5:      Singlet-A2     8.3517 eV  148.45 nm  f=0.0000  <S**2>=0.000
       3 -> 28         0.00237
       3 -> 35         0.00142
       3 -> 45         0.00042
       4 -> 10        -0.00045
       4 -> 14        -0.00564
       4 -> 17        -0.00178
       4 -> 23         0.00303
       4 -> 27         0.00049
       4 -> 34         0.00059
       4 -> 36         0.00209
       4 -> 41        -0.00017
       4 -> 52         0.00022
       5 -> 15        -0.00019
       5 -> 19        -0.00046
       5 -> 22         0.00112
       5 -> 25        -0.00072
       5 -> 29        -0.00012
       5 -> 37         0.00038
       5 -> 40        -0.00017
       5 -> 43         0.00055
       5 -> 46         0.00037
       5 -> 50        -0.00012
       5 -> 54         0.00010
       6 -> 28         0.00253
       6 -> 35        -0.00064
       7 -> 28        -0.00150
       7 -> 35         0.00032
       7 -> 45         0.00036
       8 -> 10         0.01477
       8 -> 14         0.70303
       8 -> 17         0.07208
       8 -> 23        -0.01790
       8 -> 27        -0.00200
       8 -> 34        -0.00272
       8 -> 36         0.00270
       8 -> 41        -0.00021
       8 -> 52        -0.00033
       3 <- 28         0.00166
       3 <- 35         0.00115
       3 <- 45         0.00046
       4 <- 10         0.00031
       4 <- 14        -0.00050
       4 <- 17        -0.00063
       4 <- 23         0.00023
       4 <- 27         0.00031
       4 <- 34        -0.00057
       4 <- 36         0.00082
       4 <- 41         0.00020
       5 <- 11         0.00041
       5 <- 15        -0.00012
       5 <- 19        -0.00025
       5 <- 22         0.00128
       5 <- 25        -0.00133
       5 <- 29        -0.00032
       5 <- 31        -0.00046
       5 <- 37         0.00092
       5 <- 43         0.00059
       5 <- 46         0.00011
       5 <- 54         0.00021
       6 <- 28         0.00263
       6 <- 35        -0.00059
       6 <- 45        -0.00014
       7 <- 28        -0.00135
       7 <- 45         0.00018
       8 <- 10         0.00409
       8 <- 14        -0.00169
       8 <- 17        -0.00467
       8 <- 23         0.00081
       8 <- 27         0.00042
       8 <- 34        -0.00299
       8 <- 36         0.00138
       8 <- 41        -0.00024

 The electronic state is 1-A1.
 Alpha  occ. eigenvalues --  -19.25437 -10.40876  -1.27801  -0.86116  -0.83374
 Alpha  occ. eigenvalues --   -0.58237  -0.52894  -0.19820
 Alpha virt. eigenvalues --    0.00394   0.02625   0.04425   0.04705   0.14250
 Alpha virt. eigenvalues --    0.15888   0.17864   0.17994   0.21850   0.22425
 Alpha virt. eigenvalues --    0.28123   0.36614   0.50683   0.57548   0.60527

 Mulliken charges:
               1
     1  C    0.235202
     2  H   -0.121127
     3  H   -0.121127
     4  O    0.007051
 Sum of Mulliken charges =   0.00000

 Dipole moment (field-independent basis, Debye):
    X=              0.0000    Y=             -0.0000    Z=              1.4931  Tot=              1.4931
 Quadrupole moment (field-independent basis, Debye-Ang):
   XX=            -10.0941   YY=            -14.0663   ZZ=            -13.7028
   XY=             -0.0000   XZ=             -0.0000   YZ=             -0.0000

 Normal termination of Gaussian 16 at Fri Sep 17 10:52:19 2021.
