 Gaussian 16, Revision C.01,
 Gaussian 16:  ES64L-G16RevC.01  3-Jul-2019

 ----------------------------------------
 #P wB97XD/6-311+G* NoSymm #P Field=Y+126
 ----------------------------------------

 -------
 TitleMe
 -------
 Symbolic Z-matrix:
 Charge =  1 Multiplicity = 1

                          Input orientation:
 ---------------------------------------------------------------------
 Center     Atomic      Atomic             Coordinates (Angstroms)
 Number     Number       Type             X           Y           Z
 ---------------------------------------------------------------------
      1          6           0        0.519300    1.233000   -0.031900
      2          6           0        1.944500    1.269200   -0.036700
      3          6           0        2.620400    0.092800   -0.025000
      4          6           0       -0.196000    0.030100    0.001000
      5          1           0       -0.020700    2.174200   -0.043400
      6          1           0        2.482800    2.208900   -0.036100
      7          1           0       -1.277700    0.039900    0.011700
      8          7           0        4.092100    0.095900    0.036600
      9          8           0        4.639300   -1.021700    0.144600
     10          8           0        4.664900    1.198400   -0.023300
     11          6           0        0.494300   -1.167100    0.021000
     12          1           0       -0.032500   -2.114900    0.054500
     13          6           0        1.962900   -1.216500   -0.021100
     14          1           0        2.443600   -1.963100    0.615100
     15         35           0        2.173000   -1.949100   -1.906200
 ---------------------------------------------------------------------

 SCF Done:  E(RwB97XD) =  -3010.54556648     A.U. after   20 cycles

 Alpha  occ. eigenvalues -- -483.29245 -62.84235 -56.63958 -56.63353 -56.63335
 Alpha  occ. eigenvalues --  -19.46259 -19.46001 -14.85484 -10.58805 -10.56705
 Alpha  occ. eigenvalues --  -10.56231 -10.56196 -10.53518 -10.52194  -9.00017
 Alpha  occ. eigenvalues --   -6.82773  -6.80796  -6.80740  -2.92658  -2.92145
 Alpha  occ. eigenvalues --   -2.92101  -2.90519  -2.90518  -1.49786  -1.32755
 Alpha  occ. eigenvalues --   -1.21683  -1.12278  -1.11520  -1.03561  -0.99496
 Alpha  occ. eigenvalues --   -0.94621  -0.90054  -0.84643  -0.80562  -0.79852
 Alpha  occ. eigenvalues --   -0.79567  -0.77354  -0.75972  -0.74871  -0.71127
 Alpha  occ. eigenvalues --   -0.67825  -0.66996  -0.62564  -0.58781  -0.57262
 Alpha  occ. eigenvalues --   -0.56452  -0.55770  -0.53825  -0.52906
 Alpha virt. eigenvalues --   -0.29184  -0.20165  -0.14256  -0.12758  -0.12356
 Alpha virt. eigenvalues --   -0.08660  -0.06350  -0.05699  -0.04497  -0.03292
 Alpha virt. eigenvalues --   -0.01831  -0.01218  -0.00531  -0.00114   0.00759

 Mulliken charges:
               1
     1  C   -0.103767
     2  C    0.194235
     3  C   -0.103770
     4  C   -0.368344
     5  H    0.290579
     6  H    0.299862
     7  H    0.327732
     8  N   -0.244877
     9  O    0.158915
    10  O   -0.002148
    11  C   -0.183230
    12  H    0.400432
    13  C   -0.385714
    14  H    0.441115
    15  Br   0.278979
 Sum of Mulliken charges =   1.00000

 Dipole moment (field-independent basis, Debye):
    X=              2.9708    Y=             -4.6103    Z=             -1.2663  Tot=              5.6288
 Quadrupole moment (field-independent basis, Debye-Ang):
   XX=            -67.6665   YY=            -49.4738   ZZ=            -60.8377
   XY=            -10.7103   XZ=             -3.6886   YZ=              4.4188

 Normal termination of Gaussian 16 at Thu May  2 14:19:35 2024.
