 Gaussian 16, Revision C.01,
 Gaussian 16:  ES64L-G16RevC.01  3-Jul-2019

 ----------------------------------------
 #P wB97XD/6-311+G* NoSymm #P Field=Y-165
 ----------------------------------------

 -------
 TitleMe
 -------
 Symbolic Z-matrix:
 Charge =  1 Multiplicity = 1

                          Input orientation:
 ---------------------------------------------------------------------
 Center     Atomic      Atomic             Coordinates (Angstroms)
 Number     Number       Type             X           Y           Z
 ---------------------------------------------------------------------
      1          6           0        0.519300    1.233000   -0.031900
      2          6           0        1.944500    1.269200   -0.036700
      3          6           0        2.620400    0.092800   -0.025000
      4          6           0       -0.196000    0.030100    0.001000
      5          1           0       -0.020700    2.174200   -0.043400
      6          1           0        2.482800    2.208900   -0.036100
      7          1           0       -1.277700    0.039900    0.011700
      8          7           0        4.092100    0.095900    0.036600
      9          8           0        4.639300   -1.021700    0.144600
     10          8           0        4.664900    1.198400   -0.023300
     11          6           0        0.494300   -1.167100    0.021000
     12          1           0       -0.032500   -2.114900    0.054500
     13          6           0        1.962900   -1.216500   -0.021100
     14          1           0        2.443600   -1.963100    0.615100
     15         35           0        2.173000   -1.949100   -1.906200
 ---------------------------------------------------------------------

 SCF Done:  E(RwB97XD) =  -3010.54175662     A.U. after   22 cycles

 Alpha  occ. eigenvalues -- -483.33753 -62.88802 -56.68459 -56.67936 -56.67935
 Alpha  occ. eigenvalues --  -19.46606 -19.46282 -14.85824 -10.60367 -10.59613
 Alpha  occ. eigenvalues --  -10.58508 -10.57230 -10.53573 -10.53126  -9.04628
 Alpha  occ. eigenvalues --   -6.87208  -6.85485  -6.85477  -2.97136  -2.96675
 Alpha  occ. eigenvalues --   -2.96667  -2.95288  -2.95287  -1.50101  -1.33057
 Alpha  occ. eigenvalues --   -1.23474  -1.14021  -1.13226  -1.06446  -1.01181
 Alpha  occ. eigenvalues --   -0.96229  -0.91227  -0.85630  -0.81397  -0.80943
 Alpha  occ. eigenvalues --   -0.80373  -0.78758  -0.76493  -0.76226  -0.73165
 Alpha  occ. eigenvalues --   -0.69179  -0.67814  -0.64210  -0.61524  -0.59379
 Alpha  occ. eigenvalues --   -0.57874  -0.57336  -0.56074  -0.55705
 Alpha virt. eigenvalues --   -0.31179  -0.20705  -0.17785  -0.15764  -0.13442
 Alpha virt. eigenvalues --   -0.11599  -0.10687  -0.07791  -0.06628  -0.05865
 Alpha virt. eigenvalues --   -0.04951  -0.04128  -0.03477  -0.03046  -0.01307

 Mulliken charges:
               1
     1  C   -0.119136
     2  C    0.212541
     3  C   -0.047234
     4  C   -0.293969
     5  H    0.410562
     6  H    0.409500
     7  H    0.335982
     8  N   -0.234649
     9  O   -0.000713
    10  O    0.165173
    11  C   -0.205703
    12  H    0.294341
    13  C   -0.359554
    14  H    0.370526
    15  Br   0.062330
 Sum of Mulliken charges =   1.00000

 Dipole moment (field-independent basis, Debye):
    X=              2.5345    Y=              3.9483    Z=             -0.1040  Tot=              4.6930
 Quadrupole moment (field-independent basis, Debye-Ang):
   XX=            -68.1082   YY=            -54.0501   ZZ=            -63.9987
   XY=              7.1345   XZ=             -1.1535   YZ=             -0.1144

 Normal termination of Gaussian 16 at Thu May  2 14:21:27 2024.
