 Gaussian 16, Revision C.01,
 Gaussian 16:  ES64L-G16RevC.01  3-Jul-2019

 ----------------------------------------
 #P wB97XD/6-311+G* NoSymm #P Field=Y-262
 ----------------------------------------

 -------
 TitleMe
 -------
 Symbolic Z-matrix:
 Charge =  1 Multiplicity = 1

                          Input orientation:
 ---------------------------------------------------------------------
 Center     Atomic      Atomic             Coordinates (Angstroms)
 Number     Number       Type             X           Y           Z
 ---------------------------------------------------------------------
      1          6           0        0.029500    1.339700    0.068200
      2          6           0        1.434800    1.286700    0.006400
      3          6           0        2.111800    0.051100   -0.005400
      4          6           0        1.445100   -1.137200    0.031200
      5          6           0       -0.687900    0.168200    0.110000
      6          1           0       -0.471300    2.298400    0.078100
      7          1           0        2.027300    2.196500   -0.032200
      8          1           0        1.989700   -2.076400    0.023200
      9          1           0       -1.771600    0.180400    0.158200
     10          7           0        3.586400    0.051000   -0.067500
     11          8           0        4.147100   -1.059700   -0.088100
     12          8           0        4.145000    1.163900   -0.090100
     13          6           0       -0.023600   -1.145800    0.083500
     14          1           0       -0.436700   -1.872500    0.788900
     15         35           0       -0.535900   -1.869700   -1.740800
 ---------------------------------------------------------------------

 SCF Done:  E(RwB97XD) =  -3010.56818298     A.U. after   21 cycles

 Alpha  occ. eigenvalues -- -483.35740 -62.90804 -56.70432 -56.69954 -56.69946
 Alpha  occ. eigenvalues --  -19.47068 -19.46482 -14.86078 -10.61999 -10.58725
 Alpha  occ. eigenvalues --  -10.58639 -10.57300 -10.56816 -10.51903  -9.06639
 Alpha  occ. eigenvalues --   -6.89134  -6.87550  -6.87527  -2.99082  -2.98659
 Alpha  occ. eigenvalues --   -2.98641  -2.97371  -2.97371  -1.50436  -1.33403
 Alpha  occ. eigenvalues --   -1.24187  -1.16311  -1.12218  -1.07749  -1.01810
 Alpha  occ. eigenvalues --   -0.96806  -0.91878  -0.86210  -0.81946  -0.81404
 Alpha  occ. eigenvalues --   -0.80863  -0.79967  -0.76781  -0.76259  -0.74424
 Alpha  occ. eigenvalues --   -0.69541  -0.67279  -0.64829  -0.63145  -0.61620
 Alpha  occ. eigenvalues --   -0.58101  -0.57739  -0.56883  -0.56112
 Alpha virt. eigenvalues --   -0.31308  -0.22300  -0.21594  -0.19478  -0.16591
 Alpha virt. eigenvalues --   -0.15597  -0.13758  -0.11118  -0.10112  -0.09468
 Alpha virt. eigenvalues --   -0.07490  -0.05993  -0.05287  -0.03848  -0.02774

 Mulliken charges:
               1
     1  C   -0.512899
     2  C    0.410632
     3  C   -0.608210
     4  C    0.291522
     5  C    0.062586
     6  H    0.433404
     7  H    0.453825
     8  H    0.280090
     9  H    0.359516
    10  N   -0.110176
    11  O   -0.097529
    12  O    0.180940
    13  C   -0.482675
    14  H    0.336147
    15  Br   0.002826
 Sum of Mulliken charges =   1.00000

 Dipole moment (field-independent basis, Debye):
    X=              0.1491    Y=              6.9892    Z=              0.9310  Tot=              7.0525
 Quadrupole moment (field-independent basis, Debye-Ang):
   XX=            -69.6185   YY=            -56.4504   ZZ=            -64.9689
   XY=              9.7364   XZ=              0.2795   YZ=             -1.8402

 Normal termination of Gaussian 16 at Wed May  1 14:49:36 2024.
