 Gaussian 16, Revision C.01,
 Gaussian 16:  ES64L-G16RevC.01  3-Jul-2019

 ----------------------------------------
 #P wB97XD/6-311+G* NoSymm #P Field=X-233
 ----------------------------------------

 -------
 TitleMe
 -------
 Symbolic Z-matrix:
 Charge =  1 Multiplicity = 1

                          Input orientation:
 ---------------------------------------------------------------------
 Center     Atomic      Atomic             Coordinates (Angstroms)
 Number     Number       Type             X           Y           Z
 ---------------------------------------------------------------------
      1          6           0        0.519300    1.233000   -0.031900
      2          6           0        1.944500    1.269200   -0.036700
      3          6           0        2.620400    0.092800   -0.025000
      4          6           0       -0.196000    0.030100    0.001000
      5          1           0       -0.020700    2.174200   -0.043400
      6          1           0        2.482800    2.208900   -0.036100
      7          1           0       -1.277700    0.039900    0.011700
      8          7           0        4.092100    0.095900    0.036600
      9          8           0        4.639300   -1.021700    0.144600
     10          8           0        4.664900    1.198400   -0.023300
     11          6           0        0.494300   -1.167100    0.021000
     12          1           0       -0.032500   -2.114900    0.054500
     13          6           0        1.962900   -1.216500   -0.021100
     14          1           0        2.443600   -1.963100    0.615100
     15         35           0        2.173000   -1.949100   -1.906200
 ---------------------------------------------------------------------

 SCF Done:  E(RwB97XD) =  -3010.58820764     A.U. after   27 cycles

 Alpha  occ. eigenvalues -- -483.23298 -62.78288 -56.58000 -56.57415 -56.57391
 Alpha  occ. eigenvalues --  -19.32111 -19.31896 -14.71710 -10.51058 -10.50907
 Alpha  occ. eigenvalues --  -10.50548 -10.49855 -10.47747 -10.44856  -8.94070
 Alpha  occ. eigenvalues --   -6.76791  -6.74876  -6.74802  -2.86684  -2.86192
 Alpha  occ. eigenvalues --   -2.86132  -2.84601  -2.84599  -1.35768  -1.18552
 Alpha  occ. eigenvalues --   -1.14982  -1.05611  -1.04383  -0.96813  -0.91291
 Alpha  occ. eigenvalues --   -0.88159  -0.82800  -0.77134  -0.72696  -0.71187
 Alpha  occ. eigenvalues --   -0.68881  -0.68505  -0.67061  -0.63964  -0.62232
 Alpha  occ. eigenvalues --   -0.61714  -0.59615  -0.56530  -0.51755  -0.47949
 Alpha  occ. eigenvalues --   -0.47113  -0.42742  -0.41129  -0.41046
 Alpha virt. eigenvalues --   -0.22558  -0.13588  -0.11473  -0.08570  -0.07606
 Alpha virt. eigenvalues --   -0.05547  -0.03851  -0.02321  -0.00533  -0.00183
 Alpha virt. eigenvalues --    0.01310   0.02332   0.04238   0.04774   0.05434

 Mulliken charges:
               1
     1  C   -0.095124
     2  C    0.132867
     3  C    0.069048
     4  C   -0.283208
     5  H    0.282536
     6  H    0.380020
     7  H    0.208110
     8  N   -0.242133
     9  O    0.179011
    10  O    0.183410
    11  C   -0.345921
    12  H    0.297641
    13  C   -0.448912
    14  H    0.440307
    15  Br   0.242349
 Sum of Mulliken charges =   1.00000

 Dipole moment (field-independent basis, Debye):
    X=              9.5850    Y=             -1.2391    Z=             -1.0924  Tot=              9.7263
 Quadrupole moment (field-independent basis, Debye-Ang):
   XX=            -42.1033   YY=            -50.8579   ZZ=            -61.5901
   XY=             -4.4467   XZ=             -4.4188   YZ=              3.2707

 Normal termination of Gaussian 16 at Thu May  2 14:26:40 2024.
