 Gaussian 16, Revision C.01,
 Gaussian 16:  ES64L-G16RevC.01  3-Jul-2019

 ----------------------------------------
 #P wB97XD/6-311+G* NoSymm #P Field=X+223
 ----------------------------------------

 -------
 TitleMe
 -------
 Symbolic Z-matrix:
 Charge =  1 Multiplicity = 1

                          Input orientation:
 ---------------------------------------------------------------------
 Center     Atomic      Atomic             Coordinates (Angstroms)
 Number     Number       Type             X           Y           Z
 ---------------------------------------------------------------------
      1          6           0        0.029500    1.339700    0.068200
      2          6           0        1.434800    1.286700    0.006400
      3          6           0        2.111800    0.051100   -0.005400
      4          6           0        1.445100   -1.137200    0.031200
      5          6           0       -0.687900    0.168200    0.110000
      6          1           0       -0.471300    2.298400    0.078100
      7          1           0        2.027300    2.196500   -0.032200
      8          1           0        1.989700   -2.076400    0.023200
      9          1           0       -1.771600    0.180400    0.158200
     10          7           0        3.586400    0.051000   -0.067500
     11          8           0        4.147100   -1.059700   -0.088100
     12          8           0        4.145000    1.163900   -0.090100
     13          6           0       -0.023600   -1.145800    0.083500
     14          1           0       -0.436700   -1.872500    0.788900
     15         35           0       -0.535900   -1.869700   -1.740800
 ---------------------------------------------------------------------

 SCF Done:  E(RwB97XD) =  -3010.57231948     A.U. after   20 cycles

 Alpha  occ. eigenvalues -- -483.32998 -62.87981 -56.67705 -56.67097 -56.67083
 Alpha  occ. eigenvalues --  -19.57097 -19.57006 -14.96218 -10.62605 -10.61590
 Alpha  occ. eigenvalues --  -10.61003 -10.60203 -10.59094 -10.55233  -9.03755
 Alpha  occ. eigenvalues --   -6.86513  -6.84529  -6.84479  -2.96397  -2.95881
 Alpha  occ. eigenvalues --   -2.95840  -2.94253  -2.94253  -1.60804  -1.43903
 Alpha  occ. eigenvalues --   -1.26723  -1.18484  -1.14978  -1.07920  -1.06051
 Alpha  occ. eigenvalues --   -0.98672  -0.96074  -0.92997  -0.90615  -0.89141
 Alpha  occ. eigenvalues --   -0.85771  -0.82858  -0.80921  -0.79183  -0.75493
 Alpha  occ. eigenvalues --   -0.71817  -0.70474  -0.68368  -0.68243  -0.67164
 Alpha  occ. eigenvalues --   -0.66954  -0.62804  -0.57472  -0.56972
 Alpha virt. eigenvalues --   -0.32405  -0.30625  -0.18934  -0.17729  -0.16597
 Alpha virt. eigenvalues --   -0.13884  -0.12710  -0.11413  -0.10649  -0.08346
 Alpha virt. eigenvalues --   -0.07310  -0.06501  -0.05463  -0.04908  -0.04112

 Mulliken charges:
               1
     1  C   -0.626166
     2  C    0.576905
     3  C   -0.749359
     4  C    0.147594
     5  C    0.084301
     6  H    0.380059
     7  H    0.325132
     8  H    0.342098
     9  H    0.443542
    10  N   -0.106749
    11  O   -0.069571
    12  O   -0.072559
    13  C   -0.423263
    14  H    0.441523
    15  Br   0.306513
 Sum of Mulliken charges =   1.00000

 Dipole moment (field-independent basis, Debye):
    X=             -7.7072    Y=             -1.3986    Z=             -0.6038  Tot=              7.8563
 Quadrupole moment (field-independent basis, Debye-Ang):
   XX=            -88.2869   YY=            -51.3123   ZZ=            -61.0223
   XY=              2.2926   XZ=              2.8733   YZ=              3.2935

 Normal termination of Gaussian 16 at Wed May  1 14:48:17 2024.
