 Gaussian 16, Revision C.01,
 Gaussian 16:  ES64L-G16RevC.01  3-Jul-2019

 --------------------------------------
 #P wB97XD/6-311+G* NoSymm #P Field=X-9
 --------------------------------------

 -------
 TitleMe
 -------
 Symbolic Z-matrix:
 Charge =  1 Multiplicity = 1

                          Input orientation:
 ---------------------------------------------------------------------
 Center     Atomic      Atomic             Coordinates (Angstroms)
 Number     Number       Type             X           Y           Z
 ---------------------------------------------------------------------
      1          6           0        0.519300    1.233000   -0.031900
      2          6           0        1.944500    1.269200   -0.036700
      3          6           0        2.620400    0.092800   -0.025000
      4          6           0       -0.196000    0.030100    0.001000
      5          1           0       -0.020700    2.174200   -0.043400
      6          1           0        2.482800    2.208900   -0.036100
      7          1           0       -1.277700    0.039900    0.011700
      8          7           0        4.092100    0.095900    0.036600
      9          8           0        4.639300   -1.021700    0.144600
     10          8           0        4.664900    1.198400   -0.023300
     11          6           0        0.494300   -1.167100    0.021000
     12          1           0       -0.032500   -2.114900    0.054500
     13          6           0        1.962900   -1.216500   -0.021100
     14          1           0        2.443600   -1.963100    0.615100
     15         35           0        2.173000   -1.949100   -1.906200
 ---------------------------------------------------------------------

 SCF Done:  E(RwB97XD) =  -3010.53293538     A.U. after   19 cycles

 Alpha  occ. eigenvalues -- -483.30718 -62.85737 -56.65434 -56.64861 -56.64850
 Alpha  occ. eigenvalues --  -19.45609 -19.45600 -14.85047 -10.58801 -10.57593
 Alpha  occ. eigenvalues --  -10.56945 -10.56617 -10.52936 -10.52447  -9.01541
 Alpha  occ. eigenvalues --   -6.84228  -6.82349  -6.82316  -2.94130  -2.93637
 Alpha  occ. eigenvalues --   -2.93609  -2.92106  -2.92105  -1.49300  -1.32253
 Alpha  occ. eigenvalues --   -1.22022  -1.12465  -1.12012  -1.04342  -0.99850
 Alpha  occ. eigenvalues --   -0.94962  -0.90168  -0.84468  -0.80400  -0.79705
 Alpha  occ. eigenvalues --   -0.79533  -0.77528  -0.75625  -0.75168  -0.71577
 Alpha  occ. eigenvalues --   -0.68195  -0.67191  -0.62964  -0.59394  -0.56790
 Alpha  occ. eigenvalues --   -0.56156  -0.55695  -0.55296  -0.54085
 Alpha virt. eigenvalues --   -0.29676  -0.19887  -0.15196  -0.12618  -0.08375
 Alpha virt. eigenvalues --   -0.05910  -0.05350  -0.04335  -0.04024  -0.02953
 Alpha virt. eigenvalues --   -0.02045  -0.01106  -0.00966  -0.00198   0.00962

 Mulliken charges:
               1
     1  C   -0.108566
     2  C    0.182532
     3  C   -0.069806
     4  C   -0.333211
     5  H    0.343068
     6  H    0.351366
     7  H    0.326292
     8  N   -0.240314
     9  O    0.091846
    10  O    0.074133
    11  C   -0.206568
    12  H    0.354417
    13  C   -0.362788
    14  H    0.412352
    15  Br   0.185248
 Sum of Mulliken charges =   1.00000

 Dipole moment (field-independent basis, Debye):
    X=              3.0379    Y=             -0.9189    Z=             -0.7638  Tot=              3.2645
 Quadrupole moment (field-independent basis, Debye-Ang):
   XX=            -66.8540   YY=            -51.1239   ZZ=            -62.1362
   XY=             -3.0334   XZ=             -2.6327   YZ=              2.4890

 Normal termination of Gaussian 16 at Thu May  2 14:17:57 2024.
