 Gaussian 16, Revision C.01,
 Gaussian 16:  ES64L-G16RevC.01  3-Jul-2019

 ---------------------------------------
 #P wB97XD/6-311+G* NoSymm #P Field=Y+38
 ---------------------------------------

 -------
 TitleMe
 -------
 Symbolic Z-matrix:
 Charge =  1 Multiplicity = 1

                          Input orientation:
 ---------------------------------------------------------------------
 Center     Atomic      Atomic             Coordinates (Angstroms)
 Number     Number       Type             X           Y           Z
 ---------------------------------------------------------------------
      1          6           0        0.519300    1.233000   -0.031900
      2          6           0        1.944500    1.269200   -0.036700
      3          6           0        2.620400    0.092800   -0.025000
      4          6           0       -0.196000    0.030100    0.001000
      5          1           0       -0.020700    2.174200   -0.043400
      6          1           0        2.482800    2.208900   -0.036100
      7          1           0       -1.277700    0.039900    0.011700
      8          7           0        4.092100    0.095900    0.036600
      9          8           0        4.639300   -1.021700    0.144600
     10          8           0        4.664900    1.198400   -0.023300
     11          6           0        0.494300   -1.167100    0.021000
     12          1           0       -0.032500   -2.114900    0.054500
     13          6           0        1.962900   -1.216500   -0.021100
     14          1           0        2.443600   -1.963100    0.615100
     15         35           0        2.173000   -1.949100   -1.906200
 ---------------------------------------------------------------------

 SCF Done:  E(RwB97XD) =  -3010.53409219     A.U. after   19 cycles

 Alpha  occ. eigenvalues -- -483.30461 -62.85473 -56.65177 -56.64595 -56.64582
 Alpha  occ. eigenvalues --  -19.46184 -19.46094 -14.85556 -10.59020 -10.57383
 Alpha  occ. eigenvalues --  -10.56899 -10.56798 -10.53342 -10.52486  -9.01271
 Alpha  occ. eigenvalues --   -6.83979  -6.82071  -6.82031  -2.93876  -2.93377
 Alpha  occ. eigenvalues --   -2.93344  -2.91818  -2.91817  -1.49825  -1.32787
 Alpha  occ. eigenvalues --   -1.22110  -1.12578  -1.12090  -1.04299  -0.99987
 Alpha  occ. eigenvalues --   -0.95044  -0.90336  -0.84769  -0.80729  -0.79933
 Alpha  occ. eigenvalues --   -0.79889  -0.77651  -0.76078  -0.75299  -0.71623
 Alpha  occ. eigenvalues --   -0.68246  -0.67345  -0.63030  -0.59390  -0.57290
 Alpha  occ. eigenvalues --   -0.56561  -0.55847  -0.55376  -0.54016
 Alpha virt. eigenvalues --   -0.29724  -0.20247  -0.15086  -0.12821  -0.08958
 Alpha virt. eigenvalues --   -0.06018  -0.05643  -0.04475  -0.04130  -0.03165
 Alpha virt. eigenvalues --   -0.02136  -0.01139  -0.00551  -0.00168   0.00921

 Mulliken charges:
               1
     1  C   -0.107459
     2  C    0.183153
     3  C   -0.082221
     4  C   -0.343494
     5  H    0.329321
     6  H    0.335523
     7  H    0.329643
     8  N   -0.241523
     9  O    0.109497
    10  O    0.047968
    11  C   -0.197860
    12  H    0.370212
    13  C   -0.364821
    14  H    0.420375
    15  Br   0.211685
 Sum of Mulliken charges =   1.00000

 Dipole moment (field-independent basis, Debye):
    X=              2.8385    Y=             -2.0206    Z=             -0.9038  Tot=              3.5995
 Quadrupole moment (field-independent basis, Debye-Ang):
   XX=            -67.7960   YY=            -50.5924   ZZ=            -61.7576
   XY=             -5.2976   XZ=             -2.8956   YZ=              3.0470

 Normal termination of Gaussian 16 at Thu May  2 14:18:34 2024.
