 Gaussian 16, Revision C.01,
 Gaussian 16:  ES64L-G16RevC.01  3-Jul-2019

 ----------------------------------------
 #P wB97XD/6-311+G* NoSymm #P Field=Y+155
 ----------------------------------------

 -------
 TitleMe
 -------
 Symbolic Z-matrix:
 Charge =  1 Multiplicity = 1

                          Input orientation:
 ---------------------------------------------------------------------
 Center     Atomic      Atomic             Coordinates (Angstroms)
 Number     Number       Type             X           Y           Z
 ---------------------------------------------------------------------
      1          6           0        0.519300    1.233000   -0.031900
      2          6           0        1.944500    1.269200   -0.036700
      3          6           0        2.620400    0.092800   -0.025000
      4          6           0       -0.196000    0.030100    0.001000
      5          1           0       -0.020700    2.174200   -0.043400
      6          1           0        2.482800    2.208900   -0.036100
      7          1           0       -1.277700    0.039900    0.011700
      8          7           0        4.092100    0.095900    0.036600
      9          8           0        4.639300   -1.021700    0.144600
     10          8           0        4.664900    1.198400   -0.023300
     11          6           0        0.494300   -1.167100    0.021000
     12          1           0       -0.032500   -2.114900    0.054500
     13          6           0        1.962900   -1.216500   -0.021100
     14          1           0        2.443600   -1.963100    0.615100
     15         35           0        2.173000   -1.949100   -1.906200
 ---------------------------------------------------------------------

 SCF Done:  E(RwB97XD) =  -3010.55131555     A.U. after   20 cycles

 Alpha  occ. eigenvalues -- -483.28873 -62.83856 -56.63584 -56.62973 -56.62953
 Alpha  occ. eigenvalues --  -19.46299 -19.45989 -14.85466 -10.58742 -10.56687
 Alpha  occ. eigenvalues --  -10.55996 -10.55834 -10.53587 -10.52120  -8.99632
 Alpha  occ. eigenvalues --   -6.82402  -6.80404  -6.80342  -2.92284  -2.91767
 Alpha  occ. eigenvalues --   -2.91718  -2.90119  -2.90118  -1.49784  -1.32756
 Alpha  occ. eigenvalues --   -1.21563  -1.12201  -1.11341  -1.03346  -0.99341
 Alpha  occ. eigenvalues --   -0.94490  -0.89974  -0.84632  -0.80522  -0.79840
 Alpha  occ. eigenvalues --   -0.79477  -0.77282  -0.75937  -0.74732  -0.70982
 Alpha  occ. eigenvalues --   -0.67688  -0.66864  -0.62408  -0.58617  -0.57279
 Alpha  occ. eigenvalues --   -0.56441  -0.55744  -0.53328  -0.52525
 Alpha virt. eigenvalues --   -0.29018  -0.20151  -0.14391  -0.13795  -0.12342
 Alpha virt. eigenvalues --   -0.10034  -0.06709  -0.06399  -0.05034  -0.03312
 Alpha virt. eigenvalues --   -0.02155  -0.01461  -0.00673  -0.00108   0.00601

 Mulliken charges:
               1
     1  C   -0.103023
     2  C    0.201629
     3  C   -0.112545
     4  C   -0.376911
     5  H    0.277343
     6  H    0.287638
     7  H    0.327208
     8  N   -0.245920
     9  O    0.175283
    10  O   -0.018464
    11  C   -0.177691
    12  H    0.410035
    13  C   -0.394093
    14  H    0.447802
    15  Br   0.301709
 Sum of Mulliken charges =   1.00000

 Dipole moment (field-independent basis, Debye):
    X=              3.0153    Y=             -5.4679    Z=             -1.3888  Tot=              6.3968
 Quadrupole moment (field-independent basis, Debye-Ang):
   XX=            -67.6229   YY=            -49.1496   ZZ=            -60.5403
   XY=            -12.5049   XZ=             -3.9565   YZ=              4.8754

 Normal termination of Gaussian 16 at Thu May  2 14:19:20 2024.
