 Gaussian 16, Revision A.03,
 Gaussian 16:  ES64L-G16RevA.03 25-Dec-2016

 --------------------------------------------------------------------
 #p B3LYP/6-311+G** #p TD=(singlets,nstates=30)IOp(6/8=3) IOp(9/40=4)
 --------------------------------------------------------------------

 -------------------------------
 Scan Step 79, Bond Length 0.895
 -------------------------------
 Symbolic Z-matrix:
 Charge =  0 Multiplicity = 1

                         Standard orientation:
 ---------------------------------------------------------------------
 Center     Atomic      Atomic             Coordinates (Angstroms)
 Number     Number       Type             X           Y           Z
 ---------------------------------------------------------------------
      1          6           0        0.000000    0.000000   -0.373581
      2          1           0        0.000000    0.937260   -0.964931
      3          1           0       -0.000000   -0.937260   -0.964931
      4          8           0        0.000000   -0.000000    0.521419
 ---------------------------------------------------------------------

 SCF Done:  E(RB3LYP) =  -114.228905573     A.U. after    9 cycles

 Excitation energies and oscillator strengths:

 Excited State   1:      Singlet-A2     5.5064 eV  225.16 nm  f=0.0000  <S**2>=0.000
       3 -> 27         0.00286
       3 -> 36         0.00224
       3 -> 46         0.00123
       4 -> 10         0.00849
       4 -> 13         0.00905
       4 -> 17         0.00607
       4 -> 22        -0.00352
       4 -> 28         0.00306
       4 -> 32         0.00191
       4 -> 37         0.00354
       4 -> 43         0.00053
       4 -> 52         0.00071
       5 -> 27         0.00349
       5 -> 36        -0.00071
       5 -> 46        -0.00069
       6 -> 12        -0.00056
       6 -> 16        -0.00104
       6 -> 18        -0.00051
       6 -> 23         0.00174
       6 -> 24         0.00051
       6 -> 29        -0.00040
       6 -> 33         0.00026
       6 -> 35         0.00054
       6 -> 40        -0.00010
       6 -> 42         0.00050
       6 -> 47         0.00065
       6 -> 50        -0.00018
       6 -> 53         0.00028
       7 -> 27         0.00099
       7 -> 36        -0.00028
       7 -> 46         0.00118
       8 -> 10         0.69567
       8 -> 13         0.12260
       8 -> 17         0.03006
       8 -> 22        -0.00779
       8 -> 28         0.00519
       8 -> 32         0.00343
       8 -> 37        -0.00232
       8 -> 43        -0.00020
       8 -> 52         0.00093
       3 <- 27         0.00211
       3 <- 36         0.00192
       3 <- 46         0.00127
       4 <- 10         0.00026
       4 <- 13         0.00115
       4 <- 22         0.00024
       4 <- 32        -0.00108
       4 <- 37         0.00161
       4 <- 43         0.00044
       4 <- 49         0.00010
       4 <- 52         0.00018
       5 <- 27         0.00397
       5 <- 36        -0.00046
       5 <- 46        -0.00067
       6 <- 12        -0.00093
       6 <- 16         0.00193
       6 <- 18        -0.00313
       6 <- 23         0.00460
       6 <- 24        -0.00161
       6 <- 29         0.00170
       6 <- 33        -0.00090
       6 <- 35         0.00196
       6 <- 40        -0.00016
       6 <- 42         0.00088
       6 <- 47         0.00050
       6 <- 53         0.00074
       7 <- 27         0.00111
       7 <- 36        -0.00034
       7 <- 46         0.00094
       8 <- 10        -0.00877
       8 <- 13        -0.00850
       8 <- 17        -0.00421
       8 <- 22         0.00048
       8 <- 28        -0.00040
       8 <- 32         0.00278
       8 <- 37        -0.00227
       8 <- 52         0.00029
 This state for optimization and/or second-order correction.
 Total Energy, E(TD-HF/TD-DFT) =  -114.026548014
 Copying the excited state density for this state as the 1-particle RhoCI density.

 Excited State   2:      Singlet-B2     5.9256 eV  209.24 nm  f=0.0852  <S**2>=0.000
       3 -> 12         0.00091
       3 -> 16         0.00019
       3 -> 18         0.00104
       3 -> 24         0.00115
       3 -> 29        -0.00019
       3 -> 35        -0.00011
       3 -> 42         0.00014
       3 -> 50        -0.00015
       4 ->  9         0.00140
       4 -> 11        -0.00686
       4 -> 14         0.00539
       4 -> 15         0.00159
       4 -> 19         0.00373
       4 -> 20         0.00115
       4 -> 21         0.00295
       4 -> 25         0.00118
       4 -> 26        -0.00122
       4 -> 30        -0.00225
       4 -> 31         0.00017
       4 -> 34         0.00030
       4 -> 38        -0.00078
       4 -> 39         0.00015
       4 -> 41         0.00039
       4 -> 44         0.00043
       4 -> 45        -0.00057
       4 -> 48         0.00037
       5 -> 12        -0.00620
       5 -> 16         0.00110
       5 -> 18         0.00146
       5 -> 23        -0.00256
       5 -> 24         0.00407
       5 -> 29        -0.00054
       5 -> 33        -0.00101
       5 -> 35         0.00089
       5 -> 40        -0.00017
       5 -> 42         0.00045
       6 -> 27         0.00100
       6 -> 36         0.00021
       6 -> 46         0.00086
       7 -> 12         0.00234
       7 -> 16         0.00284
       7 -> 18         0.00385
       7 -> 23        -0.00223
       7 -> 24         0.00240
       7 -> 35        -0.00018
       7 -> 42        -0.00038
       7 -> 47         0.00039
       7 -> 50         0.00050
       8 ->  9         0.70624
       8 -> 11        -0.01629
       8 -> 14        -0.01853
       8 -> 15         0.01150
       8 -> 19         0.02014
       8 -> 20        -0.00810
       8 -> 21        -0.00769
       8 -> 25         0.00071
       8 -> 26        -0.00059
       8 -> 31         0.00278
       8 -> 34         0.00157
       8 -> 38         0.00083
       8 -> 39        -0.00055
       8 -> 41        -0.00036
       8 -> 44        -0.00039
       8 -> 45        -0.00106
       8 -> 48         0.00033
       8 -> 54        -0.00015
       3 <- 12         0.00030
       3 <- 18         0.00061
       3 <- 23        -0.00010
       3 <- 24         0.00083
       3 <- 29        -0.00017
       3 <- 35        -0.00011
       3 <- 42         0.00011
       4 <-  9         0.00210
       4 <- 14         0.00423
       4 <- 15         0.00170
       4 <- 19         0.00094
       4 <- 20         0.00036
       4 <- 21         0.00180
       4 <- 25         0.00166
       4 <- 26        -0.00126
       4 <- 30        -0.00083
       4 <- 31        -0.00025
       4 <- 38        -0.00052
       4 <- 39         0.00016
       4 <- 41         0.00041
       4 <- 44         0.00029
       4 <- 45        -0.00051
       4 <- 48         0.00032
       5 <- 16         0.00090
       5 <- 18         0.00248
       5 <- 23        -0.00153
       5 <- 24         0.00310
       5 <- 29        -0.00044
       5 <- 33        -0.00075
       5 <- 35         0.00067
       5 <- 40        -0.00021
       5 <- 42         0.00019
       6 <- 27         0.00077
       6 <- 36         0.00016
       6 <- 46         0.00073
       7 <- 12         0.00064
       7 <- 16         0.00188
       7 <- 18         0.00139
       7 <- 23        -0.00090
       7 <- 24         0.00110
       7 <- 29         0.00069
       7 <- 42        -0.00033
       7 <- 47         0.00036
       7 <- 50         0.00055
       8 <-  9        -0.00433
       8 <- 11        -0.00202
       8 <- 14        -0.01274
       8 <- 15        -0.00194
       8 <- 19        -0.00104
       8 <- 20         0.00027
       8 <- 21        -0.00416
       8 <- 25        -0.00311
       8 <- 26        -0.00064
       8 <- 30         0.00051
       8 <- 31         0.00143
       8 <- 34         0.00156
       8 <- 38         0.00083
       8 <- 39        -0.00045
       8 <- 41        -0.00022
       8 <- 44        -0.00038
       8 <- 45        -0.00076
       8 <- 48         0.00030

 Excited State   3:      Singlet-B2     6.7159 eV  184.61 nm  f=0.0221  <S**2>=0.000
       3 -> 12        -0.00012
       3 -> 16         0.00067
       3 -> 23         0.00018
       3 -> 24         0.00043
       3 -> 29         0.00098
       3 -> 33         0.00014
       3 -> 35        -0.00029
       3 -> 42        -0.00031
       3 -> 47         0.00020
       3 -> 50         0.00022
       4 ->  9        -0.00518
       4 -> 14         0.00307
       4 -> 15         0.00472
       4 -> 19        -0.00333
       4 -> 20         0.00080
       4 -> 21         0.00136
       4 -> 25         0.00098
       4 -> 26         0.00124
       4 -> 30        -0.00074
       4 -> 31        -0.00214
       4 -> 34        -0.00049
       4 -> 39        -0.00076
       4 -> 41        -0.00071
       4 -> 44         0.00011
       4 -> 45         0.00061
       4 -> 48        -0.00044
       4 -> 51        -0.00022
       5 -> 12         0.00277
       5 -> 16         0.00422
       5 -> 18         0.00182
       5 -> 23        -0.00143
       5 -> 24         0.00368
       5 -> 29        -0.00119
       5 -> 33         0.00056
       5 -> 35        -0.00015
       5 -> 40        -0.00025
       5 -> 47         0.00014
       5 -> 50         0.00012
       6 -> 27        -0.00085
       6 -> 36        -0.00133
       6 -> 46        -0.00108
       7 -> 12        -0.00294
       7 -> 18        -0.00242
       7 -> 23         0.00132
       7 -> 24        -0.00034
       7 -> 33        -0.00026
       7 -> 35         0.00122
       7 -> 40        -0.00031
       7 -> 42         0.00067
       7 -> 47        -0.00066
       7 -> 50        -0.00059
       7 -> 53         0.00016
       8 ->  9         0.01669
       8 -> 11         0.70589
       8 -> 14        -0.01730
       8 -> 15        -0.02325
       8 -> 19        -0.01763
       8 -> 20        -0.01493
       8 -> 21        -0.00287
       8 -> 25         0.00036
       8 -> 26        -0.00025
       8 -> 30         0.00175
       8 -> 31         0.00040
       8 -> 34         0.00039
       8 -> 38        -0.00014
       8 -> 39        -0.00069
       8 -> 41        -0.00129
       8 -> 44         0.00012
       8 -> 45         0.00070
       8 -> 48        -0.00064
       8 -> 51        -0.00014
       8 -> 54         0.00017
       3 <- 12         0.00023
       3 <- 16         0.00060
       3 <- 18         0.00027
       3 <- 24         0.00049
       3 <- 29         0.00065
       3 <- 33         0.00017
       3 <- 35        -0.00032
       3 <- 42        -0.00026
       3 <- 47         0.00015
       3 <- 50         0.00012
       3 <- 53        -0.00021
       4 <-  9         0.00136
       4 <- 11        -0.00029
       4 <- 14         0.00183
       4 <- 15         0.00056
       4 <- 19         0.00064
       4 <- 20        -0.00027
       4 <- 21         0.00102
       4 <- 25         0.00093
       4 <- 26         0.00094
       4 <- 30        -0.00085
       4 <- 31        -0.00078
       4 <- 34        -0.00102
       4 <- 39        -0.00054
       4 <- 41        -0.00072
       4 <- 44         0.00011
       4 <- 45         0.00063
       4 <- 48        -0.00030
       4 <- 51        -0.00021
       5 <- 12         0.00027
       5 <- 16         0.00069
       5 <- 18         0.00115
       5 <- 23        -0.00127
       5 <- 24         0.00178
       5 <- 29        -0.00051
       5 <- 33         0.00057
       5 <- 35         0.00017
       5 <- 40        -0.00025
       5 <- 50         0.00020
       6 <- 27        -0.00039
       6 <- 36        -0.00110
       6 <- 46        -0.00093
       7 <- 12        -0.00036
       7 <- 16        -0.00035
       7 <- 18        -0.00023
       7 <- 23         0.00025
       7 <- 29        -0.00034
       7 <- 35         0.00085
       7 <- 40        -0.00025
       7 <- 42         0.00047
       7 <- 47        -0.00058
       7 <- 50        -0.00055
       8 <-  9        -0.00190
       8 <- 11         0.00128
       8 <- 14        -0.00652
       8 <- 15        -0.00148
       8 <- 19         0.00199
       8 <- 20         0.00198
       8 <- 21        -0.00267
       8 <- 25        -0.00040
       8 <- 26         0.00086
       8 <- 30         0.00116
       8 <- 31         0.00112
       8 <- 38        -0.00031
       8 <- 39        -0.00045
       8 <- 41        -0.00109
       8 <- 45         0.00060
       8 <- 48        -0.00041
       8 <- 51        -0.00015

 Excited State   4:      Singlet-A1     6.8532 eV  180.91 nm  f=0.0425  <S**2>=0.000
       3 ->  9         0.00133
       3 -> 11        -0.00083
       3 -> 14         0.00012
       3 -> 15         0.00057
       3 -> 19         0.00131
       3 -> 20        -0.00037
       3 -> 21        -0.00027
       3 -> 25         0.00023
       3 -> 30        -0.00106
       3 -> 31        -0.00024
       3 -> 34        -0.00021
       3 -> 38        -0.00035
       3 -> 39        -0.00025
       3 -> 41        -0.00013
       3 -> 48        -0.00015
       3 -> 51        -0.00029
       3 -> 54         0.00020
       4 -> 12         0.00753
       4 -> 16         0.00771
       4 -> 18         0.00746
       4 -> 23         0.00067
       4 -> 24         0.00418
       4 -> 29         0.00063
       4 -> 33        -0.00016
       4 -> 35         0.00094
       4 -> 42        -0.00023
       4 -> 50        -0.00036
       4 -> 53        -0.00014
       5 ->  9         0.00560
       5 -> 11         0.01043
       5 -> 14         0.00626
       5 -> 15         0.00192
       5 -> 19         0.00104
       5 -> 20        -0.00666
       5 -> 21         0.00213
       5 -> 25         0.00686
       5 -> 26        -0.00085
       5 -> 30         0.00079
       5 -> 31        -0.00069
       5 -> 34        -0.00102
       5 -> 38        -0.00027
       5 -> 39         0.00084
       5 -> 41         0.00015
       5 -> 45        -0.00033
       5 -> 48        -0.00028
       6 -> 10         0.00765
       6 -> 13        -0.00351
       6 -> 17         0.00516
       6 -> 22         0.00413
       6 -> 28         0.00067
       6 -> 32         0.00089
       6 -> 37         0.00053
       6 -> 43         0.00050
       6 -> 49        -0.00037
       7 ->  9         0.01313
       7 -> 11        -0.00521
       7 -> 14         0.00290
       7 -> 15        -0.00112
       7 -> 19         0.00779
       7 -> 20        -0.00303
       7 -> 21         0.00103
       7 -> 25         0.00199
       7 -> 30        -0.00019
       7 -> 31         0.00063
       7 -> 34        -0.00094
       7 -> 39         0.00023
       7 -> 48        -0.00021
       7 -> 51         0.00045
       8 -> 12         0.70547
       8 -> 16         0.04197
       8 -> 18         0.00035
       8 -> 23         0.00361
       8 -> 24         0.00152
       8 -> 29         0.00325
       8 -> 33         0.00154
       8 -> 35        -0.00253
       8 -> 40         0.00011
       8 -> 42         0.00140
       8 -> 47        -0.00045
       8 -> 50        -0.00010
       8 -> 53        -0.00012
       3 <-  9         0.00057
       3 <- 11        -0.00031
       3 <- 15         0.00028
       3 <- 19         0.00072
       3 <- 20        -0.00015
       3 <- 25         0.00030
       3 <- 30        -0.00063
       3 <- 31        -0.00020
       3 <- 34        -0.00016
       3 <- 38        -0.00026
       3 <- 39        -0.00021
       3 <- 41        -0.00014
       3 <- 48        -0.00017
       3 <- 51        -0.00025
       3 <- 54         0.00018
       4 <- 12         0.00264
       4 <- 16         0.00220
       4 <- 18         0.00359
       4 <- 23         0.00074
       4 <- 24         0.00226
       4 <- 29         0.00021
       4 <- 33        -0.00029
       4 <- 35         0.00082
       4 <- 42        -0.00020
       4 <- 50        -0.00029
       4 <- 53        -0.00012
       5 <-  9         0.00577
       5 <- 11         0.00371
       5 <- 14         0.00468
       5 <- 15         0.00189
       5 <- 19         0.00078
       5 <- 20        -0.00376
       5 <- 21         0.00067
       5 <- 25         0.00417
       5 <- 26        -0.00038
       5 <- 30         0.00013
       5 <- 31        -0.00092
       5 <- 34        -0.00088
       5 <- 38        -0.00037
       5 <- 39         0.00071
       5 <- 44         0.00015
       5 <- 45        -0.00030
       5 <- 48        -0.00023
       6 <- 10         0.00269
       6 <- 13        -0.00140
       6 <- 17         0.00235
       6 <- 22         0.00246
       6 <- 28         0.00041
       6 <- 32         0.00068
       6 <- 37         0.00044
       6 <- 43         0.00042
       6 <- 49        -0.00032
       7 <-  9         0.00450
       7 <- 11        -0.00123
       7 <- 14         0.00139
       7 <- 15        -0.00039
       7 <- 19         0.00334
       7 <- 20        -0.00176
       7 <- 21         0.00034
       7 <- 25         0.00119
       7 <- 26        -0.00019
       7 <- 30        -0.00028
       7 <- 31         0.00037
       7 <- 34        -0.00066
       7 <- 38        -0.00013
       7 <- 39         0.00030
       7 <- 41         0.00010
       7 <- 45        -0.00010
       7 <- 51         0.00041
       8 <- 12        -0.00361
       8 <- 16         0.00594
       8 <- 18        -0.01036
       8 <- 23        -0.00075
       8 <- 24        -0.00208
       8 <- 29         0.00162
       8 <- 33         0.00116
       8 <- 35        -0.00178
       8 <- 42         0.00114
       8 <- 47        -0.00051
       8 <- 53        -0.00014

 Excited State   5:      Singlet-A2     7.6104 eV  162.91 nm  f=0.0000  <S**2>=0.000
       3 -> 27         0.00171
       3 -> 36         0.00141
       3 -> 46         0.00070
       4 -> 10         0.00849
       4 -> 13         0.00770
       4 -> 17        -0.00241
       4 -> 22        -0.00124
       4 -> 28         0.00029
       4 -> 32         0.00222
       4 -> 37         0.00246
       4 -> 43         0.00032
       4 -> 49        -0.00010
       4 -> 52         0.00040
       5 -> 27         0.00090
       5 -> 36        -0.00074
       5 -> 46        -0.00024
       6 -> 12         0.00022
       6 -> 16        -0.00203
       6 -> 18        -0.00048
       6 -> 23         0.00129
       6 -> 24         0.00020
       6 -> 29        -0.00037
       6 -> 35         0.00037
       6 -> 42         0.00036
       6 -> 47         0.00035
       6 -> 53         0.00017
       7 -> 27         0.00021
       7 -> 36        -0.00023
       7 -> 46         0.00074
       8 -> 10        -0.12321
       8 -> 13         0.69581
       8 -> 17         0.00512
       8 -> 22        -0.02311
       8 -> 28         0.00187
       8 -> 32         0.00159
       8 -> 37        -0.00106
       8 -> 43        -0.00016
       8 -> 49        -0.00016
       8 -> 52         0.00045
       3 <- 27         0.00102
       3 <- 36         0.00114
       3 <- 46         0.00080
       4 <- 10         0.00031
       4 <- 13         0.00026
       4 <- 17        -0.00052
       4 <- 22         0.00011
       4 <- 32        -0.00028
       4 <- 37         0.00079
       4 <- 43         0.00022
       4 <- 52         0.00013
       5 <- 27         0.00147
       5 <- 46        -0.00028
       6 <- 12         0.00045
       6 <- 16        -0.00046
       6 <- 18        -0.00075
       6 <- 23         0.00254
       6 <- 24        -0.00046
       6 <- 33        -0.00072
       6 <- 35         0.00132
       6 <- 42         0.00072
       6 <- 47         0.00015
       6 <- 53         0.00038
       7 <- 27         0.00046
       7 <- 36        -0.00027
       7 <- 46         0.00038
       8 <- 10        -0.00673
       8 <- 13        -0.00114
       8 <- 17        -0.00091
       8 <- 22         0.00054
       8 <- 28        -0.00025
       8 <- 32         0.00110
       8 <- 37        -0.00099
       8 <- 52         0.00018

 Excited State   6:      Singlet-B2     9.9319 eV  124.83 nm  f=0.2715  <S**2>=0.000
       3 -> 12        -0.00041
       3 -> 16         0.00149
       3 -> 18        -0.00079
       3 -> 23         0.00119

 The electronic state is 1-A1.
 Alpha  occ. eigenvalues --  -19.13824 -10.23654  -1.26769  -0.60819  -0.59643
 Alpha  occ. eigenvalues --   -0.55883  -0.51941  -0.24252
 Alpha virt. eigenvalues --    0.01396   0.01452   0.04391   0.04420   0.08939
 Alpha virt. eigenvalues --    0.14190   0.17764   0.20394   0.21881   0.23205
 Alpha virt. eigenvalues --    0.26145   0.36338   0.50103   0.52637   0.53491

 Mulliken charges:
               1
     1  C    0.209279
     2  H    0.003349
     3  H    0.003349
     4  O   -0.215978
 Sum of Mulliken charges =   0.00000

 Dipole moment (field-independent basis, Debye):
    X=              0.0000    Y=             -0.0000    Z=             -0.5703  Tot=              0.5703
 Quadrupole moment (field-independent basis, Debye-Ang):
   XX=            -10.8020   YY=            -12.3307   ZZ=            -13.2029
   XY=             -0.0000   XZ=             -0.0000   YZ=              0.0000

 Normal termination of Gaussian 16 at Fri Sep 17 10:52:31 2021.
