 Gaussian 16, Revision C.01,
 Gaussian 16:  ES64L-G16RevC.01  3-Jul-2019

 --------------------------------------
 #P wB97XD/6-311+G* NoSymm #P Field=X+9
 --------------------------------------

 -------
 TitleMe
 -------
 Symbolic Z-matrix:
 Charge =  1 Multiplicity = 1

                          Input orientation:
 ---------------------------------------------------------------------
 Center     Atomic      Atomic             Coordinates (Angstroms)
 Number     Number       Type             X           Y           Z
 ---------------------------------------------------------------------
      1          6           0        0.029500    1.339700    0.068200
      2          6           0        1.434800    1.286700    0.006400
      3          6           0        2.111800    0.051100   -0.005400
      4          6           0        1.445100   -1.137200    0.031200
      5          6           0       -0.687900    0.168200    0.110000
      6          1           0       -0.471300    2.298400    0.078100
      7          1           0        2.027300    2.196500   -0.032200
      8          1           0        1.989700   -2.076400    0.023200
      9          1           0       -1.771600    0.180400    0.158200
     10          7           0        3.586400    0.051000   -0.067500
     11          8           0        4.147100   -1.059700   -0.088100
     12          8           0        4.145000    1.163900   -0.090100
     13          6           0       -0.023600   -1.145800    0.083500
     14          1           0       -0.436700   -1.872500    0.788900
     15         35           0       -0.535900   -1.869700   -1.740800
 ---------------------------------------------------------------------

 SCF Done:  E(RwB97XD) =  -3010.53568409     A.U. after   17 cycles

 Alpha  occ. eigenvalues -- -483.31135 -62.86160 -56.65851 -56.65281 -56.65278
 Alpha  occ. eigenvalues --  -19.46125 -19.46052 -14.85616 -10.58167 -10.57445
 Alpha  occ. eigenvalues --  -10.57185 -10.56956 -10.56613 -10.52809  -9.01966
 Alpha  occ. eigenvalues --   -6.84640  -6.82773  -6.82758  -2.94545  -2.94050
 Alpha  occ. eigenvalues --   -2.94036  -2.92543  -2.92543  -1.49888  -1.32869
 Alpha  occ. eigenvalues --   -1.22564  -1.14007  -1.11661  -1.04304  -1.01060
 Alpha  occ. eigenvalues --   -0.95362  -0.90896  -0.85313  -0.80813  -0.80626
 Alpha  occ. eigenvalues --   -0.80176  -0.78200  -0.76296  -0.75820  -0.72198
 Alpha  occ. eigenvalues --   -0.69220  -0.67449  -0.63594  -0.60032  -0.57374
 Alpha  occ. eigenvalues --   -0.56472  -0.56260  -0.55859  -0.55125
 Alpha virt. eigenvalues --   -0.29513  -0.21422  -0.15521  -0.13357  -0.08527
 Alpha virt. eigenvalues --   -0.05963  -0.05482  -0.04748  -0.04506  -0.03108
 Alpha virt. eigenvalues --   -0.02412  -0.02227  -0.01241  -0.00861   0.00522

 Mulliken charges:
               1
     1  C   -0.579778
     2  C    0.520651
     3  C   -0.719387
     4  C    0.283044
     5  C    0.006709
     6  H    0.335778
     7  H    0.364667
     8  H    0.372408
     9  H    0.354826
    10  N   -0.106635
    11  O    0.027025
    12  O    0.023847
    13  C   -0.468597
    14  H    0.405437
    15  Br   0.180004
 Sum of Mulliken charges =   1.00000

 Dipole moment (field-independent basis, Debye):
    X=             -1.0973    Y=             -0.6170    Z=             -0.0419  Tot=              1.2596
 Quadrupole moment (field-independent basis, Debye-Ang):
   XX=            -71.8768   YY=            -51.9612   ZZ=            -62.5538
   XY=              1.3427   XZ=              1.1799   YZ=              1.7237

 Normal termination of Gaussian 16 at Wed May  1 14:44:50 2024.
