 Gaussian 16, Revision C.01,
 Gaussian 16:  ES64L-G16RevC.01  3-Jul-2019

 ----------------------------------------
 #P wB97XD/6-311+G* NoSymm #P Field=Z-262
 ----------------------------------------

 -------
 TitleMe
 -------
 Symbolic Z-matrix:
 Charge =  1 Multiplicity = 1

                          Input orientation:
 ---------------------------------------------------------------------
 Center     Atomic      Atomic             Coordinates (Angstroms)
 Number     Number       Type             X           Y           Z
 ---------------------------------------------------------------------
      1          6           0        0.519300    1.233000   -0.031900
      2          6           0        1.944500    1.269200   -0.036700
      3          6           0        2.620400    0.092800   -0.025000
      4          6           0       -0.196000    0.030100    0.001000
      5          1           0       -0.020700    2.174200   -0.043400
      6          1           0        2.482800    2.208900   -0.036100
      7          1           0       -1.277700    0.039900    0.011700
      8          7           0        4.092100    0.095900    0.036600
      9          8           0        4.639300   -1.021700    0.144600
     10          8           0        4.664900    1.198400   -0.023300
     11          6           0        0.494300   -1.167100    0.021000
     12          1           0       -0.032500   -2.114900    0.054500
     13          6           0        1.962900   -1.216500   -0.021100
     14          1           0        2.443600   -1.963100    0.615100
     15         35           0        2.173000   -1.949100   -1.906200
 ---------------------------------------------------------------------

 SCF Done:  E(RwB97XD) =  -3010.54842382     A.U. after   22 cycles

 Alpha  occ. eigenvalues -- -483.35885 -62.90959 -56.70576 -56.70112 -56.70108
 Alpha  occ. eigenvalues --  -19.47045 -19.46965 -14.86486 -10.60832 -10.60724
 Alpha  occ. eigenvalues --  -10.58980 -10.58899 -10.54981 -10.54265  -9.06800
 Alpha  occ. eigenvalues --   -6.89271  -6.87720  -6.87713  -2.99224  -2.98806
 Alpha  occ. eigenvalues --   -2.98800  -2.97557  -2.97557  -1.50686  -1.33627
 Alpha  occ. eigenvalues --   -1.24389  -1.15537  -1.14055  -1.08065  -1.02064
 Alpha  occ. eigenvalues --   -0.97123  -0.92149  -0.86099  -0.82212  -0.81529
 Alpha  occ. eigenvalues --   -0.81116  -0.79379  -0.77359  -0.76977  -0.74566
 Alpha  occ. eigenvalues --   -0.70225  -0.69216  -0.65895  -0.63433  -0.61640
 Alpha  occ. eigenvalues --   -0.58592  -0.58052  -0.56787  -0.56515
 Alpha virt. eigenvalues --   -0.32467  -0.22845  -0.21424  -0.18729  -0.16124
 Alpha virt. eigenvalues --   -0.14832  -0.13963  -0.11068  -0.09555  -0.08891
 Alpha virt. eigenvalues --   -0.06279  -0.06045  -0.03940  -0.03331  -0.02555

 Mulliken charges:
               1
     1  C   -0.043566
     2  C    0.068049
     3  C   -0.102607
     4  C   -0.373278
     5  H    0.355063
     6  H    0.360464
     7  H    0.344016
     8  N   -0.193091
     9  O    0.093980
    10  O    0.078409
    11  C   -0.122822
    12  H    0.369215
    13  C   -0.248903
    14  H    0.495289
    15  Br  -0.080217
 Sum of Mulliken charges =   1.00000

 Dipole moment (field-independent basis, Debye):
    X=              2.4449    Y=              0.1102    Z=              3.9752  Tot=              4.6682
 Quadrupole moment (field-independent basis, Debye-Ang):
   XX=            -67.7589   YY=            -52.8449   ZZ=            -68.9019
   XY=             -0.9659   XZ=              7.1647   YZ=             -2.1723

 Normal termination of Gaussian 16 at Thu May  2 14:21:53 2024.
