 Gaussian 16, Revision A.03,
 Gaussian 16:  ES64L-G16RevA.03 25-Dec-2016

 --------------------------------------------------------------------
 #p B3LYP/6-311+G** #p TD=(singlets,nstates=30)IOp(6/8=3) IOp(9/40=4)
 --------------------------------------------------------------------

 ------------------------------
 Scan Step 200, Bond Length 1.5
 ------------------------------
 Symbolic Z-matrix:
 Charge =  0 Multiplicity = 1

                         Standard orientation:
 ---------------------------------------------------------------------
 Center     Atomic      Atomic             Coordinates (Angstroms)
 Number     Number       Type             X           Y           Z
 ---------------------------------------------------------------------
      1          6           0        0.000000   -0.000000   -0.676081
      2          1           0        0.000000    0.937260   -1.267431
      3          1           0       -0.000000   -0.937260   -1.267431
      4          8           0        0.000000    0.000000    0.823919
 ---------------------------------------------------------------------

 SCF Done:  E(RB3LYP) =  -114.465322677     A.U. after   10 cycles

 Excitation energies and oscillator strengths:

 Excited State   1:      Singlet-A2     2.3891 eV  518.95 nm  f=0.0000  <S**2>=0.000
       3 -> 27         0.00147
       3 -> 38         0.00114
       3 -> 46         0.00318
       4 -> 27         0.00091
       4 -> 38        -0.00021
       4 -> 46        -0.00138
       5 ->  9         0.01101
       5 -> 13         0.00055
       5 -> 18         0.00356
       5 -> 23         0.00154
       5 -> 28         0.00316
       5 -> 31        -0.00040
       5 -> 37         0.00181
       5 -> 44         0.00040
       5 -> 52         0.00044
       6 -> 27        -0.00059
       6 -> 38        -0.00084
       6 -> 46         0.00151
       7 -> 12        -0.00078
       7 -> 15         0.00438
       7 -> 19        -0.00376
       7 -> 22        -0.00051
       7 -> 25         0.00112
       7 -> 30        -0.00137
       7 -> 33         0.00041
       7 -> 49         0.00014
       7 -> 50         0.00021
       7 -> 53         0.00046
       8 ->  9         0.70777
       8 -> 13        -0.01760
       8 -> 18         0.02192
       8 -> 23        -0.00497
       8 -> 28         0.01104
       8 -> 31         0.00047
       8 -> 37         0.00065
       8 -> 48        -0.00030
       8 -> 52         0.00193
       3 <- 27         0.00077
       3 <- 38         0.00085
       3 <- 46         0.00324
       4 <- 27         0.00152
       4 <- 38         0.00022
       4 <- 46        -0.00112
       5 <-  9        -0.00044
       5 <- 13        -0.00061
       5 <- 18        -0.00082
       5 <- 23         0.00034
       5 <- 28        -0.00057
       5 <- 31         0.00044
       5 <- 37         0.00098
       5 <- 44         0.00013
       5 <- 52         0.00012
       6 <- 38        -0.00070
       6 <- 46         0.00117
       7 <- 12         0.00017
       7 <- 15        -0.00956
       7 <- 19         0.00288
       7 <- 22         0.00724
       7 <- 25         0.00044
       7 <- 30         0.00497
       7 <- 33        -0.00070
       7 <- 35         0.00124
       7 <- 40         0.00065
       7 <- 42         0.00011
       7 <- 49        -0.00030
       7 <- 50         0.00013
       7 <- 53         0.00144
       8 <-  9        -0.04299
       8 <- 13         0.00096
       8 <- 18        -0.00602
       8 <- 23         0.00039
       8 <- 28        -0.00209
       8 <- 31        -0.00056
       8 <- 37        -0.00064
       8 <- 52         0.00052
 This state for optimization and/or second-order correction.
 Total Energy, E(TD-HF/TD-DFT) =  -114.377523290
 Copying the excited state density for this state as the 1-particle RhoCI density.

 Excited State   2:      Singlet-A1     6.0273 eV  205.71 nm  f=0.1033  <S**2>=0.000
       3 -> 10         0.00958
       3 -> 11        -0.01673
       3 -> 14        -0.01210
       3 -> 16         0.01691
       3 -> 17        -0.00392
       3 -> 20        -0.00303
       3 -> 21        -0.00274
       3 -> 24         0.00390
       3 -> 26         0.00572
       3 -> 29        -0.00054
       3 -> 32         0.00281
       3 -> 34         0.00346
       3 -> 36         0.00014
       3 -> 39         0.00106
       3 -> 43         0.00045
       3 -> 45         0.00098
       3 -> 47         0.00193
       3 -> 51         0.00070
       3 -> 54         0.00027
       4 -> 10         0.01902
       4 -> 11         0.01042
       4 -> 14        -0.01123
       4 -> 16        -0.00771
       4 -> 17         0.00333
       4 -> 20         0.00736
       4 -> 21         0.00033
       4 -> 24        -0.00606
       4 -> 26         0.00573
       4 -> 29         0.00116
       4 -> 32        -0.00123
       4 -> 34        -0.00242
       4 -> 39        -0.00018
       4 -> 41         0.00014
       4 -> 43        -0.00030
       4 -> 45         0.00025
       4 -> 47        -0.00162
       4 -> 51        -0.00026
       5 -> 12         0.02260
       5 -> 15         0.01825
       5 -> 19         0.00165
       5 -> 22         0.00615
       5 -> 25         0.01044
       5 -> 30        -0.00118
       5 -> 33        -0.00331
       5 -> 35         0.00251
       5 -> 40         0.00160
       5 -> 42         0.00063
       5 -> 49         0.00058
       5 -> 50        -0.00058
       5 -> 53        -0.00021
       6 -> 10        -0.07094
       6 -> 11         0.09997
       6 -> 14         0.06898
       6 -> 16        -0.11473
       6 -> 17        -0.01978
       6 -> 20        -0.02010
       6 -> 21         0.01998
       6 -> 24        -0.01851
       6 -> 26        -0.00938
       6 -> 29        -0.00941
       6 -> 32         0.00012
       6 -> 34         0.00199
       6 -> 36        -0.00140
       6 -> 39         0.00054
       6 -> 41        -0.00064
       6 -> 43         0.00067
       6 -> 45        -0.00028
       6 -> 47         0.00168
       6 -> 51         0.00083
       6 -> 54        -0.00047
       7 ->  9         0.68609
       7 -> 13         0.00851
       7 -> 18        -0.02286
       7 -> 23         0.00256
       7 -> 28        -0.00311
       7 -> 31        -0.00259
       7 -> 37         0.00053
       7 -> 44        -0.00104
       7 -> 48         0.00055
       7 -> 52         0.00103
       8 -> 12        -0.00441
       8 -> 15         0.09433
       8 -> 19        -0.02634
       8 -> 22        -0.03575
       8 -> 25         0.00154
       8 -> 30        -0.01392
       8 -> 33         0.00353
       8 -> 35        -0.00445
       8 -> 40        -0.00199
       8 -> 42        -0.00034
       8 -> 49         0.00069
       8 -> 50         0.00029
       8 -> 53        -0.00085
       3 <- 10         0.00580
       3 <- 11        -0.01082
       3 <- 14        -0.00858
       3 <- 16         0.01136
       3 <- 17        -0.00197
       3 <- 20        -0.00195
       3 <- 21        -0.00268
       3 <- 24         0.00260
       3 <- 26         0.00360
       3 <- 29        -0.00026
       3 <- 32         0.00257
       3 <- 34         0.00230
       3 <- 39         0.00087
       3 <- 41         0.00012
       3 <- 43         0.00051
       3 <- 45         0.00085
       3 <- 47         0.00214
       3 <- 51         0.00067
       3 <- 54         0.00035
       4 <- 10         0.00892
       4 <- 11         0.00593
       4 <- 14        -0.00533
       4 <- 16        -0.00456
       4 <- 17         0.00151
       4 <- 20         0.00530
       4 <- 21         0.00030
       4 <- 24        -0.00387
       4 <- 26         0.00427
       4 <- 29         0.00027
       4 <- 32        -0.00159
       4 <- 34        -0.00210
       4 <- 36         0.00013
       4 <- 39        -0.00023
       4 <- 43        -0.00029
       4 <- 45         0.00057
       4 <- 47        -0.00128
       5 <- 12         0.00848
       5 <- 15         0.00815
       5 <- 19         0.00107
       5 <- 22         0.00349
       5 <- 25         0.00654
       5 <- 30        -0.00064
       5 <- 33        -0.00247
       5 <- 35         0.00200
       5 <- 40         0.00137
       5 <- 42         0.00050
       5 <- 49         0.00050
       5 <- 50        -0.00052
       5 <- 53        -0.00019
       6 <- 10        -0.01803
       6 <- 11         0.02726
       6 <- 14         0.02415
       6 <- 16        -0.04438
       6 <- 17        -0.00842
       6 <- 20        -0.01059
       6 <- 21         0.01062
       6 <- 24        -0.01064
       6 <- 26        -0.00552
       6 <- 29        -0.00616
       6 <- 32         0.00059
       6 <- 34         0.00219
       6 <- 36        -0.00109
       6 <- 39         0.00068
       6 <- 41        -0.00043
       6 <- 43         0.00058
       6 <- 45        -0.00045
       6 <- 47         0.00121
       6 <- 51         0.00064
       6 <- 54        -0.00037
       7 <-  9        -0.11553
       7 <- 13         0.00968
       7 <- 18        -0.01461
       7 <- 23         0.00518
       7 <- 28        -0.00496
       7 <- 31        -0.00100
       7 <- 44        -0.00053
       7 <- 52         0.00087
       8 <- 12        -0.00069
       8 <- 15         0.02658
       8 <- 19        -0.00932
       8 <- 22        -0.01721
       8 <- 25         0.00049
       8 <- 30        -0.00943
       8 <- 33         0.00252
       8 <- 35        -0.00327
       8 <- 40        -0.00158
       8 <- 42        -0.00027
       8 <- 49         0.00047
       8 <- 50         0.00023
       8 <- 53        -0.00076

 Excited State   3:      Singlet-B1     6.1799 eV  200.63 nm  f=0.0015  <S**2>=0.000
       3 ->  9        -0.03131
       3 -> 13         0.00242
       3 -> 18        -0.00539
       3 -> 23         0.00230
       3 -> 28        -0.00131
       3 -> 31        -0.00050
       3 -> 44         0.00032
       3 -> 48         0.00079
       3 -> 52         0.00104
       4 ->  9         0.01486
       4 -> 13        -0.00271
       4 -> 18         0.00046
       4 -> 23        -0.00247
       4 -> 28         0.00020
       4 -> 31        -0.00175
       4 -> 37        -0.00045
       4 -> 44         0.00010
       4 -> 48        -0.00130
       4 -> 52        -0.00072
       5 -> 27        -0.00062
       5 -> 38         0.00199
       5 -> 46         0.00135
       6 ->  9         0.70601
       6 -> 13        -0.02291
       6 -> 18         0.01842
       6 -> 23        -0.01147
       6 -> 28         0.00510
       6 -> 31         0.00370
       6 -> 37        -0.00239
       6 -> 44        -0.00320
       6 -> 48         0.00458
       6 -> 52         0.00163
       7 -> 10        -0.01032
       7 -> 11         0.01322
       7 -> 14         0.00834
       7 -> 16        -0.00773
       7 -> 17        -0.00987
       7 -> 20         0.00237
       7 -> 21        -0.00069
       7 -> 26        -0.00089
       7 -> 29        -0.00425
       7 -> 32        -0.00095
       7 -> 36         0.00182
       7 -> 39         0.00012
       7 -> 41        -0.00092
       7 -> 43         0.00067
       7 -> 45         0.00234
       7 -> 47         0.00408
       7 -> 51         0.00115
       7 -> 54         0.00052
       8 -> 27         0.00100
       8 -> 38         0.00029
       8 -> 46         0.00592
       3 <-  9        -0.01029
       3 <- 13        -0.00031
       3 <- 18        -0.00312
       3 <- 23        -0.00034
       3 <- 28        -0.00087
       3 <- 31        -0.00058
       3 <- 44        -0.00026
       3 <- 48         0.00100
       3 <- 52         0.00083
       4 <-  9         0.00655
       4 <- 18         0.00220
       4 <- 23        -0.00043
       4 <- 28         0.00191
       4 <- 31        -0.00127
       4 <- 37        -0.00015
       4 <- 44         0.00016
       4 <- 48        -0.00112
       4 <- 52        -0.00041
       5 <- 27        -0.00106
       5 <- 38         0.00157
       5 <- 46         0.00120
       6 <-  9        -0.02324
       6 <- 13         0.00184
       6 <- 18        -0.00306
       6 <- 23        -0.00021
       6 <- 28        -0.00310
       6 <- 31         0.00175
       6 <- 37        -0.00216
       6 <- 44        -0.00187
       6 <- 48         0.00408
       6 <- 52         0.00059
       7 <- 10         0.00622
       7 <- 11        -0.00917
       7 <- 14        -0.00801
       7 <- 16         0.01689
       7 <- 17         0.00050
       7 <- 20         0.00581
       7 <- 21        -0.00518
       7 <- 24         0.00486
       7 <- 26         0.00211
       7 <- 29         0.00074
       7 <- 32        -0.00065
       7 <- 34        -0.00052
       7 <- 36         0.00287
       7 <- 39         0.00039
       7 <- 41        -0.00053
       7 <- 43         0.00057
       7 <- 45         0.00226
       7 <- 47         0.00362
       7 <- 51         0.00093
       7 <- 54         0.00110
       8 <- 27         0.00135
       8 <- 38         0.00045
       8 <- 46         0.00542

 Excited State   4:      Singlet-B2     6.7882 eV  182.65 nm  f=0.0170  <S**2>=0.000
       3 -> 12         0.00184
       3 -> 15        -0.00074
       3 -> 19         0.00301
       3 -> 22        -0.00028
       3 -> 25         0.00049
       3 -> 30         0.00184
       3 -> 33         0.00039
       3 -> 35        -0.00150
       3 -> 40        -0.00109
       3 -> 42        -0.00013
       3 -> 49         0.00135
       3 -> 50        -0.00017
       3 -> 53        -0.00020
       4 -> 12        -0.00094
       4 -> 15         0.00278
       4 -> 19         0.00099
       4 -> 22        -0.00348
       4 -> 25         0.00287
       4 -> 30        -0.00067
       4 -> 33         0.00028
       4 -> 35        -0.00023
       4 -> 40         0.00047
       4 -> 49        -0.00019
       5 -> 10        -0.00430
       5 -> 11        -0.00209
       5 -> 14        -0.01334
       5 -> 16         0.00366
       5 -> 17        -0.00163
       5 -> 20        -0.00064
       5 -> 21        -0.00639
       5 -> 24        -0.00171
       5 -> 26         0.00206
       5 -> 29         0.00156
       5 -> 34         0.00123
       5 -> 36         0.00057
       5 -> 39         0.00048
       5 -> 41        -0.00080
       5 -> 43        -0.00013
       5 -> 45         0.00026
       5 -> 47         0.00051
       5 -> 51        -0.00033
       5 -> 54         0.00018
       6 -> 12        -0.00327
       6 -> 15         0.00102
       6 -> 19        -0.00134
       6 -> 22        -0.00087
       6 -> 25         0.00071
       6 -> 30         0.00020
       6 -> 33        -0.00048
       6 -> 35         0.00181
       6 -> 40         0.00115
       6 -> 49        -0.00070
       6 -> 53         0.00018
       7 -> 27         0.00030
       7 -> 38        -0.00100
       7 -> 46        -0.00202
       8 -> 10         0.68601
       8 -> 11        -0.14386
       8 -> 14        -0.06864
       8 -> 16         0.06059
       8 -> 17         0.00362
       8 -> 20         0.00971
       8 -> 21        -0.00161
       8 -> 24         0.00300
       8 -> 26         0.00489
       8 -> 29         0.00550
       8 -> 32         0.00134
       8 -> 34         0.00062
       8 -> 36         0.00048
       8 -> 39         0.00035
       8 -> 41        -0.00049
       8 -> 43         0.00067
       8 -> 45         0.00177
       8 -> 47         0.00175
       8 -> 51        -0.00132
       8 -> 54         0.00077
       3 <- 12         0.00052
       3 <- 19         0.00137
       3 <- 22        -0.00075
       3 <- 25         0.00018
       3 <- 30         0.00068
       3 <- 33         0.00035
       3 <- 35        -0.00123
       3 <- 40        -0.00100
       3 <- 42        -0.00010
       3 <- 49         0.00140
       3 <- 50        -0.00014
       3 <- 53        -0.00049
       4 <- 12         0.00062
       4 <- 15         0.00238
       4 <- 19         0.00100
       4 <- 22        -0.00259
       4 <- 25         0.00180
       4 <- 30        -0.00054
       4 <- 33         0.00038
       4 <- 35        -0.00041
       4 <- 40         0.00012
       4 <- 42        -0.00019
       4 <- 49        -0.00015
       5 <- 10         0.00183
       5 <- 11         0.00091
       5 <- 14        -0.00412
       5 <- 16        -0.00209
       5 <- 17        -0.00028
       5 <- 21        -0.00170
       5 <- 24        -0.00276
       5 <- 26         0.00101
       5 <- 29         0.00037
       5 <- 32        -0.00067
       5 <- 34         0.00060
       5 <- 36         0.00011
       5 <- 39         0.00012
       5 <- 41        -0.00071
       5 <- 43        -0.00020
       5 <- 45         0.00043
       5 <- 47         0.00026
       5 <- 51        -0.00015
       6 <- 12        -0.00028
       6 <- 15        -0.00271
       6 <- 19         0.00138
       6 <- 22         0.00173
       6 <- 25         0.00025
       6 <- 30         0.00240
       6 <- 33        -0.00062
       6 <- 35         0.00177
       6 <- 40         0.00109
       6 <- 42         0.00011
       6 <- 49        -0.00073
       6 <- 53         0.00055
       7 <- 27         0.00034
       7 <- 38        -0.00076
       7 <- 46        -0.00163
       8 <- 10        -0.00396
       8 <- 11         0.00590
       8 <- 14         0.00672
       8 <- 16        -0.00523
       8 <- 17        -0.00029
       8 <- 20         0.00075
       8 <- 21         0.00199
       8 <- 26        -0.00166
       8 <- 29         0.00042
       8 <- 32        -0.00071
       8 <- 34        -0.00073
       8 <- 36        -0.00036
       8 <- 39        -0.00073
       8 <- 41        -0.00045
       8 <- 43         0.00012
       8 <- 45         0.00192
       8 <- 47         0.00097
       8 <- 51        -0.00071
       8 <- 54         0.00019

 Excited State   5:      Singlet-B2     7.2434 eV  171.17 nm  f=0.0131  <S**2>=0.000
       3 -> 12         0.00082
       3 -> 15         0.00201
       3 -> 19        -0.00206
       3 -> 22        -0.00045
       3 -> 25         0.00082
       3 -> 30        -0.00347
       3 -> 35         0.00116
       3 -> 40         0.00095
       3 -> 49        -0.00126
       3 -> 50         0.00013
       4 -> 12        -0.00162
       4 -> 15        -0.00052
       4 -> 19         0.00043
       4 -> 22         0.00054
       4 -> 25        -0.00073
       4 -> 30         0.00182
       4 -> 33        -0.00041
       4 -> 35         0.00062
       4 -> 50        -0.00013
       5 -> 10        -0.00644
       5 -> 11         0.00171
       5 -> 14         0.00695
       5 -> 16         0.00491
       5 -> 17         0.00270
       5 -> 20         0.00306
       5 -> 21         0.00288
       5 -> 24         0.00031
       5 -> 26        -0.00137
       5 -> 29        -0.00119
       5 -> 32        -0.00147
       5 -> 34        -0.00025
       5 -> 36        -0.00071
       5 -> 39        -0.00087
       5 -> 41         0.00026
       5 -> 43        -0.00037
       5 -> 45        -0.00066
       5 -> 47        -0.00061
       5 -> 51         0.00048
       6 -> 12         0.00066
       6 -> 19         0.00114
       6 -> 22        -0.00106
       6 -> 30        -0.00122
       6 -> 33         0.00026
       6 -> 35        -0.00111
       6 -> 40        -0.00131
       6 -> 42        -0.00024
       6 -> 49         0.00175
       6 -> 50        -0.00014
       6 -> 53        -0.00018
       7 -> 27        -0.00077
       7 -> 38         0.00028
       7 -> 46         0.00288
       8 -> 10         0.15301
       8 -> 11         0.68583
       8 -> 14         0.03180
       8 -> 16        -0.07000
       8 -> 17        -0.00635
       8 -> 20         0.01430
       8 -> 21         0.00380
       8 -> 24        -0.00454
       8 -> 26        -0.00042
       8 -> 29        -0.00519
       8 -> 32        -0.00063
       8 -> 34        -0.00087
       8 -> 36        -0.00104
       8 -> 39         0.00011
       8 -> 41         0.00037
       8 -> 43        -0.00012
       8 -> 45        -0.00298
       8 -> 47        -0.00225

 The electronic state is 1-A1.
 Alpha  occ. eigenvalues --  -19.16808 -10.31770  -0.95438  -0.68593  -0.48828
 Alpha  occ. eigenvalues --   -0.42797  -0.34543  -0.29009
 Alpha virt. eigenvalues --   -0.12933  -0.00328   0.02396   0.04119   0.06161
 Alpha virt. eigenvalues --    0.10899   0.15119   0.15380   0.18956   0.21583
 Alpha virt. eigenvalues --    0.23886   0.30064   0.39793   0.42135   0.50979

 Mulliken charges:
               1
     1  C   -0.041851
     2  H    0.168412
     3  H    0.168412
     4  O   -0.294973
 Sum of Mulliken charges =  -0.00000

 Dipole moment (field-independent basis, Debye):
    X=             -0.0000    Y=             -0.0000    Z=             -3.5209  Tot=              3.5209
 Quadrupole moment (field-independent basis, Debye-Ang):
   XX=            -12.5346   YY=            -11.8210   ZZ=            -11.6073
   XY=              0.0000   XZ=              0.0000   YZ=              0.0000

 Normal termination of Gaussian 16 at Fri Sep 17 10:52:54 2021.
