 Gaussian 16, Revision A.03,
 Gaussian 16:  ES64L-G16RevA.03 25-Dec-2016

 --------------------------------------------------------------------
 #p B3LYP/6-311+G** #p TD=(singlets,nstates=30)IOp(6/8=3) IOp(9/40=4)
 --------------------------------------------------------------------

 -------------------------------
 Scan Step 238, Bond Length 1.69
 -------------------------------
 Symbolic Z-matrix:
 Charge =  0 Multiplicity = 1

                         Standard orientation:
 ---------------------------------------------------------------------
 Center     Atomic      Atomic             Coordinates (Angstroms)
 Number     Number       Type             X           Y           Z
 ---------------------------------------------------------------------
      1          6           0        0.000000    0.000000   -0.771081
      2          1           0        0.000000    0.937260   -1.362431
      3          1           0       -0.000000   -0.937260   -1.362431
      4          8           0        0.000000   -0.000000    0.918919
 ---------------------------------------------------------------------

 SCF Done:  E(RB3LYP) =  -114.394708444     A.U. after   11 cycles

 Excitation energies and oscillator strengths:

 Excited State   1:      Singlet-A2     1.6754 eV  740.04 nm  f=0.0000  <S**2>=0.000
       3 -> 27         0.00097
       3 -> 38         0.00068
       3 -> 46         0.00335
       4 -> 27         0.00056
       4 -> 46        -0.00118
       5 ->  9         0.00477
       5 -> 13         0.00108
       5 -> 18         0.00236
       5 -> 23         0.00156
       5 -> 28         0.00198
       5 -> 37         0.00108
       5 -> 44         0.00028
       5 -> 52         0.00027
       6 -> 27        -0.00062
       6 -> 38        -0.00069
       6 -> 46         0.00118
       7 -> 12        -0.00105
       7 -> 16         0.00501
       7 -> 19        -0.00429
       7 -> 22        -0.00096
       7 -> 25         0.00079
       7 -> 29        -0.00169
       7 -> 33         0.00033
       7 -> 49         0.00012
       7 -> 50         0.00012
       7 -> 53         0.00042
       8 ->  9         0.70933
       8 -> 13        -0.01024
       8 -> 18         0.02135
       8 -> 23        -0.00229
       8 -> 28         0.01084
       8 -> 31         0.00139
       8 -> 37         0.00058
       8 -> 48        -0.00031
       8 -> 52         0.00192
       3 <- 27         0.00038
       3 <- 38         0.00043
       3 <- 46         0.00338
       4 <- 27         0.00100
       4 <- 38         0.00022
       4 <- 46        -0.00094
       5 <- 13        -0.00044
       5 <- 18        -0.00055
       5 <- 23         0.00022
       5 <- 28        -0.00039
       5 <- 31         0.00029
       5 <- 37         0.00062
       6 <- 38        -0.00055
       6 <- 46         0.00089
       7 <- 12         0.00110
       7 <- 16        -0.01035
       7 <- 19         0.00449
       7 <- 22         0.00650
       7 <- 25         0.00059
       7 <- 29         0.00545
       7 <- 33        -0.00042
       7 <- 36         0.00050
       7 <- 40        -0.00033
       7 <- 42         0.00016
       7 <- 49        -0.00045
       7 <- 53         0.00146
       8 <-  9        -0.06049
       8 <- 18        -0.00708
       8 <- 28        -0.00256
       8 <- 31        -0.00071
       8 <- 37        -0.00034
       8 <- 48         0.00011
       8 <- 52         0.00049
 This state for optimization and/or second-order correction.
 Total Energy, E(TD-HF/TD-DFT) =  -114.333140020
 Copying the excited state density for this state as the 1-particle RhoCI density.

 Excited State   2:      Singlet-A1     4.3624 eV  284.21 nm  f=0.0546  <S**2>=0.000
       3 -> 10        -0.01803
       3 -> 11        -0.00780
       3 -> 14         0.00635
       3 -> 15         0.00247
       3 -> 17        -0.00337
       3 -> 20        -0.00397
       3 -> 21        -0.00033
       3 -> 24         0.00158
       3 -> 26         0.00278
       3 -> 30        -0.00129
       3 -> 32         0.00276
       3 -> 34         0.00170
       3 -> 35        -0.00119
       3 -> 39         0.00066
       3 -> 43         0.00049
       3 -> 45         0.00048
       3 -> 47         0.00229
       3 -> 51         0.00127
       4 -> 10        -0.00619
       4 -> 11         0.01285
       4 -> 14         0.00361
       4 -> 15        -0.00928
       4 -> 17         0.00282
       4 -> 20         0.00386
       4 -> 21         0.00038
       4 -> 24        -0.00447
       4 -> 26         0.00440
       4 -> 30         0.00090
       4 -> 32        -0.00136
       4 -> 34        -0.00126
       4 -> 35         0.00039
       4 -> 41         0.00011
       4 -> 43        -0.00051
       4 -> 45        -0.00083
       4 -> 47        -0.00102
       4 -> 51        -0.00032
       4 -> 54         0.00013
       5 -> 12         0.01391
       5 -> 16         0.00701
       5 -> 19         0.00139
       5 -> 22         0.00750
       5 -> 25         0.00674
       5 -> 29         0.00012
       5 -> 33        -0.00281
       5 -> 36         0.00278
       5 -> 40        -0.00133
       5 -> 42         0.00076
       5 -> 49         0.00034
       5 -> 50        -0.00075
       6 -> 10         0.20346
       6 -> 11         0.07347
       6 -> 14        -0.07655
       6 -> 15        -0.04113
       6 -> 17        -0.01856
       6 -> 20        -0.00641
       6 -> 21         0.00997
       6 -> 24        -0.01138
       6 -> 26        -0.00523
       6 -> 30        -0.00683
       6 -> 32         0.00180
       6 -> 34         0.00141
       6 -> 35        -0.00018
       6 -> 39         0.00104
       6 -> 41        -0.00027
       6 -> 43         0.00086
       6 -> 45         0.00083
       6 -> 47         0.00104
       6 -> 51         0.00075
       6 -> 54        -0.00081
       7 ->  9         0.68122
       7 -> 13        -0.00309
       7 -> 18        -0.01506
       7 -> 23        -0.00124
       7 -> 28        -0.00021
       7 -> 31        -0.00318
       7 -> 37         0.00111
       7 -> 44        -0.00102
       7 -> 48         0.00027
       7 -> 52         0.00105
       8 -> 12        -0.00789
       8 -> 16         0.05478
       8 -> 19        -0.02213
       8 -> 22        -0.02042
       8 -> 25         0.00024
       8 -> 29        -0.01042
       8 -> 33         0.00161
       8 -> 36        -0.00172
       8 -> 40         0.00083
       8 -> 42        -0.00036
       8 -> 49         0.00042
       8 -> 50         0.00020
       8 -> 53        -0.00062
       3 <- 10        -0.01294
       3 <- 11        -0.00599
       3 <- 14         0.00495
       3 <- 15         0.00148
       3 <- 17        -0.00181
       3 <- 20        -0.00308
       3 <- 21        -0.00076
       3 <- 24         0.00086
       3 <- 26         0.00150
       3 <- 30        -0.00077
       3 <- 32         0.00250
       3 <- 34         0.00101
       3 <- 35        -0.00106
       3 <- 39         0.00061
       3 <- 43         0.00059
       3 <- 45         0.00066
       3 <- 47         0.00235
       3 <- 51         0.00125
       3 <- 54         0.00020
       4 <- 10        -0.00267
       4 <- 11         0.00852
       4 <- 14         0.00210
       4 <- 15        -0.00582
       4 <- 17         0.00154
       4 <- 20         0.00369
       4 <- 21         0.00024
       4 <- 24        -0.00319
       4 <- 26         0.00364
       4 <- 30         0.00018
       4 <- 32        -0.00161
       4 <- 34        -0.00108
       4 <- 35         0.00066
       4 <- 43        -0.00048
       4 <- 45        -0.00085
       4 <- 47        -0.00065
       4 <- 51        -0.00018
       5 <- 12         0.00706
       5 <- 16         0.00397
       5 <- 19         0.00102
       5 <- 22         0.00495
       5 <- 25         0.00485
       5 <- 29         0.00021
       5 <- 33        -0.00224
       5 <- 36         0.00232
       5 <- 40        -0.00118
       5 <- 42         0.00065
       5 <- 49         0.00031
       5 <- 50        -0.00069
       6 <- 10         0.06489
       6 <- 11         0.02592
       6 <- 14        -0.03246
       6 <- 15        -0.01917
       6 <- 17        -0.00986
       6 <- 20        -0.00486
       6 <- 21         0.00619
       6 <- 24        -0.00718
       6 <- 26        -0.00299
       6 <- 30        -0.00478
       6 <- 32         0.00213
       6 <- 34         0.00166
       6 <- 35        -0.00058
       6 <- 39         0.00103
       6 <- 41        -0.00021
       6 <- 43         0.00072
       6 <- 45         0.00067
       6 <- 47         0.00062
       6 <- 51         0.00060
       6 <- 54        -0.00071
       7 <-  9        -0.12844
       7 <- 13         0.00579
       7 <- 18        -0.01299
       7 <- 23         0.00236
       7 <- 28        -0.00299
       7 <- 31        -0.00153
       7 <- 37         0.00047
       7 <- 44        -0.00068
       7 <- 48        -0.00028
       7 <- 52         0.00094
       8 <- 12        -0.00237
       8 <- 16         0.02246
       8 <- 19        -0.01078
       8 <- 22        -0.01203
       8 <- 29        -0.00786
       8 <- 33         0.00123
       8 <- 36        -0.00134
       8 <- 40         0.00067
       8 <- 42        -0.00029
       8 <- 49         0.00025
       8 <- 50         0.00016
       8 <- 53        -0.00057

 Excited State   3:      Singlet-B1     4.7803 eV  259.36 nm  f=0.0011  <S**2>=0.000
       3 ->  9        -0.02664
       3 -> 13         0.00133
       3 -> 18        -0.00419
       3 -> 23         0.00150
       3 -> 28        -0.00079
       3 -> 31        -0.00051
       3 -> 44         0.00024
       3 -> 48         0.00097
       3 -> 52         0.00088
       4 ->  9         0.01213
       4 -> 13        -0.00253
       4 -> 18         0.00016
       4 -> 23        -0.00227
       4 -> 28         0.00031
       4 -> 31        -0.00141
       4 -> 37        -0.00037
       4 -> 44         0.00012
       4 -> 48        -0.00091
       4 -> 52        -0.00048
       5 -> 27         0.00013
       5 -> 38         0.00198
       5 -> 46         0.00069
       6 ->  9         0.70125
       6 -> 13        -0.01866
       6 -> 18         0.01566
       6 -> 23        -0.01064
       6 -> 28         0.00383
       6 -> 31         0.00292
       6 -> 37        -0.00196
       6 -> 44        -0.00248
       6 -> 48         0.00385
       6 -> 52         0.00129
       7 -> 10         0.08741
       7 -> 11         0.02587
       7 -> 14        -0.02092
       7 -> 15        -0.00613
       7 -> 17        -0.00895
       7 -> 20         0.00329
       7 -> 21         0.00075
       7 -> 24        -0.00119
       7 -> 26        -0.00195
       7 -> 30        -0.00388
       7 -> 32        -0.00034
       7 -> 34         0.00092
       7 -> 35         0.00166
       7 -> 39         0.00017
       7 -> 41        -0.00036
       7 -> 43         0.00050
       7 -> 45         0.00012
       7 -> 47         0.00396
       7 -> 51         0.00120
       7 -> 54         0.00026
       8 -> 27         0.00028
       8 -> 46         0.00491
       3 <-  9        -0.00900
       3 <- 13        -0.00078
       3 <- 18        -0.00273
       3 <- 23        -0.00061
       3 <- 28        -0.00047
       3 <- 31        -0.00072
       3 <- 37         0.00012
       3 <- 44        -0.00018
       3 <- 48         0.00111
       3 <- 52         0.00073
       4 <-  9         0.00659
       4 <- 13        -0.00039
       4 <- 18         0.00172
       4 <- 23        -0.00073
       4 <- 28         0.00149
       4 <- 31        -0.00094
       4 <- 37        -0.00022
       4 <- 48        -0.00079
       4 <- 52        -0.00027
       5 <- 27        -0.00044
       5 <- 38         0.00165
       5 <- 46         0.00061
       6 <-  9        -0.02886
       6 <- 13         0.00178
       6 <- 18        -0.00365
       6 <- 23        -0.00019
       6 <- 28        -0.00359
       6 <- 31         0.00087
       6 <- 37        -0.00167
       6 <- 44        -0.00117
       6 <- 48         0.00344
       6 <- 52         0.00036
       7 <- 10        -0.02789
       7 <- 11        -0.01106
       7 <- 14         0.01486
       7 <- 15         0.01016
       7 <- 17         0.00208
       7 <- 20         0.00432
       7 <- 21        -0.00385
       7 <- 24         0.00435
       7 <- 26         0.00169
       7 <- 30         0.00146
       7 <- 32         0.00022
       7 <- 34         0.00107
       7 <- 35         0.00224
       7 <- 39         0.00051
       7 <- 43         0.00033
       7 <- 47         0.00365
       7 <- 51         0.00117
       7 <- 54         0.00101
       8 <- 27         0.00076
       8 <- 38         0.00019
       8 <- 46         0.00460

 Excited State   4:      Singlet-B2     5.1460 eV  240.93 nm  f=0.0071  <S**2>=0.000
       3 -> 12        -0.00145
       3 -> 16         0.00190
       3 -> 19        -0.00458
       3 -> 22         0.00077
       3 -> 25         0.00070
       3 -> 29        -0.00324
       3 -> 36         0.00202
       3 -> 40        -0.00175
       3 -> 42         0.00039
       3 -> 49        -0.00326
       3 -> 50         0.00021
       3 -> 53         0.00031
       4 -> 12         0.00046
       4 -> 16        -0.00225
       4 -> 19         0.00039
       4 -> 22         0.00258
       4 -> 25        -0.00130
       4 -> 29         0.00134
       4 -> 33        -0.00044
       4 -> 36         0.00051
       4 -> 40         0.00045
       4 -> 49         0.00060
       4 -> 50        -0.00012
       5 -> 10         0.01054
       5 -> 11         0.00367
       5 -> 14        -0.00800
       5 -> 15         0.00427
       5 -> 20         0.00216
       5 -> 21         0.00497
       5 -> 24         0.00176
       5 -> 26        -0.00127
       5 -> 30        -0.00197
       5 -> 32        -0.00195
       5 -> 34        -0.00084
       5 -> 35        -0.00021
       5 -> 39        -0.00096
       5 -> 41         0.00061
       5 -> 45         0.00011
       5 -> 47        -0.00070
       5 -> 51         0.00043
       5 -> 54        -0.00024
       6 -> 12         0.00289
       6 -> 16        -0.00221
       6 -> 19         0.00363
       6 -> 22        -0.00041
       6 -> 25        -0.00097
       6 -> 29        -0.00034
       6 -> 33         0.00013
       6 -> 36        -0.00185
       6 -> 40         0.00150
       6 -> 42        -0.00057
       6 -> 49         0.00160
       6 -> 53        -0.00042
       7 -> 27        -0.00067
       7 -> 38         0.00064
       7 -> 46         0.00369
       8 -> 10         0.68140
       8 -> 11         0.15344
       8 -> 14        -0.10302
       8 -> 15        -0.04135
       8 -> 17        -0.01580
       8 -> 20         0.00105
       8 -> 21         0.00754
       8 -> 24        -0.00688
       8 -> 26        -0.00544
       8 -> 30        -0.01122
       8 -> 32        -0.00370
       8 -> 34        -0.00186
       8 -> 35         0.00035
       8 -> 39        -0.00075
       8 -> 43        -0.00021
       8 -> 45         0.00129
       8 -> 47        -0.00452
       8 -> 51         0.00208
       8 -> 54        -0.00206
       3 <- 12        -0.00052
       3 <- 16         0.00057
       3 <- 19        -0.00218
       3 <- 22         0.00095
       3 <- 25         0.00063
       3 <- 29        -0.00129
       3 <- 36         0.00149
       3 <- 40        -0.00154
       3 <- 42         0.00032
       3 <- 49        -0.00334
       3 <- 50         0.00019
       3 <- 53         0.00086
       4 <- 16        -0.00213
       4 <- 22         0.00256
       4 <- 25        -0.00081
       4 <- 29         0.00133
       4 <- 33        -0.00050
       4 <- 36         0.00074
       4 <- 40         0.00017
       4 <- 49         0.00043
       5 <- 10        -0.00054
       5 <- 11        -0.00128
       5 <- 14        -0.00088
       5 <- 15         0.00346
       5 <- 17         0.00021
       5 <- 20         0.00070
       5 <- 21         0.00202
       5 <- 24         0.00221
       5 <- 26        -0.00034
       5 <- 30        -0.00045
       5 <- 32        -0.00023
       5 <- 34        -0.00016
       5 <- 39        -0.00036
       5 <- 41         0.00064
       5 <- 43         0.00010
       5 <- 45         0.00036
       5 <- 47        -0.00063
       5 <- 51         0.00023
       6 <- 12        -0.00022
       6 <- 16         0.00649
       6 <- 19        -0.00305
       6 <- 22        -0.00466
       6 <- 25        -0.00079
       6 <- 29        -0.00541
       6 <- 33         0.00045
       6 <- 36        -0.00181
       6 <- 40         0.00153
       6 <- 42        -0.00064
       6 <- 49         0.00188
       6 <- 53        -0.00124
       7 <- 27        -0.00065
       7 <- 38         0.00050
       7 <- 46         0.00309
       8 <- 10        -0.02528
       8 <- 11        -0.01032
       8 <- 14         0.01067
       8 <- 15         0.00314
       8 <- 17         0.00083
       8 <- 20        -0.00276
       8 <- 21        -0.00203
       8 <- 24         0.00158
       8 <- 26         0.00177
       8 <- 30        -0.00035
       8 <- 32         0.00290
       8 <- 34         0.00119
       8 <- 35        -0.00049
       8 <- 39         0.00148
       8 <- 41         0.00043
       8 <- 43         0.00047
       8 <- 45         0.00204
       8 <- 47        -0.00353
       8 <- 51         0.00137
       8 <- 54        -0.00054

 Excited State   5:      Singlet-B1     6.1407 eV  201.91 nm  f=0.0079  <S**2>=0.000
       3 ->  9        -0.01322
       3 -> 13         0.00077
       3 -> 18        -0.00306
       3 -> 23         0.00093
       3 -> 28        -0.00331
       3 -> 31        -0.00161
       3 -> 44         0.00047
       3 -> 48        -0.00237
       4 ->  9        -0.03397
       4 -> 13         0.00634
       4 -> 18         0.00139
       4 -> 23         0.00464
       4 -> 28         0.00187
       4 -> 31        -0.00013
       4 -> 37         0.00034
       4 -> 44        -0.00047
       4 -> 48         0.00060
       4 -> 52         0.00012
       5 -> 27        -0.00723
       5 -> 38        -0.00314
       5 -> 46         0.00049
       6 ->  9        -0.09109
       6 -> 13        -0.00272
       6 -> 18         0.00219
       6 -> 23        -0.00083
       6 -> 28         0.00334
       6 -> 31        -0.00365
       6 -> 37         0.00195
       6 -> 44         0.00012
       6 -> 48         0.00078
       6 -> 52        -0.00054
       7 -> 10         0.68060
       7 -> 11         0.13158
       7 -> 14        -0.09226
       7 -> 15        -0.04605
       7 -> 17        -0.00976
       7 -> 20        -0.00456
       7 -> 21         0.00376
       7 -> 24        -0.00989
       7 -> 26        -0.00739
       7 -> 30        -0.00675
       7 -> 32        -0.00182
       7 -> 34        -0.00400
       7 -> 35        -0.00183
       7 -> 39        -0.00066
       7 -> 43         0.00061
       7 -> 45         0.00089
       7 -> 47         0.00191
       7 -> 51         0.00097
       7 -> 54        -0.00140
       8 -> 27         0.00107
       8 -> 38         0.00030
       8 -> 46         0.00225
       3 <-  9        -0.00282
       3 <- 13         0.00065
       3 <- 18        -0.00124
       3 <- 23         0.00061
       3 <- 28        -0.00207
       3 <- 31        -0.00031
       3 <- 37        -0.00021
       3 <- 44         0.00020
       3 <- 48        -0.00256
       3 <- 52         0.00041
       4 <-  9        -0.01124
       4 <- 13         0.00246
       4 <- 18         0.00052
       4 <- 23         0.00234
       4 <- 28         0.00171
       4 <- 31        -0.00027
       4 <- 37         0.00041
       4 <- 44        -0.00069
       4 <- 48         0.00018
       4 <- 52         0.00010
       5 <- 27        -0.00484
       5 <- 38        -0.00241
       5 <- 46         0.00045
       6 <-  9        -0.02537
       6 <- 18        -0.00368
       6 <- 23         0.00030
       6 <- 28        -0.00064
       6 <- 31        -0.00417

 The electronic state is 1-A1.
 Alpha  occ. eigenvalues --  -19.17472 -10.33236  -0.91167  -0.70439  -0.48971
 Alpha  occ. eigenvalues --   -0.40531  -0.32025  -0.28880
 Alpha virt. eigenvalues --   -0.15683  -0.03274   0.00482   0.04071   0.06109
 Alpha virt. eigenvalues --    0.07499   0.12307   0.13967   0.18876   0.21247
 Alpha virt. eigenvalues --    0.23986   0.30277   0.38782   0.40433   0.50849

 Mulliken charges:
               1
     1  C   -0.076626
     2  H    0.185740
     3  H    0.185740
     4  O   -0.294855
 Sum of Mulliken charges =  -0.00000

 Dipole moment (field-independent basis, Debye):
    X=             -0.0000    Y=             -0.0000    Z=             -3.9345  Tot=              3.9345
 Quadrupole moment (field-independent basis, Debye-Ang):
   XX=            -12.8750   YY=            -11.9488   ZZ=            -11.0474
   XY=              0.0000   XZ=              0.0000   YZ=              0.0000

 Normal termination of Gaussian 16 at Fri Sep 17 10:53:03 2021.
