 Gaussian 16, Revision C.01,
 Gaussian 16:  ES64L-G16RevC.01  3-Jul-2019

 ---------------------------------------
 #P wB97XD/6-311+G* NoSymm #P Field=X+48
 ---------------------------------------

 -------
 TitleMe
 -------
 Symbolic Z-matrix:
 Charge =  1 Multiplicity = 1

                          Input orientation:
 ---------------------------------------------------------------------
 Center     Atomic      Atomic             Coordinates (Angstroms)
 Number     Number       Type             X           Y           Z
 ---------------------------------------------------------------------
      1          6           0        0.519300    1.233000   -0.031900
      2          6           0        1.944500    1.269200   -0.036700
      3          6           0        2.620400    0.092800   -0.025000
      4          6           0       -0.196000    0.030100    0.001000
      5          1           0       -0.020700    2.174200   -0.043400
      6          1           0        2.482800    2.208900   -0.036100
      7          1           0       -1.277700    0.039900    0.011700
      8          7           0        4.092100    0.095900    0.036600
      9          8           0        4.639300   -1.021700    0.144600
     10          8           0        4.664900    1.198400   -0.023300
     11          6           0        0.494300   -1.167100    0.021000
     12          1           0       -0.032500   -2.114900    0.054500
     13          6           0        1.962900   -1.216500   -0.021100
     14          1           0        2.443600   -1.963100    0.615100
     15         35           0        2.173000   -1.949100   -1.906200
 ---------------------------------------------------------------------

 SCF Done:  E(RwB97XD) =  -3010.52793871     A.U. after   19 cycles

 Alpha  occ. eigenvalues -- -483.32688 -62.87713 -56.67404 -56.66837 -56.66827
 Alpha  occ. eigenvalues --  -19.49188 -19.49147 -14.88525 -10.60843 -10.59626
 Alpha  occ. eigenvalues --  -10.58527 -10.58124 -10.55147 -10.53709  -9.03520
 Alpha  occ. eigenvalues --   -6.86196  -6.84333  -6.84304  -2.96101  -2.95610
 Alpha  occ. eigenvalues --   -2.95587  -2.94096  -2.94095  -1.52839  -1.35831
 Alpha  occ. eigenvalues --   -1.23958  -1.14342  -1.14049  -1.06349  -1.02095
 Alpha  occ. eigenvalues --   -0.96748  -0.92155  -0.87159  -0.83310  -0.82248
 Alpha  occ. eigenvalues --   -0.81975  -0.79372  -0.78649  -0.77132  -0.73421
 Alpha  occ. eigenvalues --   -0.69650  -0.68939  -0.64694  -0.61426  -0.60287
 Alpha  occ. eigenvalues --   -0.59661  -0.58941  -0.57827  -0.56290
 Alpha virt. eigenvalues --   -0.31586  -0.22594  -0.17246  -0.14776  -0.09675
 Alpha virt. eigenvalues --   -0.07146  -0.06391  -0.05931  -0.05499  -0.04180
 Alpha virt. eigenvalues --   -0.03563  -0.03248  -0.02720  -0.01998  -0.01140

 Mulliken charges:
               1
     1  C   -0.115094
     2  C    0.185371
     3  C   -0.100585
     4  C   -0.331424
     5  H    0.357592
     6  H    0.344322
     7  H    0.353175
     8  N   -0.238592
     9  O    0.069719
    10  O    0.046727
    11  C   -0.184335
    12  H    0.368530
    13  C   -0.333911
    14  H    0.405287
    15  Br   0.173216
 Sum of Mulliken charges =   1.00000

 Dipole moment (field-independent basis, Debye):
    X=              1.4188    Y=             -0.8348    Z=             -0.6829  Tot=              1.7822
 Quadrupole moment (field-independent basis, Debye-Ang):
   XX=            -73.2140   YY=            -51.2339   ZZ=            -62.3143
   XY=             -2.6289   XZ=             -2.1815   YZ=              2.2964

 Normal termination of Gaussian 16 at Thu May  2 14:18:05 2024.
