 Gaussian 16, Revision A.03,
 Gaussian 16:  ES64L-G16RevA.03 25-Dec-2016

 --------------------------------------------------------------------
 #p B3LYP/6-311+G** #p TD=(singlets,nstates=30)IOp(6/8=3) IOp(9/40=4)
 --------------------------------------------------------------------

 --------------------------------
 Scan Step 261, Bond Length 1.805
 --------------------------------
 Symbolic Z-matrix:
 Charge =  0 Multiplicity = 1

                         Standard orientation:
 ---------------------------------------------------------------------
 Center     Atomic      Atomic             Coordinates (Angstroms)
 Number     Number       Type             X           Y           Z
 ---------------------------------------------------------------------
      1          6           0        0.000000   -0.000000   -0.828581
      2          1           0        0.000000    0.937260   -1.419931
      3          1           0       -0.000000   -0.937260   -1.419931
      4          8           0        0.000000    0.000000    0.976419
 ---------------------------------------------------------------------

 SCF Done:  E(RB3LYP) =  -114.354931771     A.U. after   12 cycles

 Excitation energies and oscillator strengths:

 Excited State   1:      Singlet-A2     1.3549 eV  915.08 nm  f=0.0000  <S**2>=0.000
       3 -> 27         0.00076
       3 -> 38         0.00049
       3 -> 46         0.00335
       4 -> 27         0.00041
       4 -> 46        -0.00101
       5 ->  9         0.00222
       5 -> 13         0.00111
       5 -> 18         0.00182
       5 -> 23         0.00141
       5 -> 28         0.00143
       5 -> 37         0.00080
       5 -> 44         0.00022
       5 -> 52         0.00019
       6 -> 27        -0.00058
       6 -> 38        -0.00059
       6 -> 46         0.00099
       7 -> 12        -0.00123
       7 -> 16         0.00525
       7 -> 19        -0.00461
       7 -> 22        -0.00110
       7 -> 25        -0.00061
       7 -> 29        -0.00187
       7 -> 33         0.00029
       7 -> 49         0.00013
       7 -> 53         0.00039
       8 ->  9         0.71051
       8 -> 13        -0.00740
       8 -> 18         0.02093
       8 -> 23        -0.00119
       8 -> 28         0.01041
       8 -> 31         0.00159
       8 -> 37         0.00050
       8 -> 48        -0.00030
       8 -> 52         0.00187
       3 <- 27         0.00023
       3 <- 38         0.00026
       3 <- 46         0.00338
       4 <- 27         0.00077
       4 <- 38         0.00020
       4 <- 46        -0.00079
       5 <-  9         0.00028
       5 <- 13        -0.00036
       5 <- 18        -0.00041
       5 <- 23         0.00017
       5 <- 28        -0.00030
       5 <- 31         0.00023
       5 <- 37         0.00046
       6 <- 38        -0.00045
       6 <- 46         0.00073
       7 <- 12         0.00167
       7 <- 16        -0.01053
       7 <- 19         0.00537
       7 <- 22         0.00590
       7 <- 25        -0.00063
       7 <- 29         0.00559
       7 <- 33        -0.00036
       7 <- 35         0.00022
       7 <- 40        -0.00015
       7 <- 42        -0.00013
       7 <- 49        -0.00048
       7 <- 53         0.00145
       8 <-  9        -0.07232
       8 <- 13        -0.00034
       8 <- 18        -0.00761
       8 <- 23        -0.00028
       8 <- 28        -0.00273
       8 <- 31        -0.00079
       8 <- 37        -0.00023
       8 <- 48         0.00013
       8 <- 52         0.00045
 This state for optimization and/or second-order correction.
 Total Energy, E(TD-HF/TD-DFT) =  -114.305140062
 Copying the excited state density for this state as the 1-particle RhoCI density.

 Excited State   2:      Singlet-A1     3.5632 eV  347.96 nm  f=0.0350  <S**2>=0.000
       3 -> 10        -0.01555
       3 -> 11        -0.00370
       3 -> 14         0.00211
       3 -> 15         0.00068
       3 -> 17        -0.00314
       3 -> 20        -0.00365
       3 -> 21         0.00033
       3 -> 24         0.00072
       3 -> 26         0.00160
       3 -> 30        -0.00082
       3 -> 32         0.00277
       3 -> 34        -0.00117
       3 -> 36        -0.00104
       3 -> 39         0.00047
       3 -> 43         0.00053
       3 -> 45        -0.00088
       3 -> 47         0.00231
       3 -> 50         0.00150
       4 -> 10        -0.00231
       4 -> 11         0.01099
       4 -> 14         0.00215
       4 -> 15        -0.00807
       4 -> 17         0.00235
       4 -> 20         0.00245
       4 -> 21         0.00030
       4 -> 24        -0.00392
       4 -> 26         0.00354
       4 -> 30         0.00047
       4 -> 32        -0.00128
       4 -> 34         0.00086
       4 -> 36         0.00018
       4 -> 39         0.00017
       4 -> 43        -0.00049
       4 -> 45         0.00078
       4 -> 47        -0.00082
       4 -> 50        -0.00029
       4 -> 54         0.00015
       5 -> 12         0.01046
       5 -> 16         0.00344
       5 -> 19         0.00122
       5 -> 22         0.00702
       5 -> 25        -0.00503
       5 -> 29         0.00032
       5 -> 33        -0.00249
       5 -> 35         0.00275
       5 -> 40        -0.00106
       5 -> 42        -0.00095
       5 -> 49         0.00018
       5 -> 51        -0.00083
       6 -> 10         0.24365
       6 -> 11         0.04262
       6 -> 14        -0.04829
       6 -> 15        -0.02581
       6 -> 17        -0.01635
       6 -> 20        -0.00238
       6 -> 21         0.00631
       6 -> 24        -0.00860
       6 -> 26        -0.00359
       6 -> 30        -0.00483
       6 -> 32         0.00355
       6 -> 34        -0.00139
       6 -> 36         0.00038
       6 -> 39         0.00128
       6 -> 41        -0.00014
       6 -> 43         0.00084
       6 -> 45        -0.00086
       6 -> 47         0.00084
       6 -> 50         0.00060
       6 -> 54        -0.00094
       7 ->  9         0.67707
       7 -> 13        -0.00628
       7 -> 18        -0.01130
       7 -> 23        -0.00239
       7 -> 28         0.00099
       7 -> 31        -0.00327
       7 -> 37         0.00129
       7 -> 44        -0.00097
       7 -> 48         0.00011
       7 -> 52         0.00106
       8 -> 12        -0.00767
       8 -> 16         0.03997
       8 -> 19        -0.01926
       8 -> 22        -0.01407
       8 -> 29        -0.00847
       8 -> 33         0.00107
       8 -> 35        -0.00088
       8 -> 40         0.00036
       8 -> 42         0.00029
       8 -> 49         0.00018
       8 -> 51         0.00015
       8 -> 53        -0.00053
       3 <- 10        -0.01202
       3 <- 11        -0.00322
       3 <- 14         0.00175
       3 <- 15         0.00013
       3 <- 17        -0.00178
       3 <- 20        -0.00309
       3 <- 21        -0.00013
       3 <- 24         0.00017
       3 <- 26         0.00062
       3 <- 30        -0.00035
       3 <- 32         0.00244
       3 <- 34        -0.00062
       3 <- 36        -0.00101
       3 <- 39         0.00043
       3 <- 43         0.00059
       3 <- 45        -0.00103
       3 <- 47         0.00232
       3 <- 50         0.00150
       4 <- 10        -0.00035
       4 <- 11         0.00789
       4 <- 14         0.00157
       4 <- 15        -0.00545
       4 <- 17         0.00139
       4 <- 20         0.00281
       4 <- 21         0.00013
       4 <- 24        -0.00295
       4 <- 26         0.00309
       4 <- 30        -0.00014
       4 <- 32        -0.00139
       4 <- 34         0.00073
       4 <- 36         0.00047
       4 <- 39         0.00018
       4 <- 43        -0.00044
       4 <- 45         0.00074
       4 <- 47        -0.00050
       4 <- 50        -0.00016
       4 <- 54         0.00012
       5 <- 12         0.00610
       5 <- 16         0.00221
       5 <- 19         0.00096
       5 <- 22         0.00497
       5 <- 25        -0.00387
       5 <- 29         0.00035
       5 <- 33        -0.00207
       5 <- 35         0.00236
       5 <- 40        -0.00096
       5 <- 42        -0.00084
       5 <- 49         0.00018
       5 <- 51        -0.00078
       6 <- 10         0.08238
       6 <- 11         0.01721
       6 <- 14        -0.02285
       6 <- 15        -0.01345
       6 <- 17        -0.00965
       6 <- 20        -0.00275
       6 <- 21         0.00430
       6 <- 24        -0.00566
       6 <- 26        -0.00189
       6 <- 30        -0.00328
       6 <- 32         0.00355
       6 <- 34        -0.00157
       6 <- 36        -0.00013
       6 <- 39         0.00118
       6 <- 41        -0.00013
       6 <- 43         0.00069
       6 <- 45        -0.00064
       6 <- 47         0.00048
       6 <- 50         0.00046
       6 <- 54        -0.00085
       7 <-  9        -0.13088
       7 <- 13         0.00386
       7 <- 18        -0.01169
       7 <- 23         0.00109
       7 <- 28        -0.00195
       7 <- 31        -0.00159
       7 <- 37         0.00061
       7 <- 44        -0.00076
       7 <- 48        -0.00040
       7 <- 52         0.00097
       8 <- 12        -0.00299
       8 <- 16         0.01934
       8 <- 19        -0.01080
       8 <- 22        -0.00912
       8 <- 25         0.00012
       8 <- 29        -0.00672
       8 <- 33         0.00085
       8 <- 35        -0.00069
       8 <- 40         0.00029
       8 <- 42         0.00023
       8 <- 51         0.00013
       8 <- 53        -0.00049

 Excited State   3:      Singlet-B2     3.9805 eV  311.48 nm  f=0.0031  <S**2>=0.000
       3 -> 12        -0.00128
       3 -> 16         0.00144
       3 -> 19        -0.00411
       3 -> 22         0.00101
       3 -> 25        -0.00085
       3 -> 29        -0.00275
       3 -> 33         0.00017
       3 -> 35         0.00157
       3 -> 40        -0.00141
       3 -> 42        -0.00052
       3 -> 49        -0.00375
       3 -> 51         0.00018
       3 -> 53         0.00029
       4 -> 12         0.00042
       4 -> 16        -0.00165
       4 -> 19         0.00040
       4 -> 22         0.00195
       4 -> 25         0.00076
       4 -> 29         0.00101
       4 -> 33        -0.00036
       4 -> 35         0.00045
       4 -> 40         0.00032
       4 -> 42         0.00012
       4 -> 49         0.00071
       4 -> 51        -0.00011
       5 -> 10         0.01055
       5 -> 11         0.00164
       5 -> 14        -0.00424
       5 -> 15         0.00351
       5 -> 17        -0.00047
       5 -> 20         0.00203
       5 -> 21         0.00351
       5 -> 24         0.00151
       5 -> 26        -0.00069
       5 -> 30        -0.00206
       5 -> 32        -0.00156
       5 -> 34         0.00037
       5 -> 39        -0.00074
       5 -> 41         0.00046
       5 -> 47        -0.00047
       5 -> 50         0.00030
       5 -> 54        -0.00021
       6 -> 12         0.00255
       6 -> 16        -0.00265
       6 -> 19         0.00404
       6 -> 22        -0.00058
       6 -> 25         0.00110
       6 -> 35        -0.00139
       6 -> 40         0.00098
       6 -> 42         0.00068
       6 -> 49         0.00134
       6 -> 53        -0.00045
       7 -> 27        -0.00058
       7 -> 38         0.00040
       7 -> 46         0.00324
       8 -> 10         0.70066
       8 -> 11         0.07226
       8 -> 14        -0.06483
       8 -> 15        -0.02565
       8 -> 17        -0.01647
       8 -> 20         0.00395
       8 -> 21         0.00653
       8 -> 24        -0.00617
       8 -> 26        -0.00475
       8 -> 30        -0.01261
       8 -> 32        -0.00248
       8 -> 34         0.00136
       8 -> 36         0.00120
       8 -> 39        -0.00062
       8 -> 41        -0.00014
       8 -> 45        -0.00090
       8 -> 47        -0.00401
       8 -> 50         0.00162
       8 -> 54        -0.00237
       3 <- 12        -0.00045
       3 <- 16         0.00048
       3 <- 19        -0.00201
       3 <- 22         0.00095
       3 <- 25        -0.00076
       3 <- 29        -0.00111
       3 <- 33         0.00017
       3 <- 35         0.00108
       3 <- 40        -0.00122
       3 <- 42        -0.00039
       3 <- 49        -0.00381
       3 <- 51         0.00017
       3 <- 53         0.00077
       4 <- 16        -0.00180
       4 <- 19         0.00017
       4 <- 22         0.00221
       4 <- 25         0.00045
       4 <- 29         0.00119
       4 <- 33        -0.00039
       4 <- 35         0.00066
       4 <- 40         0.00013
       4 <- 49         0.00051
       5 <- 10        -0.00089
       5 <- 11        -0.00078
       5 <- 14        -0.00054
       5 <- 15         0.00273
       5 <- 17         0.00020
       5 <- 20         0.00077
       5 <- 21         0.00175
       5 <- 24         0.00176
       5 <- 26        -0.00017
       5 <- 30        -0.00044
       5 <- 32        -0.00032
       5 <- 39        -0.00032
       5 <- 41         0.00049
       5 <- 45        -0.00025
       5 <- 47        -0.00046
       5 <- 50         0.00016
       6 <- 12        -0.00062
       6 <- 16         0.00746
       6 <- 19        -0.00387
       6 <- 22        -0.00509
       6 <- 25         0.00113
       6 <- 29        -0.00596
       6 <- 33         0.00026
       6 <- 35        -0.00125
       6 <- 40         0.00099
       6 <- 42         0.00072
       6 <- 49         0.00179
       6 <- 53        -0.00138
       7 <- 27        -0.00057
       7 <- 38         0.00033
       7 <- 46         0.00278
       8 <- 10        -0.03847
       8 <- 11        -0.00788
       8 <- 14         0.00831
       8 <- 15         0.00234
       8 <- 17         0.00165
       8 <- 20        -0.00311
       8 <- 21        -0.00152
       8 <- 24         0.00158
       8 <- 26         0.00136
       8 <- 30         0.00103
       8 <- 32         0.00302
       8 <- 34        -0.00091
       8 <- 36        -0.00072
       8 <- 39         0.00121
       8 <- 41         0.00026
       8 <- 43         0.00046
       8 <- 45        -0.00166
       8 <- 47        -0.00327
       8 <- 50         0.00124
       8 <- 54        -0.00064

 Excited State   4:      Singlet-B1     4.0352 eV  307.25 nm  f=0.0005  <S**2>=0.000
       3 ->  9        -0.02384
       3 -> 13         0.00094
       3 -> 18        -0.00379
       3 -> 23         0.00127
       3 -> 28        -0.00089
       3 -> 31        -0.00070
       3 -> 37         0.00014
       3 -> 44         0.00033
       3 -> 48         0.00051
       3 -> 52         0.00075
       4 ->  9         0.00793
       4 -> 13        -0.00182
       4 -> 18         0.00014
       4 -> 23        -0.00164
       4 -> 28         0.00050
       4 -> 31        -0.00123
       4 -> 37        -0.00027
       4 -> 48        -0.00057
       4 -> 52        -0.00033
       5 -> 27        -0.00015
       5 -> 38         0.00160
       5 -> 46         0.00049
       6 ->  9         0.67144
       6 -> 13        -0.01698
       6 -> 18         0.01426
       6 -> 23        -0.01013
       6 -> 28         0.00360
       6 -> 31         0.00224
       6 -> 37        -0.00151
       6 -> 44        -0.00188
       6 -> 48         0.00342
       6 -> 52         0.00100
       7 -> 10         0.22455
       7 -> 11         0.02699
       7 -> 14        -0.02557
       7 -> 15        -0.00850
       7 -> 17        -0.00987
       7 -> 20         0.00374
       7 -> 21         0.00166
       7 -> 24        -0.00276
       7 -> 26        -0.00290
       7 -> 30        -0.00480
       7 -> 32         0.00010
       7 -> 34        -0.00057
       7 -> 36         0.00143
       7 -> 39         0.00018
       7 -> 41        -0.00020
       7 -> 43         0.00048
       7 -> 45        -0.00057
       7 -> 47         0.00362
       7 -> 50         0.00122
       7 -> 54        -0.00015
       8 -> 27         0.00012
       8 -> 46         0.00444
       3 <-  9        -0.00801
       3 <- 13        -0.00083
       3 <- 18        -0.00254
       3 <- 23        -0.00053
       3 <- 28        -0.00049
       3 <- 31        -0.00076
       3 <- 37         0.00016
       3 <- 48         0.00061
       3 <- 52         0.00070
       4 <-  9         0.00507
       4 <- 13        -0.00032
       4 <- 18         0.00146
       4 <- 23        -0.00062
       4 <- 28         0.00143
       4 <- 31        -0.00086
       4 <- 37        -0.00016
       4 <- 44        -0.00013
       4 <- 48        -0.00051
       4 <- 52        -0.00017
       5 <- 27        -0.00058
       5 <- 38         0.00139
       5 <- 46         0.00043
       6 <-  9        -0.03922
       6 <- 13         0.00210
       6 <- 18        -0.00473
       6 <- 23         0.00014
       6 <- 28        -0.00398
       6 <- 37        -0.00122
       6 <- 44        -0.00056
       6 <- 48         0.00308
       7 <- 10        -0.04536
       7 <- 11        -0.00932
       7 <- 14         0.01343
       7 <- 15         0.00850
       7 <- 17         0.00294
       7 <- 20         0.00293
       7 <- 21        -0.00340
       7 <- 24         0.00410
       7 <- 26         0.00177
       7 <- 30         0.00201
       7 <- 32         0.00034
       7 <- 34        -0.00095
       7 <- 36         0.00141
       7 <- 39         0.00059
       7 <- 41         0.00015
       7 <- 43         0.00027
       7 <- 45        -0.00032
       7 <- 47         0.00336
       7 <- 50         0.00132
       7 <- 54         0.00083
       8 <- 27         0.00058
       8 <- 38         0.00012
       8 <- 46         0.00415

 Excited State   5:      Singlet-B1     4.7877 eV  258.96 nm  f=0.0071  <S**2>=0.000
       3 ->  9        -0.00592
       3 -> 13         0.00024
       3 -> 18        -0.00217
       3 -> 23         0.00048
       3 -> 28        -0.00266
       3 -> 31        -0.00146
       3 -> 37         0.00011
       3 -> 44         0.00020
       3 -> 48        -0.00301
       3 -> 52        -0.00018
       4 ->  9        -0.03069
       4 -> 13         0.00602
       4 -> 18         0.00096
       4 -> 23         0.00464
       4 -> 28         0.00118
       4 -> 31         0.00027
       4 -> 37         0.00033
       4 -> 44        -0.00044
       4 -> 48         0.00083
       4 -> 52         0.00016
       5 -> 27        -0.00649
       5 -> 38        -0.00340
       5 -> 46         0.00023
       6 ->  9        -0.22443
       6 -> 13         0.00161
       6 -> 18         0.00044
       6 -> 23         0.00150
       6 -> 28         0.00289
       6 -> 31        -0.00386
       6 -> 37         0.00233
       6 -> 44         0.00071
       6 -> 48        -0.00020
       6 -> 52        -0.00078
       7 -> 10         0.66482
       7 -> 11         0.05935
       7 -> 14        -0.05626
       7 -> 15        -0.03135
       7 -> 17        -0.00907
       7 -> 20        -0.00260
       7 -> 21         0.00337
       7 -> 24        -0.00936
       7 -> 26        -0.00594
       7 -> 30        -0.00728
       7 -> 32        -0.00162
       7 -> 34         0.00371
       7 -> 36        -0.00140
       7 -> 39        -0.00063
       7 -> 43         0.00055
       7 -> 45        -0.00094
       7 -> 47         0.00095
       7 -> 50         0.00044
       7 -> 54        -0.00166
       8 -> 27         0.00067
       8 -> 38         0.00021
       8 -> 46         0.00116
       3 <-  9        -0.00118
       3 <- 13         0.00070
       3 <- 18        -0.00079
       3 <- 23         0.00061
       3 <- 28        -0.00180
       3 <- 31        -0.00018
       3 <- 37        -0.00023
       3 <- 48        -0.00315
       3 <- 52         0.00027
       4 <-  9        -0.01331
       4 <- 13         0.00277
       4 <- 18         0.00024
       4 <- 23         0.00273
       4 <- 28         0.00113
       4 <- 31         0.00010
       4 <- 37         0.00036
       4 <- 44        -0.00063
       4 <- 48         0.00042
       4 <- 52         0.00013
       5 <- 27        -0.00464
       5 <- 38        -0.00276
       5 <- 46         0.00024
       6 <-  9        -0.02785
       6 <- 13        -0.00016
       6 <- 18        -0.00350

 The electronic state is 1-A1.
 Alpha  occ. eigenvalues --  -19.17702 -10.33836  -0.89517  -0.71273  -0.49189
 Alpha  occ. eigenvalues --   -0.39184  -0.30929  -0.28738
 Alpha virt. eigenvalues --   -0.16935  -0.06582   0.00018   0.04049   0.06094
 Alpha virt. eigenvalues --    0.06549   0.11843   0.13425   0.18758   0.21051
 Alpha virt. eigenvalues --    0.23960   0.30392   0.38551   0.39715   0.50668

 Mulliken charges:
               1
     1  C   -0.094316
     2  H    0.191404
     3  H    0.191404
     4  O   -0.288493
 Sum of Mulliken charges =  -0.00000

 Dipole moment (field-independent basis, Debye):
    X=             -0.0000    Y=              0.0000    Z=             -4.1387  Tot=              4.1387
 Quadrupole moment (field-independent basis, Debye-Ang):
   XX=            -13.0155   YY=            -12.0249   ZZ=            -10.7085
   XY=              0.0000   XZ=              0.0000   YZ=              0.0000

 Normal termination of Gaussian 16 at Fri Sep 17 10:53:08 2021.
