 Gaussian 16, Revision A.03,
 Gaussian 16:  ES64L-G16RevA.03 25-Dec-2016

 --------------------------------------------------------------------
 #p B3LYP/6-311+G** #p TD=(singlets,nstates=30)IOp(6/8=3) IOp(9/40=4)
 --------------------------------------------------------------------

 ---------------------------------------------
 Scan Step 251, Bond Length 1.7550000000000001
 ---------------------------------------------
 Symbolic Z-matrix:
 Charge =  0 Multiplicity = 1

                         Standard orientation:
 ---------------------------------------------------------------------
 Center     Atomic      Atomic             Coordinates (Angstroms)
 Number     Number       Type             X           Y           Z
 ---------------------------------------------------------------------
      1          6           0        0.000000    0.000000   -0.803581
      2          1           0        0.000000    0.937260   -1.394931
      3          1           0       -0.000000   -0.937260   -1.394931
      4          8           0        0.000000   -0.000000    0.951419
 ---------------------------------------------------------------------

 SCF Done:  E(RB3LYP) =  -114.371799276     A.U. after   11 cycles

 Excitation energies and oscillator strengths:

 Excited State   1:      Singlet-A2     1.4846 eV  835.12 nm  f=0.0000  <S**2>=0.000
       3 -> 27         0.00084
       3 -> 38         0.00056
       3 -> 46         0.00336
       4 -> 27         0.00047
       4 -> 46        -0.00108
       5 ->  9         0.00323
       5 -> 13         0.00111
       5 -> 18         0.00204
       5 -> 23         0.00149
       5 -> 28         0.00165
       5 -> 37         0.00091
       5 -> 44         0.00025
       5 -> 52         0.00022
       6 -> 27        -0.00060
       6 -> 38        -0.00063
       6 -> 46         0.00107
       7 -> 12        -0.00115
       7 -> 16         0.00516
       7 -> 19        -0.00447
       7 -> 22        -0.00105
       7 -> 25        -0.00068
       7 -> 29        -0.00180
       7 -> 33         0.00030
       7 -> 49         0.00013
       7 -> 51         0.00010
       7 -> 53         0.00040
       8 ->  9         0.70997
       8 -> 13        -0.00853
       8 -> 18         0.02112
       8 -> 23        -0.00162
       8 -> 28         0.01062
       8 -> 31         0.00152
       8 -> 37         0.00053
       8 -> 48        -0.00031
       8 -> 52         0.00189
       3 <- 27         0.00029
       3 <- 38         0.00032
       3 <- 46         0.00339
       4 <- 27         0.00086
       4 <- 38         0.00021
       4 <- 46        -0.00086
       5 <-  9         0.00016
       5 <- 13        -0.00039
       5 <- 18        -0.00047
       5 <- 23         0.00019
       5 <- 28        -0.00034
       5 <- 31         0.00026
       5 <- 37         0.00053
       6 <- 38        -0.00049
       6 <- 46         0.00080
       7 <- 12         0.00143
       7 <- 16        -0.01048
       7 <- 19         0.00500
       7 <- 22         0.00617
       7 <- 25        -0.00062
       7 <- 29         0.00554
       7 <- 33        -0.00038
       7 <- 35         0.00033
       7 <- 40        -0.00022
       7 <- 42         0.00015
       7 <- 49        -0.00047
       7 <- 53         0.00146
       8 <-  9        -0.06714
       8 <- 13        -0.00016
       8 <- 18        -0.00740
       8 <- 23        -0.00019
       8 <- 28        -0.00266
       8 <- 31        -0.00076
       8 <- 37        -0.00027
       8 <- 48         0.00012
       8 <- 52         0.00047
 This state for optimization and/or second-order correction.
 Total Energy, E(TD-HF/TD-DFT) =  -114.317240468
 Copying the excited state density for this state as the 1-particle RhoCI density.

 Excited State   2:      Singlet-A1     3.8925 eV  318.52 nm  f=0.0426  <S**2>=0.000
       3 -> 10        -0.01696
       3 -> 11        -0.00500
       3 -> 14         0.00357
       3 -> 15         0.00122
       3 -> 17        -0.00324
       3 -> 20        -0.00382
       3 -> 24         0.00105
       3 -> 26         0.00206
       3 -> 30        -0.00112
       3 -> 32         0.00276
       3 -> 34        -0.00135
       3 -> 36        -0.00112
       3 -> 39         0.00055
       3 -> 43         0.00053
       3 -> 45         0.00071
       3 -> 47         0.00230
       3 -> 50         0.00141
       4 -> 10        -0.00365
       4 -> 11         0.01189
       4 -> 14         0.00267
       4 -> 15        -0.00860
       4 -> 17         0.00256
       4 -> 20         0.00300
       4 -> 21         0.00034
       4 -> 24        -0.00413
       4 -> 26         0.00391
       4 -> 30         0.00068
       4 -> 32        -0.00133
       4 -> 34         0.00101
       4 -> 36         0.00028
       4 -> 39         0.00011
       4 -> 41         0.00010
       4 -> 43        -0.00051
       4 -> 45        -0.00080
       4 -> 47        -0.00090
       4 -> 50        -0.00031
       4 -> 54         0.00015
       5 -> 12         0.01184
       5 -> 16         0.00478
       5 -> 19         0.00130
       5 -> 22         0.00729
       5 -> 25        -0.00573
       5 -> 29         0.00027
       5 -> 33        -0.00262
       5 -> 35         0.00277
       5 -> 40        -0.00118
       5 -> 42         0.00088
       5 -> 49         0.00025
       5 -> 51        -0.00080
       6 -> 10         0.23009
       6 -> 11         0.05297
       6 -> 14        -0.05925
       6 -> 15        -0.03097
       6 -> 17        -0.01730
       6 -> 20        -0.00386
       6 -> 21         0.00774
       6 -> 24        -0.00971
       6 -> 26        -0.00424
       6 -> 30        -0.00581
       6 -> 32         0.00274
       6 -> 34        -0.00140
       6 -> 36         0.00017
       6 -> 39         0.00118
       6 -> 41        -0.00019
       6 -> 43         0.00085
       6 -> 45         0.00083
       6 -> 47         0.00091
       6 -> 50         0.00067
       6 -> 54        -0.00089
       7 ->  9         0.67887
       7 -> 13        -0.00512
       7 -> 18        -0.01283
       7 -> 23        -0.00197
       7 -> 28         0.00052
       7 -> 31        -0.00324
       7 -> 37         0.00123
       7 -> 44        -0.00099
       7 -> 48         0.00018
       7 -> 52         0.00106
       8 -> 12        -0.00785
       8 -> 16         0.04576
       8 -> 19        -0.02049
       8 -> 22        -0.01657
       8 -> 29        -0.00928
       8 -> 33         0.00127
       8 -> 35        -0.00119
       8 -> 40         0.00053
       8 -> 42        -0.00033
       8 -> 49         0.00029
       8 -> 51         0.00017
       8 -> 53        -0.00056
       3 <- 10        -0.01271
       3 <- 11        -0.00411
       3 <- 14         0.00289
       3 <- 15         0.00055
       3 <- 17        -0.00180
       3 <- 20        -0.00312
       3 <- 21        -0.00037
       3 <- 24         0.00044
       3 <- 26         0.00097
       3 <- 30        -0.00061
       3 <- 32         0.00247
       3 <- 34        -0.00075
       3 <- 36        -0.00105
       3 <- 39         0.00051
       3 <- 43         0.00060
       3 <- 45         0.00088
       3 <- 47         0.00233
       3 <- 50         0.00140
       3 <- 54         0.00012
       4 <- 10        -0.00117
       4 <- 11         0.00824
       4 <- 14         0.00176
       4 <- 15        -0.00563
       4 <- 17         0.00146
       4 <- 20         0.00317
       4 <- 21         0.00018
       4 <- 24        -0.00304
       4 <- 26         0.00334
       4 <- 32        -0.00151
       4 <- 34         0.00085
       4 <- 36         0.00056
       4 <- 43        -0.00047
       4 <- 45        -0.00079
       4 <- 47        -0.00056
       4 <- 50        -0.00017
       4 <- 54         0.00011
       5 <- 12         0.00652
       5 <- 16         0.00291
       5 <- 19         0.00099
       5 <- 22         0.00501
       5 <- 25        -0.00429
       5 <- 29         0.00031
       5 <- 33        -0.00214
       5 <- 35         0.00235
       5 <- 40        -0.00106
       5 <- 42         0.00076
       5 <- 49         0.00023
       5 <- 51        -0.00075
       6 <- 10         0.07611
       6 <- 11         0.02021
       6 <- 14        -0.02675
       6 <- 15        -0.01541
       6 <- 17        -0.00978
       6 <- 20        -0.00356
       6 <- 21         0.00506
       6 <- 24        -0.00628
       6 <- 26        -0.00233
       6 <- 30        -0.00405
       6 <- 32         0.00291
       6 <- 34        -0.00160
       6 <- 36        -0.00032
       6 <- 39         0.00111
       6 <- 41        -0.00016
       6 <- 43         0.00071
       6 <- 45         0.00064
       6 <- 47         0.00053
       6 <- 50         0.00053
       6 <- 54        -0.00080
       7 <-  9        -0.13027
       7 <- 13         0.00466
       7 <- 18        -0.01226
       7 <- 23         0.00160
       7 <- 28        -0.00237
       7 <- 31        -0.00158
       7 <- 37         0.00056
       7 <- 44        -0.00073
       7 <- 48        -0.00035
       7 <- 52         0.00096
       8 <- 12        -0.00276
       8 <- 16         0.02069
       8 <- 19        -0.01085
       8 <- 22        -0.01033
       8 <- 29        -0.00721
       8 <- 33         0.00099
       8 <- 35        -0.00093
       8 <- 40         0.00043
       8 <- 42        -0.00027
       8 <- 49         0.00013
       8 <- 51         0.00014
       8 <- 53        -0.00052

 Excited State   3:      Singlet-B1     4.3550 eV  284.70 nm  f=0.0008  <S**2>=0.000
       3 ->  9        -0.02505
       3 -> 13         0.00109
       3 -> 18        -0.00392
       3 -> 23         0.00135
       3 -> 28        -0.00079
       3 -> 31        -0.00058
       3 -> 37         0.00011
       3 -> 44         0.00029
       3 -> 48         0.00081
       3 -> 52         0.00082
       4 ->  9         0.01031
       4 -> 13        -0.00225
       4 -> 18         0.00013
       4 -> 23        -0.00202
       4 -> 28         0.00040
       4 -> 31        -0.00131
       4 -> 37        -0.00032
       4 -> 48        -0.00074
       4 -> 52        -0.00040
       5 -> 27         0.00011
       5 -> 38         0.00185
       5 -> 46         0.00056
       6 ->  9         0.69139
       6 -> 13        -0.01772
       6 -> 18         0.01486
       6 -> 23        -0.01040
       6 -> 28         0.00363
       6 -> 31         0.00260
       6 -> 37        -0.00175
       6 -> 44        -0.00215
       6 -> 48         0.00363
       6 -> 52         0.00115
       7 -> 10         0.14931
       7 -> 11         0.02556
       7 -> 14        -0.02303
       7 -> 15        -0.00685
       7 -> 17        -0.00923
       7 -> 20         0.00354
       7 -> 21         0.00123
       7 -> 24        -0.00190
       7 -> 26        -0.00240
       7 -> 30        -0.00418
       7 -> 32        -0.00013
       7 -> 34        -0.00082
       7 -> 36         0.00154
       7 -> 39         0.00018
       7 -> 41        -0.00026
       7 -> 43         0.00048
       7 -> 45         0.00038
       7 -> 47         0.00375
       7 -> 50         0.00122
       8 -> 27         0.00017
       8 -> 46         0.00463
       3 <-  9        -0.00845
       3 <- 13        -0.00084
       3 <- 18        -0.00261
       3 <- 23        -0.00059
       3 <- 28        -0.00044
       3 <- 31        -0.00075
       3 <- 37         0.00015
       3 <- 48         0.00093
       3 <- 52         0.00071
       4 <-  9         0.00606
       4 <- 13        -0.00042
       4 <- 18         0.00157
       4 <- 23        -0.00074
       4 <- 28         0.00143
       4 <- 31        -0.00090
       4 <- 37        -0.00020
       4 <- 48        -0.00065
       4 <- 52        -0.00022
       5 <- 27        -0.00042
       5 <- 38         0.00157
       5 <- 46         0.00049
       6 <-  9        -0.03356
       6 <- 13         0.00194
       6 <- 18        -0.00415
       6 <- 28        -0.00380
       6 <- 31         0.00051
       6 <- 37        -0.00146
       6 <- 44        -0.00085
       6 <- 48         0.00325
       6 <- 52         0.00021
       7 <- 10        -0.03722
       7 <- 11        -0.00979
       7 <- 14         0.01403
       7 <- 15         0.00915
       7 <- 17         0.00255
       7 <- 20         0.00365
       7 <- 21        -0.00357
       7 <- 24         0.00425
       7 <- 26         0.00172
       7 <- 30         0.00176
       7 <- 32         0.00035
       7 <- 34        -0.00108
       7 <- 36         0.00182
       7 <- 39         0.00056
       7 <- 43         0.00029
       7 <- 45         0.00016
       7 <- 47         0.00348
       7 <- 50         0.00126
       7 <- 54         0.00093
       8 <- 27         0.00064
       8 <- 38         0.00014
       8 <- 46         0.00434

 Excited State   4:      Singlet-B2     4.4699 eV  277.38 nm  f=0.0044  <S**2>=0.000
       3 -> 12        -0.00136
       3 -> 16         0.00166
       3 -> 19        -0.00435
       3 -> 22         0.00093
       3 -> 25        -0.00080
       3 -> 29        -0.00297
       3 -> 35         0.00178
       3 -> 40        -0.00158
       3 -> 42         0.00050
       3 -> 49        -0.00357
       3 -> 51         0.00019
       3 -> 53         0.00030
       4 -> 12         0.00045
       4 -> 16        -0.00189
       4 -> 19         0.00043
       4 -> 22         0.00220
       4 -> 25         0.00096
       4 -> 29         0.00116
       4 -> 33        -0.00040
       4 -> 35         0.00048
       4 -> 40         0.00038
       4 -> 42        -0.00011
       4 -> 49         0.00068
       4 -> 51        -0.00012
       5 -> 10         0.01092
       5 -> 11         0.00228
       5 -> 14        -0.00557
       5 -> 15         0.00391
       5 -> 17        -0.00037
       5 -> 20         0.00210
       5 -> 21         0.00409
       5 -> 24         0.00162
       5 -> 26        -0.00092
       5 -> 30        -0.00199
       5 -> 32        -0.00183
       5 -> 34         0.00054
       5 -> 39        -0.00084
       5 -> 41         0.00052
       5 -> 47        -0.00056
       5 -> 50         0.00035
       5 -> 54        -0.00022
       6 -> 12         0.00267
       6 -> 16        -0.00249
       6 -> 19         0.00389
       6 -> 22        -0.00052
       6 -> 25         0.00106
       6 -> 29        -0.00014
       6 -> 35        -0.00158
       6 -> 40         0.00120
       6 -> 42        -0.00066
       6 -> 49         0.00147
       6 -> 53        -0.00044
       7 -> 27        -0.00062
       7 -> 38         0.00049
       7 -> 46         0.00346
       8 -> 10         0.69569
       8 -> 11         0.09659
       8 -> 14        -0.07946
       8 -> 15        -0.03098
       8 -> 17        -0.01635
       8 -> 20         0.00273
       8 -> 21         0.00710
       8 -> 24        -0.00655
       8 -> 26        -0.00509
       8 -> 30        -0.01199
       8 -> 32        -0.00343
       8 -> 34         0.00158
       8 -> 36         0.00087
       8 -> 39        -0.00071
       8 -> 45         0.00102
       8 -> 47        -0.00428
       8 -> 50         0.00184
       8 -> 54        -0.00227
       3 <- 12        -0.00049
       3 <- 16         0.00053
       3 <- 19        -0.00210
       3 <- 22         0.00096
       3 <- 25        -0.00072
       3 <- 29        -0.00119
       3 <- 35         0.00127
       3 <- 40        -0.00137
       3 <- 42         0.00039
       3 <- 49        -0.00364
       3 <- 51         0.00018
       3 <- 53         0.00082
       4 <- 16        -0.00194
       4 <- 19         0.00014
       4 <- 22         0.00236
       4 <- 25         0.00059
       4 <- 29         0.00126
       4 <- 33        -0.00044
       4 <- 35         0.00070
       4 <- 40         0.00015
       4 <- 49         0.00048
       5 <- 10        -0.00080
       5 <- 11        -0.00097
       5 <- 14        -0.00064
       5 <- 15         0.00303
       5 <- 17         0.00020
       5 <- 20         0.00076
       5 <- 21         0.00188
       5 <- 24         0.00194
       5 <- 26        -0.00024
       5 <- 30        -0.00043
       5 <- 32        -0.00031
       5 <- 39        -0.00034
       5 <- 41         0.00055
       5 <- 45         0.00029
       5 <- 47        -0.00054
       5 <- 50         0.00019
       6 <- 12        -0.00044
       6 <- 16         0.00708
       6 <- 19        -0.00351
       6 <- 22        -0.00496
       6 <- 25         0.00099
       6 <- 29        -0.00576
       6 <- 33         0.00034
       6 <- 35        -0.00149
       6 <- 40         0.00122
       6 <- 42        -0.00072
       6 <- 49         0.00185
       6 <- 53        -0.00133
       7 <- 27        -0.00061
       7 <- 38         0.00040
       7 <- 46         0.00294
       8 <- 10        -0.03270
       8 <- 11        -0.00870
       8 <- 14         0.00926
       8 <- 15         0.00256
       8 <- 17         0.00127
       8 <- 20        -0.00295
       8 <- 21        -0.00174
       8 <- 24         0.00161
       8 <- 26         0.00154
       8 <- 30         0.00033
       8 <- 32         0.00306
       8 <- 34        -0.00102
       8 <- 36        -0.00062
       8 <- 39         0.00135
       8 <- 41         0.00033
       8 <- 43         0.00049
       8 <- 45         0.00180
       8 <- 47        -0.00343
       8 <- 50         0.00131
       8 <- 54        -0.00061

 Excited State   5:      Singlet-B1     5.3438 eV  232.01 nm  f=0.0076  <S**2>=0.000
       3 ->  9        -0.00959
       3 -> 13         0.00047
       3 -> 18        -0.00266
       3 -> 23         0.00069
       3 -> 28        -0.00297
       3 -> 31        -0.00157
       3 -> 37         0.00011
       3 -> 44         0.00035
       3 -> 48        -0.00274
       3 -> 52        -0.00011
       4 ->  9        -0.03177
       4 -> 13         0.00613
       4 -> 18         0.00114
       4 -> 23         0.00461
       4 -> 28         0.00148
       4 -> 37         0.00033
       4 -> 44        -0.00046
       4 -> 48         0.00073
       4 -> 52         0.00014
       5 -> 27        -0.00682
       5 -> 38        -0.00326
       5 -> 46         0.00034
       6 ->  9        -0.15051
       6 -> 13        -0.00060
       6 -> 18         0.00152
       6 -> 23         0.00026
       6 -> 28         0.00320
       6 -> 31        -0.00372
       6 -> 37         0.00215
       6 -> 44         0.00044
       6 -> 48         0.00030
       6 -> 52        -0.00067
       7 -> 10         0.68126
       7 -> 11         0.08210
       7 -> 14        -0.07100
       7 -> 15        -0.03692
       7 -> 17        -0.00972
       7 -> 20        -0.00335
       7 -> 21         0.00375
       7 -> 24        -0.00986
       7 -> 26        -0.00666
       7 -> 30        -0.00714
       7 -> 32        -0.00200
       7 -> 34         0.00387
       7 -> 36        -0.00153
       7 -> 39        -0.00064
       7 -> 43         0.00061
       7 -> 45         0.00097
       7 -> 47         0.00144
       7 -> 50         0.00071
       7 -> 54        -0.00157
       8 -> 27         0.00082
       8 -> 38         0.00024
       8 -> 46         0.00174
       3 <-  9        -0.00207
       3 <- 13         0.00066
       3 <- 18        -0.00105
       3 <- 23         0.00059
       3 <- 28        -0.00194
       3 <- 31        -0.00026
       3 <- 37        -0.00021
       3 <- 44         0.00012
       3 <- 48        -0.00290
       3 <- 52         0.00035
       4 <-  9        -0.01237
       4 <- 13         0.00265
       4 <- 18         0.00039
       4 <- 23         0.00256
       4 <- 28         0.00142
       4 <- 37         0.00038
       4 <- 44        -0.00067
       4 <- 48         0.00032
       4 <- 52         0.00012
       5 <- 27        -0.00475
       5 <- 38        -0.00258
       5 <- 46         0.00033
       6 <-  9        -0.02790
       6 <- 18        -0.00373
       6 <- 23         0.00050
       6 <- 28        -0.00050
       6 <- 31        -0.00446
       6 <- 37         0.00195
       6 <- 44         0.00060
       6 <- 48         0.00080

 The electronic state is 1-A1.
 Alpha  occ. eigenvalues --  -19.17618 -10.33598  -0.90165  -0.70935  -0.49089
 Alpha  occ. eigenvalues --   -0.39765  -0.31373  -0.28802
 Alpha virt. eigenvalues --   -0.16424  -0.05125   0.00181   0.04058   0.06100
 Alpha virt. eigenvalues --    0.06865   0.12015   0.13648   0.18814   0.21135
 Alpha virt. eigenvalues --    0.23978   0.30350   0.38628   0.40002   0.50753

 Mulliken charges:
               1
     1  C   -0.087049
     2  H    0.189300
     3  H    0.189300
     4  O   -0.291551
 Sum of Mulliken charges =   0.00000

 Dipole moment (field-independent basis, Debye):
    X=             -0.0000    Y=              0.0000    Z=             -4.0528  Tot=              4.0528
 Quadrupole moment (field-independent basis, Debye-Ang):
   XX=            -12.9603   YY=            -11.9924   ZZ=            -10.8555
   XY=              0.0000   XZ=              0.0000   YZ=              0.0000

 Normal termination of Gaussian 16 at Fri Sep 17 10:53:06 2021.
