 Gaussian 16, Revision C.01,
 Gaussian 16:  ES64L-G16RevC.01  3-Jul-2019

 ----------------------------------------
 #P wB97XD/6-311+G* NoSymm #P Field=Y-145
 ----------------------------------------

 -------
 TitleMe
 -------
 Symbolic Z-matrix:
 Charge =  1 Multiplicity = 1

                          Input orientation:
 ---------------------------------------------------------------------
 Center     Atomic      Atomic             Coordinates (Angstroms)
 Number     Number       Type             X           Y           Z
 ---------------------------------------------------------------------
      1          6           0        0.029500    1.339700    0.068200
      2          6           0        1.434800    1.286700    0.006400
      3          6           0        2.111800    0.051100   -0.005400
      4          6           0        1.445100   -1.137200    0.031200
      5          6           0       -0.687900    0.168200    0.110000
      6          1           0       -0.471300    2.298400    0.078100
      7          1           0        2.027300    2.196500   -0.032200
      8          1           0        1.989700   -2.076400    0.023200
      9          1           0       -1.771600    0.180400    0.158200
     10          7           0        3.586400    0.051000   -0.067500
     11          8           0        4.147100   -1.059700   -0.088100
     12          8           0        4.145000    1.163900   -0.090100
     13          6           0       -0.023600   -1.145800    0.083500
     14          1           0       -0.436700   -1.872500    0.788900
     15         35           0       -0.535900   -1.869700   -1.740800
 ---------------------------------------------------------------------

 SCF Done:  E(RwB97XD) =  -3010.54388052     A.U. after   19 cycles

 Alpha  occ. eigenvalues -- -483.33512 -62.88563 -56.68220 -56.67698 -56.67696
 Alpha  occ. eigenvalues --  -19.46315 -19.45968 -14.85607 -10.60176 -10.57829
 Alpha  occ. eigenvalues --  -10.57758 -10.57238 -10.56672 -10.52208  -9.04389
 Alpha  occ. eigenvalues --   -6.86966  -6.85247  -6.85239  -2.96894  -2.96434
 Alpha  occ. eigenvalues --   -2.96427  -2.95051  -2.95051  -1.49897  -1.32865
 Alpha  occ. eigenvalues --   -1.23269  -1.15090  -1.11847  -1.06103  -1.01278
 Alpha  occ. eigenvalues --   -0.96034  -0.91282  -0.85537  -0.81129  -0.80872
 Alpha  occ. eigenvalues --   -0.80298  -0.79077  -0.76320  -0.75957  -0.73215
 Alpha  occ. eigenvalues --   -0.69417  -0.67402  -0.64122  -0.61429  -0.59179
 Alpha  occ. eigenvalues --   -0.57397  -0.56758  -0.56341  -0.55749
 Alpha virt. eigenvalues --   -0.30346  -0.21647  -0.17181  -0.14712  -0.13237
 Alpha virt. eigenvalues --   -0.09988  -0.09929  -0.07243  -0.06012  -0.05332
 Alpha virt. eigenvalues --   -0.04472  -0.04176  -0.02660  -0.02471  -0.01452

 Mulliken charges:
               1
     1  C   -0.545637
     2  C    0.452465
     3  C   -0.647649
     4  C    0.264296
     5  C    0.041803
     6  H    0.391303
     7  H    0.416733
     8  H    0.323462
     9  H    0.355311
    10  N   -0.109317
    11  O   -0.041520
    12  O    0.112045
    13  C   -0.459313
    14  H    0.366487
    15  Br   0.079530
 Sum of Mulliken charges =   1.00000

 Dipole moment (field-independent basis, Debye):
    X=             -0.3133    Y=              3.5823    Z=              0.5136  Tot=              3.6324
 Quadrupole moment (field-independent basis, Debye-Ang):
   XX=            -70.4005   YY=            -54.1445   ZZ=            -63.8738
   XY=              5.9622   XZ=              0.6473   YZ=             -0.2497

 Normal termination of Gaussian 16 at Wed May  1 15:04:39 2024.
