 Gaussian 16, Revision C.01,
 Gaussian 16:  ES64L-G16RevC.01  3-Jul-2019

 ---------------------------------------
 #P wB97XD/6-311+G* NoSymm #P Field=X-68
 ---------------------------------------

 -------
 TitleMe
 -------
 Symbolic Z-matrix:
 Charge =  1 Multiplicity = 1

                          Input orientation:
 ---------------------------------------------------------------------
 Center     Atomic      Atomic             Coordinates (Angstroms)
 Number     Number       Type             X           Y           Z
 ---------------------------------------------------------------------
      1          6           0        0.519300    1.233000   -0.031900
      2          6           0        1.944500    1.269200   -0.036700
      3          6           0        2.620400    0.092800   -0.025000
      4          6           0       -0.196000    0.030100    0.001000
      5          1           0       -0.020700    2.174200   -0.043400
      6          1           0        2.482800    2.208900   -0.036100
      7          1           0       -1.277700    0.039900    0.011700
      8          7           0        4.092100    0.095900    0.036600
      9          8           0        4.639300   -1.021700    0.144600
     10          8           0        4.664900    1.198400   -0.023300
     11          6           0        0.494300   -1.167100    0.021000
     12          1           0       -0.032500   -2.114900    0.054500
     13          6           0        1.962900   -1.216500   -0.021100
     14          1           0        2.443600   -1.963100    0.615100
     15         35           0        2.173000   -1.949100   -1.906200
 ---------------------------------------------------------------------

 SCF Done:  E(RwB97XD) =  -3010.54193946     A.U. after   24 cycles

 Alpha  occ. eigenvalues -- -483.28718 -62.83731 -56.63432 -56.62855 -56.62841
 Alpha  occ. eigenvalues --  -19.41960 -19.41931 -14.81471 -10.56722 -10.55520
 Alpha  occ. eigenvalues --  -10.55330 -10.55045 -10.51173 -10.50714  -8.99530
 Alpha  occ. eigenvalues --   -6.82228  -6.80335  -6.80294  -2.92127  -2.91632
 Alpha  occ. eigenvalues --   -2.91599  -2.90085  -2.90084  -1.45665  -1.28576
 Alpha  occ. eigenvalues --   -1.20087  -1.10611  -1.09921  -1.02305  -0.97545
 Alpha  occ. eigenvalues --   -0.93141  -0.88179  -0.82089  -0.77969  -0.77228
 Alpha  occ. eigenvalues --   -0.76617  -0.75461  -0.73263  -0.72054  -0.69655
 Alpha  occ. eigenvalues --   -0.66629  -0.65341  -0.61233  -0.57365  -0.53742
 Alpha  occ. eigenvalues --   -0.53301  -0.52729  -0.51576  -0.51181
 Alpha virt. eigenvalues --   -0.27755  -0.17319  -0.13111  -0.10252  -0.08659
 Alpha virt. eigenvalues --   -0.05842  -0.04714  -0.03360  -0.02880  -0.01725
 Alpha virt. eigenvalues --   -0.00675   0.00122   0.00772   0.01624   0.02845

 Mulliken charges:
               1
     1  C   -0.103188
     2  C    0.175545
     3  C   -0.035999
     4  C   -0.329387
     5  H    0.327673
     6  H    0.358811
     7  H    0.297121
     8  N   -0.241883
     9  O    0.114708
    10  O    0.102470
    11  C   -0.234807
    12  H    0.339640
    13  C   -0.389293
    14  H    0.419744
    15  Br   0.198846
 Sum of Mulliken charges =   1.00000

 Dipole moment (field-independent basis, Debye):
    X=              4.7225    Y=             -1.0068    Z=             -0.8498  Tot=              4.9028
 Quadrupole moment (field-independent basis, Debye-Ang):
   XX=            -60.3509   YY=            -51.0250   ZZ=            -61.9639
   XY=             -3.4384   XZ=             -3.1027   YZ=              2.6936

 Normal termination of Gaussian 16 at Thu May  2 14:23:40 2024.
