 Gaussian 16, Revision C.01,
 Gaussian 16:  ES64L-G16RevC.01  3-Jul-2019

 ----------------------------------------
 #P wB97XD/6-311+G* NoSymm #P Field=X-272
 ----------------------------------------

 -------
 TitleMe
 -------
 Symbolic Z-matrix:
 Charge =  1 Multiplicity = 1

                          Input orientation:
 ---------------------------------------------------------------------
 Center     Atomic      Atomic             Coordinates (Angstroms)
 Number     Number       Type             X           Y           Z
 ---------------------------------------------------------------------
      1          6           0        0.519300    1.233000   -0.031900
      2          6           0        1.944500    1.269200   -0.036700
      3          6           0        2.620400    0.092800   -0.025000
      4          6           0       -0.196000    0.030100    0.001000
      5          1           0       -0.020700    2.174200   -0.043400
      6          1           0        2.482800    2.208900   -0.036100
      7          1           0       -1.277700    0.039900    0.011700
      8          7           0        4.092100    0.095900    0.036600
      9          8           0        4.639300   -1.021700    0.144600
     10          8           0        4.664900    1.198400   -0.023300
     11          6           0        0.494300   -1.167100    0.021000
     12          1           0       -0.032500   -2.114900    0.054500
     13          6           0        1.962900   -1.216500   -0.021100
     14          1           0        2.443600   -1.963100    0.615100
     15         35           0        2.173000   -1.949100   -1.906200
 ---------------------------------------------------------------------

 SCF Done:  E(RwB97XD) =  -3010.60384383     A.U. after   27 cycles

 Alpha  occ. eigenvalues -- -483.22038 -62.77022 -56.56735 -56.56151 -56.56123
 Alpha  occ. eigenvalues --  -19.29933 -19.29623 -14.69499 -10.49862 -10.49737
 Alpha  occ. eigenvalues --  -10.49445 -10.48540 -10.46953 -10.43542  -8.92799
 Alpha  occ. eigenvalues --   -6.75523  -6.73608  -6.73523  -2.85415  -2.84926
 Alpha  occ. eigenvalues --   -2.84857  -2.83326  -2.83324  -1.33533  -1.16290
 Alpha  occ. eigenvalues --   -1.13822  -1.04448  -1.03135  -0.95547  -0.89880
 Alpha  occ. eigenvalues --   -0.86994  -0.81546  -0.76142  -0.71522  -0.69979
 Alpha  occ. eigenvalues --   -0.67575  -0.66726  -0.65466  -0.62295  -0.60585
 Alpha  occ. eigenvalues --   -0.60202  -0.57888  -0.55407  -0.50434  -0.46605
 Alpha  occ. eigenvalues --   -0.45785  -0.40413  -0.38751  -0.38662
 Alpha virt. eigenvalues --   -0.21347  -0.15087  -0.10345  -0.09470  -0.06612
 Alpha virt. eigenvalues --   -0.05990  -0.03794  -0.00828  -0.00534  -0.00111
 Alpha virt. eigenvalues --    0.01404   0.02745   0.04667   0.04806   0.06183

 Mulliken charges:
               1
     1  C   -0.094531
     2  C    0.116999
     3  C    0.096170
     4  C   -0.263235
     5  H    0.271352
     6  H    0.384976
     7  H    0.185523
     8  N   -0.240817
     9  O    0.194616
    10  O    0.204099
    11  C   -0.379949
    12  H    0.287630
    13  C   -0.461234
    14  H    0.444935
    15  Br   0.253466
 Sum of Mulliken charges =   1.00000

 Dipole moment (field-independent basis, Debye):
    X=             10.8045    Y=             -1.2832    Z=             -1.1461  Tot=             10.9407
 Quadrupole moment (field-independent basis, Debye-Ang):
   XX=            -37.5975   YY=            -50.8550   ZZ=            -61.5441
   XY=             -4.6281   XZ=             -4.7216   YZ=              3.3991

 Normal termination of Gaussian 16 at Thu May  2 14:26:33 2024.
