 Gaussian 16, Revision A.03,
 Gaussian 16:  ES64L-G16RevA.03 25-Dec-2016

 --------------------------------------------------------------------
 #p B3LYP/6-311+G** #p TD=(singlets,nstates=30)IOp(6/8=3) IOp(9/40=4)
 --------------------------------------------------------------------

 ------------------------------
 Scan Step 98, Bond Length 0.99
 ------------------------------
 Symbolic Z-matrix:
 Charge =  0 Multiplicity = 1

                         Standard orientation:
 ---------------------------------------------------------------------
 Center     Atomic      Atomic             Coordinates (Angstroms)
 Number     Number       Type             X           Y           Z
 ---------------------------------------------------------------------
      1          6           0        0.000000   -0.000000   -0.421081
      2          1           0        0.000000    0.937260   -1.012431
      3          1           0       -0.000000   -0.937260   -1.012431
      4          8           0        0.000000    0.000000    0.568919
 ---------------------------------------------------------------------

 SCF Done:  E(RB3LYP) =  -114.425837830     A.U. after    9 cycles

 Excitation energies and oscillator strengths:

 Excited State   1:      Singlet-A2     5.1533 eV  240.59 nm  f=0.0000  <S**2>=0.000
       3 -> 27         0.00299
       3 -> 36         0.00246
       3 -> 46         0.00166
       4 -> 27         0.00306
       4 -> 36        -0.00075
       4 -> 46        -0.00091
       5 ->  9         0.01549
       5 -> 13        -0.00891
       5 -> 17         0.00622
       5 -> 23        -0.00292
       5 -> 28         0.00352
       5 -> 31         0.00271
       5 -> 37         0.00399
       5 -> 43         0.00065
       5 -> 47         0.00010
       5 -> 52         0.00083
       6 -> 12        -0.00062
       6 -> 16         0.00164
       6 -> 18        -0.00127
       6 -> 22         0.00168
       6 -> 24         0.00098
       6 -> 29        -0.00062
       6 -> 33         0.00033
       6 -> 35         0.00053
       6 -> 40        -0.00024
       6 -> 42         0.00041
       6 -> 48         0.00065
       6 -> 50        -0.00017
       6 -> 53         0.00036
       7 -> 27         0.00071
       7 -> 36        -0.00051
       7 -> 46         0.00150
       8 ->  9         0.69882
       8 -> 13        -0.10326
       8 -> 17         0.02712
       8 -> 23        -0.01124
       8 -> 28         0.00637
       8 -> 31         0.00351
       8 -> 37        -0.00178
       8 -> 43        -0.00026
       8 -> 47        -0.00012
       8 -> 52         0.00121
       3 <- 27         0.00213
       3 <- 36         0.00210
       3 <- 46         0.00173
       4 <- 27         0.00375
       4 <- 36        -0.00029
       4 <- 46        -0.00085
       5 <-  9         0.00019
       5 <- 13        -0.00103
       5 <- 17        -0.00042
       5 <- 23         0.00043
       5 <- 28        -0.00030
       5 <- 31        -0.00112
       5 <- 37         0.00179
       5 <- 43         0.00042
       5 <- 47         0.00015
       5 <- 52         0.00021
       6 <- 12        -0.00097
       6 <- 16        -0.00409
       6 <- 18        -0.00238
       6 <- 22         0.00591
       6 <- 24        -0.00116
       6 <- 29         0.00206
       6 <- 33        -0.00117
       6 <- 35         0.00238
       6 <- 40        -0.00038
       6 <- 42         0.00096
       6 <- 48         0.00048
       6 <- 53         0.00096
       7 <- 27         0.00102
       7 <- 36        -0.00052
       7 <- 46         0.00117
       8 <-  9        -0.01409
       8 <- 13         0.00676
       8 <- 17        -0.00388
       8 <- 23         0.00064
       8 <- 28        -0.00045
       8 <- 31         0.00221
       8 <- 37        -0.00219
       8 <- 52         0.00036
 This state for optimization and/or second-order correction.
 Total Energy, E(TD-HF/TD-DFT) =  -114.236457261
 Copying the excited state density for this state as the 1-particle RhoCI density.

 Excited State   2:      Singlet-B2     6.3220 eV  196.11 nm  f=0.0680  <S**2>=0.000
       3 -> 12         0.00106
       3 -> 16         0.00030
       3 -> 18         0.00113
       3 -> 22        -0.00016
       3 -> 24         0.00125
       3 -> 29        -0.00015
       3 -> 35        -0.00018
       3 -> 50        -0.00013
       4 -> 12        -0.00521
       4 -> 18         0.00228
       4 -> 22        -0.00307
       4 -> 24         0.00397
       4 -> 29        -0.00023
       4 -> 33        -0.00090
       4 -> 35         0.00088
       4 -> 40        -0.00029
       4 -> 42         0.00041
       5 -> 10        -0.00066
       5 -> 11        -0.00842
       5 -> 14         0.00622
       5 -> 15        -0.00145
       5 -> 19         0.00345
       5 -> 20        -0.00055
       5 -> 21         0.00381
       5 -> 25         0.00072
       5 -> 26        -0.00175
       5 -> 30         0.00251
       5 -> 32        -0.00027
       5 -> 34        -0.00021
       5 -> 38        -0.00060
       5 -> 39        -0.00024
       5 -> 41         0.00014
       5 -> 44        -0.00050
       5 -> 45        -0.00058
       5 -> 49         0.00028
       6 -> 27         0.00069
       6 -> 46         0.00079
       7 -> 12         0.00175
       7 -> 16        -0.00037
       7 -> 18         0.00427
       7 -> 22        -0.00261
       7 -> 24         0.00202
       7 -> 29        -0.00015
       7 -> 42        -0.00038
       7 -> 48         0.00036
       7 -> 50         0.00051
       8 -> 10         0.70579
       8 -> 11        -0.03415
       8 -> 14        -0.00710
       8 -> 15        -0.01081
       8 -> 19         0.01885
       8 -> 20         0.00946
       8 -> 21        -0.00625
       8 -> 25         0.00084
       8 -> 26        -0.00093
       8 -> 30         0.00034
       8 -> 32         0.00206
       8 -> 34         0.00187
       8 -> 38         0.00064
       8 -> 39         0.00058
       8 -> 41        -0.00020
       8 -> 44         0.00067
       8 -> 45        -0.00095
       8 -> 49         0.00018
       8 -> 54         0.00016
       3 <- 12         0.00032
       3 <- 16         0.00036
       3 <- 18         0.00056
       3 <- 22        -0.00024
       3 <- 24         0.00086
       3 <- 29        -0.00013
       3 <- 35        -0.00018
       4 <- 12         0.00033
       4 <- 16         0.00060
       4 <- 18         0.00276
       4 <- 22        -0.00187
       4 <- 24         0.00291
       4 <- 29        -0.00018
       4 <- 33        -0.00064
       4 <- 35         0.00062
       4 <- 40        -0.00027
       5 <- 10         0.00234
       5 <- 14         0.00470
       5 <- 15        -0.00143
       5 <- 19         0.00086
       5 <- 21         0.00210
       5 <- 25         0.00168
       5 <- 26        -0.00136
       5 <- 30         0.00087
       5 <- 32        -0.00054
       5 <- 34        -0.00028
       5 <- 38        -0.00046
       5 <- 39        -0.00017
       5 <- 41         0.00025
       5 <- 44        -0.00034
       5 <- 45        -0.00049
       5 <- 49         0.00025
       6 <- 27         0.00053
       6 <- 46         0.00067
       7 <- 12         0.00050
       7 <- 16        -0.00082
       7 <- 18         0.00182
       7 <- 22        -0.00099
       7 <- 24         0.00085
       7 <- 29         0.00051
       7 <- 33        -0.00016
       7 <- 35         0.00018
       7 <- 42        -0.00035
       7 <- 48         0.00031
       7 <- 50         0.00054
       8 <- 10        -0.00338
       8 <- 11        -0.00119
       8 <- 14        -0.01023
       8 <- 15         0.00080
       8 <- 19        -0.00070
       8 <- 20        -0.00035
       8 <- 21        -0.00362
       8 <- 25        -0.00299
       8 <- 26        -0.00042
       8 <- 30        -0.00062
       8 <- 32         0.00080
       8 <- 34         0.00162
       8 <- 38         0.00066
       8 <- 39         0.00047
       8 <- 44         0.00054
       8 <- 45        -0.00065
       8 <- 49         0.00020
       8 <- 51         0.00011

 Excited State   3:      Singlet-B2     7.1104 eV  174.37 nm  f=0.0205  <S**2>=0.000
       3 -> 12        -0.00016
       3 -> 16        -0.00068
       3 -> 18         0.00033
       3 -> 22         0.00020
       3 -> 24         0.00037
       3 -> 29         0.00126
       3 -> 33         0.00014
       3 -> 35        -0.00032
       3 -> 42        -0.00033
       3 -> 48         0.00022
       3 -> 50         0.00025
       4 -> 12         0.00310
       4 -> 16        -0.00232
       4 -> 18         0.00324
       4 -> 22        -0.00156
       4 -> 24         0.00348
       4 -> 29        -0.00107
       4 -> 33         0.00055
       4 -> 35        -0.00030
       4 -> 40        -0.00019
       4 -> 42        -0.00010
       4 -> 48         0.00016
       4 -> 50         0.00016
       5 -> 10        -0.00663
       5 -> 11         0.00030
       5 -> 14         0.00442
       5 -> 15        -0.00578
       5 -> 19        -0.00383
       5 -> 20        -0.00185
       5 -> 21         0.00114
       5 -> 25         0.00124
       5 -> 26         0.00115
       5 -> 30         0.00098
       5 -> 32        -0.00180
       5 -> 34        -0.00083
       5 -> 39         0.00058
       5 -> 41        -0.00085
       5 -> 45         0.00068
       5 -> 49        -0.00043
       5 -> 51        -0.00027
       6 -> 27        -0.00067
       6 -> 36        -0.00126
       6 -> 46        -0.00127
       7 -> 12        -0.00315
       7 -> 16        -0.00133
       7 -> 18        -0.00205
       7 -> 22         0.00144
       7 -> 29         0.00026
       7 -> 33        -0.00035
       7 -> 35         0.00136
       7 -> 40        -0.00044
       7 -> 42         0.00073
       7 -> 48        -0.00070
       7 -> 50        -0.00067
       7 -> 53         0.00014
       8 -> 10         0.03476
       8 -> 11         0.70528
       8 -> 14        -0.01416
       8 -> 15         0.02007
       8 -> 19        -0.02136
       8 -> 20         0.01365
       8 -> 21        -0.00215
       8 -> 25         0.00033
       8 -> 26         0.00071
       8 -> 30        -0.00147
       8 -> 34         0.00042
       8 -> 39         0.00026
       8 -> 41        -0.00142
       8 -> 45         0.00091
       8 -> 49        -0.00075
       8 -> 51        -0.00031
       8 -> 54        -0.00017
       3 <- 12         0.00029
       3 <- 16        -0.00043
       3 <- 18         0.00060
       3 <- 24         0.00045
       3 <- 29         0.00080
       3 <- 33         0.00019
       3 <- 35        -0.00036
       3 <- 42        -0.00028
       3 <- 48         0.00018
       3 <- 50         0.00015
       3 <- 53        -0.00022
       4 <- 12         0.00034
       4 <- 18         0.00117
       4 <- 22        -0.00125
       4 <- 24         0.00151
       4 <- 29        -0.00044
       4 <- 33         0.00053
       4 <- 40        -0.00018
       4 <- 42        -0.00015
       4 <- 48         0.00010
       4 <- 50         0.00022
       5 <- 10         0.00134
       5 <- 11        -0.00057
       5 <- 14         0.00203
       5 <- 15        -0.00048
       5 <- 19         0.00068
       5 <- 21         0.00097
       5 <- 25         0.00100
       5 <- 26         0.00082
       5 <- 30         0.00077
       5 <- 32        -0.00033
       5 <- 34        -0.00124
       5 <- 38         0.00014
       5 <- 39         0.00035
       5 <- 41        -0.00087
       5 <- 44        -0.00012
       5 <- 45         0.00065
       5 <- 49        -0.00029
       5 <- 51        -0.00026
       6 <- 27        -0.00023
       6 <- 36        -0.00102
       6 <- 46        -0.00109
       7 <- 12        -0.00036
       7 <- 18        -0.00030
       7 <- 22         0.00035
       7 <- 33        -0.00014
       7 <- 35         0.00098
       7 <- 40        -0.00033
       7 <- 42         0.00051
       7 <- 48        -0.00060
       7 <- 50        -0.00059
       8 <- 10        -0.00117
       8 <- 11         0.00084
       8 <- 14        -0.00517
       8 <- 15         0.00089
       8 <- 19         0.00245
       8 <- 20        -0.00162
       8 <- 21        -0.00233
       8 <- 25        -0.00017
       8 <- 26         0.00124
       8 <- 30        -0.00087
       8 <- 32         0.00116
       8 <- 34        -0.00010
       8 <- 38        -0.00024
       8 <- 41        -0.00120
       8 <- 45         0.00076
       8 <- 49        -0.00048
       8 <- 51        -0.00028

 Excited State   4:      Singlet-A1     7.2502 eV  171.01 nm  f=0.0513  <S**2>=0.000
       3 -> 10         0.00148
       3 -> 11        -0.00096
       3 -> 14         0.00033
       3 -> 15        -0.00048
       3 -> 19         0.00116
       3 -> 20         0.00071
       3 -> 26        -0.00036
       3 -> 30         0.00118
       3 -> 32        -0.00031
       3 -> 34        -0.00022
       3 -> 38        -0.00035
       3 -> 39         0.00018
       3 -> 41        -0.00018
       3 -> 49        -0.00013
       3 -> 51        -0.00034
       3 -> 54        -0.00021
       4 -> 10         0.00552
       4 -> 11         0.00915
       4 -> 14         0.00611
       4 -> 15        -0.00081
       4 -> 19         0.00067
       4 -> 20         0.00611
       4 -> 21         0.00253
       4 -> 25         0.00704
       4 -> 26        -0.00082
       4 -> 30        -0.00060
       4 -> 32        -0.00030
       4 -> 34        -0.00089
       4 -> 38        -0.00012
       4 -> 39        -0.00053
       4 -> 41         0.00021
       4 -> 44         0.00010
       4 -> 45        -0.00029
       4 -> 49        -0.00023
       5 -> 12         0.00777
       5 -> 16        -0.00359
       5 -> 18         0.01090
       5 -> 22        -0.00032
       5 -> 24         0.00472
       5 -> 29         0.00039
       5 -> 33        -0.00016
       5 -> 35         0.00088
       5 -> 42        -0.00018
       5 -> 50        -0.00036
       5 -> 53        -0.00015
       6 ->  9         0.00977
       6 -> 13         0.00567
       6 -> 17         0.00499
       6 -> 23         0.00472
       6 -> 28         0.00029
       6 -> 31         0.00086
       6 -> 37         0.00054
       6 -> 43         0.00060
       6 -> 47        -0.00037
       7 -> 10         0.01339
       7 -> 11        -0.00466
       7 -> 14         0.00374
       7 -> 15         0.00143
       7 -> 19         0.00628
       7 -> 20         0.00404
       7 -> 21         0.00166
       7 -> 25         0.00223
       7 -> 26        -0.00053
       7 -> 30        -0.00039
       7 -> 32         0.00056
       7 -> 34        -0.00080
       7 -> 39        -0.00015
       7 -> 44         0.00011
       7 -> 49        -0.00019
       7 -> 51         0.00053
       8 -> 12         0.70562
       8 -> 16        -0.03217
       8 -> 18         0.01996
       8 -> 22         0.00490
       8 -> 24         0.00164
       8 -> 29         0.00232
       8 -> 33         0.00151
       8 -> 35        -0.00231
       8 -> 40        -0.00013
       8 -> 42         0.00115
       8 -> 48        -0.00037
       8 -> 50        -0.00022
       8 -> 53        -0.00017
       3 <- 10         0.00057
       3 <- 11        -0.00029
       3 <- 14         0.00022
       3 <- 15        -0.00018
       3 <- 19         0.00058
       3 <- 20         0.00032
       3 <- 21         0.00012
       3 <- 25         0.00022
       3 <- 26        -0.00016
       3 <- 30         0.00071
       3 <- 32        -0.00025
       3 <- 34        -0.00011
       3 <- 38        -0.00027
       3 <- 39         0.00016
       3 <- 41        -0.00017
       3 <- 45         0.00012
       3 <- 49        -0.00015
       3 <- 51        -0.00029
       3 <- 54        -0.00019
       4 <- 10         0.00533
       4 <- 11         0.00285
       4 <- 14         0.00449
       4 <- 15        -0.00109
       4 <- 19         0.00051
       4 <- 20         0.00345
       4 <- 21         0.00100
       4 <- 25         0.00410
       4 <- 26        -0.00041
       4 <- 32        -0.00059
       4 <- 34        -0.00096
       4 <- 38        -0.00019
       4 <- 39        -0.00049
       4 <- 45        -0.00027
       4 <- 49        -0.00020
       5 <- 12         0.00274
       5 <- 18         0.00441
       5 <- 22         0.00020
       5 <- 24         0.00256
       5 <- 33        -0.00032
       5 <- 35         0.00079
       5 <- 42        -0.00016
       5 <- 50        -0.00027
       5 <- 53        -0.00014
       6 <-  9         0.00244
       6 <- 13         0.00189
       6 <- 17         0.00196
       6 <- 23         0.00263
       6 <- 28         0.00012
       6 <- 31         0.00063
       6 <- 37         0.00043
       6 <- 43         0.00050
       6 <- 47        -0.00032
       7 <- 10         0.00414
       7 <- 11        -0.00083
       7 <- 14         0.00169
       7 <- 15         0.00048
       7 <- 19         0.00245
       7 <- 20         0.00217
       7 <- 21         0.00065
       7 <- 25         0.00125
       7 <- 26        -0.00053
       7 <- 30        -0.00011
       7 <- 32         0.00030
       7 <- 34        -0.00061
       7 <- 39        -0.00023
       7 <- 41         0.00014
       7 <- 51         0.00049
       8 <- 12        -0.00253
       8 <- 16        -0.00818
       8 <- 18        -0.00588
       8 <- 22         0.00029
       8 <- 24        -0.00238
       8 <- 29         0.00083
       8 <- 33         0.00098
       8 <- 35        -0.00146
       8 <- 40        -0.00016
       8 <- 42         0.00096
       8 <- 48        -0.00044
       8 <- 50        -0.00019
       8 <- 53        -0.00018

 Excited State   5:      Singlet-A2     7.8079 eV  158.79 nm  f=0.0000  <S**2>=0.000
       3 -> 27        -0.00106
       3 -> 36        -0.00092
       3 -> 46        -0.00051
       4 -> 27        -0.00015
       4 -> 36         0.00063
       4 -> 46         0.00017
       5 ->  9        -0.00987
       5 -> 13         0.00292
       5 -> 17         0.00449
       5 -> 23        -0.00031
       5 -> 31        -0.00203
       5 -> 37        -0.00173
       5 -> 43        -0.00028
       5 -> 52        -0.00025
       6 -> 12        -0.00043
       6 -> 16        -0.00197
       6 -> 18         0.00131
       6 -> 22        -0.00090
       6 -> 24        -0.00025
       6 -> 29         0.00025
       6 -> 35        -0.00025
       6 -> 42        -0.00020
       6 -> 48        -0.00020
       6 -> 53        -0.00013
       7 -> 36         0.00027
       7 -> 46        -0.00054
       8 ->  9         0.10351
       8 -> 13         0.69907
       8 -> 17         0.00666
       8 -> 23         0.02085
       8 -> 28        -0.00074
       8 -> 31        -0.00126
       8 -> 37         0.00029
       8 -> 47         0.00018
       8 -> 52        -0.00031
       3 <- 27        -0.00054
       3 <- 36        -0.00072
       3 <- 46        -0.00061
       4 <- 27        -0.00065
       4 <- 46         0.00018
       5 <-  9        -0.00026
       5 <- 13        -0.00010
       5 <- 17         0.00063
       5 <- 23        -0.00010
       5 <- 37        -0.00048
       5 <- 43        -0.00012
       6 <- 12        -0.00061
       6 <- 16        -0.00057
       6 <- 18         0.00060
       6 <- 22        -0.00182
       6 <- 24        -0.00011
       6 <- 29         0.00011
       6 <- 33         0.00057
       6 <- 35        -0.00099
       6 <- 40         0.00016
       6 <- 42        -0.00054
       6 <- 53        -0.00025
       7 <- 27        -0.00020
       7 <- 36         0.00024
       7 <- 46        -0.00022
       8 <-  9         0.00476
       8 <- 13         0.00086
       8 <- 17         0.00036
       8 <- 23        -0.00039
       8 <- 28         0.00015
       8 <- 31        -0.00043
       8 <- 37         0.00050
       8 <- 52        -0.00013

 Excited State   6:      Singlet-B2    10.1599 eV  122.03 nm  f=0.2470  <S**2>=0.000
       3 -> 12        -0.00040
       3 -> 16        -0.00194
       3 -> 22         0.00144
       3 -> 24         0.00082

 The electronic state is 1-A1.
 Alpha  occ. eigenvalues --  -19.13911 -10.24482  -1.20707  -0.61151  -0.56287
 Alpha  occ. eigenvalues --   -0.50221  -0.49964  -0.25828
 Alpha virt. eigenvalues --   -0.00603   0.01311   0.04279   0.04384   0.07534
 Alpha virt. eigenvalues --    0.13863   0.17992   0.20196   0.21979   0.22556
 Alpha virt. eigenvalues --    0.26809   0.35865   0.49418   0.51176   0.51650

 Mulliken charges:
               1
     1  C    0.120822
     2  H    0.042463
     3  H    0.042463
     4  O   -0.205749
 Sum of Mulliken charges =  -0.00000

 Dipole moment (field-independent basis, Debye):
    X=              0.0000    Y=              0.0000    Z=             -1.2572  Tot=              1.2572
 Quadrupole moment (field-independent basis, Debye-Ang):
   XX=            -11.0898   YY=            -12.0221   ZZ=            -12.9775
   XY=             -0.0000   XZ=             -0.0000   YZ=             -0.0000

 Normal termination of Gaussian 16 at Fri Sep 17 10:52:36 2021.
