 Gaussian 16, Revision C.01,
 Gaussian 16:  ES64L-G16RevC.01  3-Jul-2019

 ----------------------------------------
 #P wB97XD/6-311+G* NoSymm #P Field=Y+126
 ----------------------------------------

 -------
 TitleMe
 -------
 Symbolic Z-matrix:
 Charge =  1 Multiplicity = 1

                          Input orientation:
 ---------------------------------------------------------------------
 Center     Atomic      Atomic             Coordinates (Angstroms)
 Number     Number       Type             X           Y           Z
 ---------------------------------------------------------------------
      1          6           0        0.029500    1.339700    0.068200
      2          6           0        1.434800    1.286700    0.006400
      3          6           0        2.111800    0.051100   -0.005400
      4          6           0        1.445100   -1.137200    0.031200
      5          6           0       -0.687900    0.168200    0.110000
      6          1           0       -0.471300    2.298400    0.078100
      7          1           0        2.027300    2.196500   -0.032200
      8          1           0        1.989700   -2.076400    0.023200
      9          1           0       -1.771600    0.180400    0.158200
     10          7           0        3.586400    0.051000   -0.067500
     11          8           0        4.147100   -1.059700   -0.088100
     12          8           0        4.145000    1.163900   -0.090100
     13          6           0       -0.023600   -1.145800    0.083500
     14          1           0       -0.436700   -1.872500    0.788900
     15         35           0       -0.535900   -1.869700   -1.740800
 ---------------------------------------------------------------------

 SCF Done:  E(RwB97XD) =  -3010.54725219     A.U. after   20 cycles

 Alpha  occ. eigenvalues -- -483.29244 -62.84242 -56.63959 -56.63354 -56.63351
 Alpha  occ. eigenvalues --  -19.45470 -19.45335 -14.84891 -10.57430 -10.56447
 Alpha  occ. eigenvalues --  -10.56446 -10.56393 -10.55951 -10.53277  -9.00028
 Alpha  occ. eigenvalues --   -6.82769  -6.80796  -6.80778  -2.92658  -2.92136
 Alpha  occ. eigenvalues --   -2.92120  -2.90543  -2.90543  -1.49181  -1.32167
 Alpha  occ. eigenvalues --   -1.21903  -1.13019  -1.11297  -1.02748  -1.00539
 Alpha  occ. eigenvalues --   -0.94677  -0.90361  -0.84928  -0.80352  -0.80025
 Alpha  occ. eigenvalues --   -0.79472  -0.77633  -0.75581  -0.75258  -0.71463
 Alpha  occ. eigenvalues --   -0.68689  -0.67021  -0.62894  -0.59125  -0.56716
 Alpha  occ. eigenvalues --   -0.55732  -0.55103  -0.53935  -0.53332
 Alpha virt. eigenvalues --   -0.28743  -0.20657  -0.14877  -0.12945  -0.11940
 Alpha virt. eigenvalues --   -0.08920  -0.06711  -0.05802  -0.04990  -0.03408
 Alpha virt. eigenvalues --   -0.01844  -0.01230  -0.01073  -0.00091   0.00431

 Mulliken charges:
               1
     1  C   -0.598273
     2  C    0.589403
     3  C   -0.790328
     4  C    0.341452
     5  C   -0.044870
     6  H    0.278979
     7  H    0.318110
     8  H    0.413871
     9  H    0.347494
    10  N   -0.103680
    11  O    0.095637
    12  O   -0.043168
    13  C   -0.502462
    14  H    0.435713
    15  Br   0.262121
 Sum of Mulliken charges =   1.00000

 Dipole moment (field-independent basis, Debye):
    X=             -1.2365    Y=             -4.2252    Z=             -0.5088  Tot=              4.4317
 Quadrupole moment (field-independent basis, Debye-Ang):
   XX=            -71.8980   YY=            -50.5801   ZZ=            -61.5992
   XY=             -2.7386   XZ=              1.5226   YZ=              3.3320

 Normal termination of Gaussian 16 at Wed May  1 15:09:32 2024.
