 Gaussian 16, Revision A.03,
 Gaussian 16:  ES64L-G16RevA.03 25-Dec-2016

 --------------------------------------------------------------------
 #p B3LYP/6-311+G** #p TD=(singlets,nstates=30)IOp(6/8=3) IOp(9/40=4)
 --------------------------------------------------------------------

 -------------------------------
 Scan Step 53, Bond Length 0.765
 -------------------------------
 Symbolic Z-matrix:
 Charge =  0 Multiplicity = 1

                         Standard orientation:
 ---------------------------------------------------------------------
 Center     Atomic      Atomic             Coordinates (Angstroms)
 Number     Number       Type             X           Y           Z
 ---------------------------------------------------------------------
      1          6           0        0.000000   -0.000000   -0.308581
      2          1           0        0.000000    0.937260   -0.899931
      3          1           0       -0.000000   -0.937260   -0.899931
      4          8           0        0.000000    0.000000    0.456419
 ---------------------------------------------------------------------

 SCF Done:  E(RB3LYP) =  -113.619973738     A.U. after    9 cycles

 Excitation energies and oscillator strengths:

 Excited State   1:      Singlet-B2     5.2834 eV  234.67 nm  f=0.1076  <S**2>=0.000
       3 -> 11         0.00077
       3 -> 16         0.00045
       3 -> 19         0.00083
       3 -> 23         0.00022
       3 -> 24        -0.00102
       3 -> 29        -0.00022
       3 -> 32        -0.00011
       3 -> 40         0.00012
       3 -> 43         0.00019
       3 -> 50        -0.00014
       3 -> 53         0.00013
       4 ->  9        -0.00278
       4 -> 12         0.00442
       4 -> 14         0.00420
       4 -> 15         0.00163
       4 -> 18         0.00340
       4 -> 20         0.00177
       4 -> 21         0.00206
       4 -> 25         0.00150
       4 -> 26        -0.00084
       4 -> 30        -0.00114
       4 -> 31         0.00135
       4 -> 34         0.00044
       4 -> 38         0.00077
       4 -> 41        -0.00052
       4 -> 44        -0.00037
       4 -> 46        -0.00071
       4 -> 49         0.00030
       5 -> 28         0.00148
       5 -> 35         0.00059
       5 -> 45         0.00086
       6 -> 11        -0.00702
       6 -> 16         0.00199
       6 -> 19         0.00048
       6 -> 23        -0.00168
       6 -> 24        -0.00439
       6 -> 29        -0.00088
       6 -> 32        -0.00104
       6 -> 36         0.00068
       6 -> 43         0.00035
       6 -> 47         0.00012
       7 -> 11         0.00441
       7 -> 16         0.00404
       7 -> 19         0.00294
       7 -> 23        -0.00099
       7 -> 24        -0.00213
       7 -> 29         0.00051
       7 -> 32         0.00033
       7 -> 36        -0.00049
       7 -> 43        -0.00040
       7 -> 47         0.00046
       7 -> 50         0.00046
       7 -> 53        -0.00011
       8 ->  9         0.70588
       8 -> 12        -0.00087
       8 -> 14         0.03589
       8 -> 15        -0.00943
       8 -> 18        -0.02146
       8 -> 20         0.00623
       8 -> 21         0.00932
       8 -> 25        -0.00037
       8 -> 30        -0.00111
       8 -> 31        -0.00321
       8 -> 34        -0.00125
       8 -> 38         0.00107
       8 -> 39         0.00034
       8 -> 41        -0.00066
       8 -> 44         0.00017
       8 -> 46         0.00093
       8 -> 49        -0.00033
       8 -> 51         0.00010
       8 -> 54         0.00011
       3 <- 11         0.00029
       3 <- 16         0.00012
       3 <- 19         0.00054
       3 <- 23         0.00014
       3 <- 24        -0.00077
       3 <- 29        -0.00020
       3 <- 32        -0.00012
       3 <- 40         0.00013
       3 <- 43         0.00017
       3 <- 53         0.00013
       4 <-  9        -0.00162
       4 <- 12        -0.00023
       4 <- 14         0.00341
       4 <- 15         0.00189
       4 <- 18         0.00081
       4 <- 20         0.00088
       4 <- 21         0.00146
       4 <- 25         0.00149
       4 <- 26        -0.00127
       4 <- 30        -0.00038
       4 <- 31         0.00049
       4 <- 34         0.00027
       4 <- 38         0.00049
       4 <- 39         0.00017
       4 <- 41        -0.00045
       4 <- 44        -0.00028
       4 <- 46        -0.00064
       4 <- 49         0.00024
       5 <- 28         0.00119
       5 <- 35         0.00047
       5 <- 45         0.00072
       6 <- 11        -0.00070
       6 <- 16         0.00208
       6 <- 19         0.00155
       6 <- 23        -0.00079
       6 <- 24        -0.00338
       6 <- 29        -0.00064
       6 <- 32        -0.00084
       6 <- 36         0.00057
       6 <- 43         0.00019
       7 <- 11         0.00093
       7 <- 16         0.00228
       7 <- 19         0.00058
       7 <- 23        -0.00037
       7 <- 24        -0.00092
       7 <- 29         0.00111
       7 <- 32         0.00021
       7 <- 36        -0.00021
       7 <- 43        -0.00030
       7 <- 47         0.00046
       7 <- 50         0.00053
       8 <-  9        -0.00628
       8 <- 12        -0.00377
       8 <- 14         0.01673
       8 <- 15         0.00433
       8 <- 18         0.00141
       8 <- 21         0.00475
       8 <- 25         0.00316
       8 <- 26         0.00048
       8 <- 30        -0.00085
       8 <- 31        -0.00190
       8 <- 34        -0.00148
       8 <- 38         0.00103
       8 <- 39         0.00028
       8 <- 41        -0.00051
       8 <- 46         0.00075
       8 <- 49        -0.00027
 This state for optimization and/or second-order correction.
 Total Energy, E(TD-HF/TD-DFT) =  -113.425811187
 Copying the excited state density for this state as the 1-particle RhoCI density.

 Excited State   2:      Singlet-A2     5.4640 eV  226.91 nm  f=0.0000  <S**2>=0.000
       3 -> 28        -0.00216
       3 -> 35        -0.00151
       3 -> 45        -0.00064
       4 -> 10        -0.00195
       4 -> 13        -0.00386
       4 -> 17        -0.00489
       4 -> 22         0.00266
       4 -> 27        -0.00249
       4 -> 33        -0.00051
       4 -> 37        -0.00220
       4 -> 42        -0.00028
       4 -> 48        -0.00011
       4 -> 52        -0.00042
       5 -> 11         0.00040
       5 -> 19         0.00038
       5 -> 23        -0.00126
       5 -> 32        -0.00016
       5 -> 36        -0.00040
       5 -> 43        -0.00043
       5 -> 47        -0.00048
       5 -> 50         0.00019
       5 -> 53        -0.00015
       6 -> 28        -0.00368
       6 -> 35         0.00057
       6 -> 45         0.00029
       7 -> 28        -0.00028
       7 -> 45        -0.00067
       8 -> 10         0.70358
       8 -> 13         0.06409
       8 -> 17         0.02991
       8 -> 27         0.00301
       8 -> 33         0.00318
       8 -> 37        -0.00225
       8 -> 48         0.00010
       8 -> 52         0.00054
       3 <- 28        -0.00171
       3 <- 35        -0.00130
       3 <- 45        -0.00064
       4 <- 10        -0.00018
       4 <- 13        -0.00099
       4 <- 17        -0.00057
       4 <- 27        -0.00022
       4 <- 33         0.00089
       4 <- 37        -0.00111
       4 <- 42        -0.00033
       5 <- 11         0.00076
       5 <- 16        -0.00079
       5 <- 19         0.00215
       5 <- 23        -0.00234
       5 <- 24        -0.00157
       5 <- 29        -0.00142
       5 <- 32         0.00043
       5 <- 36        -0.00112
       5 <- 43        -0.00056
       5 <- 47        -0.00042
       5 <- 53        -0.00040
       6 <- 28        -0.00377
       6 <- 35         0.00064
       6 <- 45         0.00030
       7 <- 28        -0.00019
       7 <- 45        -0.00060
       8 <- 10        -0.00146
       8 <- 13        -0.00738
       8 <- 17        -0.00509
       8 <- 22         0.00024
       8 <- 27        -0.00040
       8 <- 33         0.00301
       8 <- 37        -0.00187
       8 <- 42         0.00012
       8 <- 52         0.00017

 Excited State   3:      Singlet-B2     6.1294 eV  202.28 nm  f=0.0283  <S**2>=0.000
       3 -> 11        -0.00011
       3 -> 16         0.00054
       3 -> 19        -0.00021
       3 -> 23         0.00024
       3 -> 24        -0.00043
       3 -> 29         0.00063
       3 -> 32         0.00013
       3 -> 36        -0.00025
       3 -> 43        -0.00026
       3 -> 47         0.00018
       3 -> 50         0.00016
       3 -> 53        -0.00014
       4 ->  9         0.00304
       4 -> 12         0.00033
       4 -> 14         0.00181
       4 -> 15         0.00334
       4 -> 18        -0.00215
       4 -> 20        -0.00017
       4 -> 21         0.00140
       4 -> 25         0.00082
       4 -> 26         0.00091
       4 -> 30        -0.00134
       4 -> 31        -0.00192
       4 -> 34        -0.00019
       4 -> 38        -0.00011
       4 -> 39        -0.00093
       4 -> 41         0.00042
       4 -> 46         0.00061
       4 -> 49        -0.00024
       4 -> 51        -0.00013
       5 -> 28        -0.00097
       5 -> 35        -0.00131
       5 -> 45        -0.00084
       6 -> 11         0.00130
       6 -> 16         0.00502
       6 -> 19        -0.00024
       6 -> 23        -0.00070
       6 -> 24        -0.00353
       6 -> 29        -0.00164
       6 -> 32         0.00052
       6 -> 36         0.00024
       6 -> 40        -0.00034
       6 -> 43         0.00017
       7 -> 11        -0.00274
       7 -> 16        -0.00176
       7 -> 19        -0.00219
       7 -> 23         0.00111
       7 -> 24         0.00159
       7 -> 32        -0.00027
       7 -> 36         0.00095
       7 -> 40        -0.00024
       7 -> 43         0.00044
       7 -> 47        -0.00066
       7 -> 50        -0.00047
       7 -> 53         0.00018
       8 ->  9         0.00048
       8 -> 12         0.70593
       8 -> 14         0.02419
       8 -> 15         0.02622
       8 -> 18         0.01236
       8 -> 20         0.01577
       8 -> 21         0.00448
       8 -> 25        -0.00067
       8 -> 26         0.00126
       8 -> 30        -0.00209
       8 -> 31        -0.00062
       8 -> 34        -0.00032
       8 -> 39         0.00124
       8 -> 41        -0.00095
       8 -> 46        -0.00063
       8 -> 49         0.00029
       8 -> 54        -0.00015
       3 <- 11         0.00014
       3 <- 16         0.00054
       3 <- 24        -0.00047
       3 <- 29         0.00042
       3 <- 32         0.00014
       3 <- 36        -0.00027
       3 <- 43        -0.00022
       3 <- 47         0.00013
       3 <- 53        -0.00022
       4 <-  9        -0.00132
       4 <- 14         0.00154
       4 <- 15         0.00069
       4 <- 18         0.00064
       4 <- 20        -0.00042
       4 <- 21         0.00096
       4 <- 25         0.00094
       4 <- 26         0.00085
       4 <- 30        -0.00114
       4 <- 31        -0.00082
       4 <- 34        -0.00072
       4 <- 39        -0.00071
       4 <- 41         0.00042
       4 <- 46         0.00060
       4 <- 49        -0.00014
       4 <- 51        -0.00013
       5 <- 28        -0.00053
       5 <- 35        -0.00111
       5 <- 45        -0.00073
       6 <- 16         0.00116
       6 <- 19         0.00082
       6 <- 23        -0.00101
       6 <- 24        -0.00213
       6 <- 29        -0.00093
       6 <- 32         0.00062
       6 <- 36         0.00042
       6 <- 40        -0.00033
       7 <- 11        -0.00032
       7 <- 16        -0.00076
       7 <- 19        -0.00034
       7 <- 23         0.00034
       7 <- 24         0.00062
       7 <- 29        -0.00042
       7 <- 36         0.00058
       7 <- 40        -0.00018
       7 <- 43         0.00031
       7 <- 47        -0.00058
       7 <- 50        -0.00049
       8 <-  9        -0.00347
       8 <- 12         0.00135
       8 <- 14         0.00906
       8 <- 15         0.00299
       8 <- 18        -0.00136
       8 <- 20        -0.00260
       8 <- 21         0.00316
       8 <- 25         0.00061
       8 <- 26        -0.00037
       8 <- 30        -0.00178
       8 <- 31        -0.00083
       8 <- 38        -0.00014
       8 <- 39         0.00100
       8 <- 41        -0.00082
       8 <- 46        -0.00052
       8 <- 49         0.00015

 Excited State   4:      Singlet-A1     6.2770 eV  197.52 nm  f=0.0234  <S**2>=0.000
       3 ->  9         0.00121
       3 -> 12        -0.00062
       3 -> 14         0.00010
       3 -> 15        -0.00064
       3 -> 18        -0.00138
       3 -> 21         0.00057
       3 -> 25        -0.00042
       3 -> 26        -0.00018
       3 -> 30         0.00099
       3 -> 31        -0.00012
       3 -> 34         0.00029
       3 -> 38        -0.00031
       3 -> 39         0.00031
       3 -> 51         0.00023
       3 -> 54        -0.00017
       4 -> 11        -0.00674
       4 -> 16        -0.00763
       4 -> 19        -0.00490
       4 -> 23        -0.00181
       4 -> 24         0.00352
       4 -> 29        -0.00068
       4 -> 32         0.00013
       4 -> 36        -0.00102
       4 -> 43         0.00028
       4 -> 50         0.00029
       5 -> 10        -0.00507
       5 -> 13         0.00271
       5 -> 17        -0.00439
       5 -> 22        -0.00347
       5 -> 27        -0.00101
       5 -> 33        -0.00093
       5 -> 37        -0.00056
       5 -> 42        -0.00028
       5 -> 48         0.00032
       6 ->  9         0.00766
       6 -> 12         0.01043
       6 -> 14        -0.00574
       6 -> 15        -0.00394
       6 -> 18        -0.00330
       6 -> 20         0.00676
       6 -> 21        -0.00050
       6 -> 25        -0.00664
       6 -> 26         0.00123
       6 -> 30        -0.00083
       6 -> 31         0.00123
       6 -> 34         0.00148
       6 -> 38        -0.00080
       6 -> 39        -0.00121
       6 -> 44         0.00044
       6 -> 46         0.00014
       6 -> 49         0.00041
       7 ->  9         0.01127
       7 -> 12        -0.00770
       7 -> 14        -0.00063
       7 -> 15         0.00179
       7 -> 18        -0.00872
       7 -> 20        -0.00018
       7 -> 25        -0.00060
       7 -> 26        -0.00122
       7 -> 30         0.00030
       7 -> 31        -0.00114
       7 -> 34         0.00082
       7 -> 49         0.00018
       7 -> 51        -0.00027
       8 -> 11         0.70513
       8 -> 16         0.04737
       8 -> 19        -0.01383
       8 -> 23         0.00104
       8 -> 24        -0.00339
       8 -> 29         0.00412
       8 -> 32         0.00172
       8 -> 36        -0.00291
       8 -> 40         0.00024
       8 -> 43         0.00169
       8 -> 47        -0.00065
       3 <-  9         0.00059
       3 <- 12        -0.00028
       3 <- 15        -0.00036
       3 <- 18        -0.00084
       3 <- 21         0.00032
       3 <- 25        -0.00037
       3 <- 26        -0.00016
       3 <- 30         0.00065
       3 <- 34         0.00027
       3 <- 38        -0.00022
       3 <- 39         0.00026
       3 <- 46        -0.00014
       3 <- 51         0.00019
       3 <- 54        -0.00016
       4 <- 11        -0.00251
       4 <- 16        -0.00283
       4 <- 19        -0.00266
       4 <- 23        -0.00139
       4 <- 24         0.00187
       4 <- 29        -0.00031
       4 <- 32         0.00022
       4 <- 36        -0.00086
       4 <- 43         0.00024
       4 <- 50         0.00025
       5 <- 10        -0.00239
       5 <- 13         0.00134
       5 <- 17        -0.00238
       5 <- 22        -0.00226
       5 <- 27        -0.00070
       5 <- 33        -0.00074
       5 <- 37        -0.00047
       5 <- 42        -0.00024
       5 <- 48         0.00028
       6 <-  9         0.00704
       6 <- 12         0.00445
       6 <- 14        -0.00445
       6 <- 15        -0.00332
       6 <- 18        -0.00196
       6 <- 20         0.00380
       6 <- 21         0.00051
       6 <- 25        -0.00428
       6 <- 26         0.00066
       6 <- 30        -0.00017
       6 <- 31         0.00119
       6 <- 34         0.00109
       6 <- 38        -0.00087
       6 <- 39        -0.00096
       6 <- 44         0.00047
       6 <- 46         0.00014
       6 <- 49         0.00033
       7 <-  9         0.00351
       7 <- 12        -0.00261
       7 <- 15         0.00108
       7 <- 18        -0.00407
       7 <- 20         0.00011
       7 <- 21         0.00011
       7 <- 25        -0.00037
       7 <- 26        -0.00071
       7 <- 30         0.00023
       7 <- 31        -0.00087
       7 <- 34         0.00056
       7 <- 39        -0.00013
       7 <- 44        -0.00010
       7 <- 46         0.00012
       7 <- 49         0.00012
       7 <- 51        -0.00025
       8 <- 11        -0.00632
       8 <- 16         0.00471
       8 <- 19        -0.01359
       8 <- 23        -0.00274
       8 <- 24         0.00018
       8 <- 29         0.00258
       8 <- 32         0.00147
       8 <- 36        -0.00223
       8 <- 43         0.00135
       8 <- 47        -0.00068

 Excited State   5:      Singlet-A2     7.7704 eV  159.56 nm  f=0.0000  <S**2>=0.000
       3 -> 28        -0.00257
       3 -> 35        -0.00190
       3 -> 45        -0.00077
       4 -> 10        -0.00345
       4 -> 13        -0.00987
       4 -> 17        -0.00049
       4 -> 22         0.00325
       4 -> 27        -0.00075
       4 -> 33        -0.00179
       4 -> 37        -0.00309
       4 -> 42        -0.00023
       4 -> 52        -0.00048
       5 -> 16         0.00128
       5 -> 19         0.00037
       5 -> 23        -0.00170
       5 -> 24        -0.00030
       5 -> 29         0.00028
       5 -> 32        -0.00012
       5 -> 36        -0.00050
       5 -> 43        -0.00060
       5 -> 47        -0.00053
       5 -> 53        -0.00019
       6 -> 28        -0.00257
       6 -> 35         0.00085
       6 -> 45         0.00012
       7 -> 28        -0.00022
       7 -> 45        -0.00083
       8 -> 10        -0.06542
       8 -> 13         0.70290
       8 -> 17         0.03241
       8 -> 22        -0.02327
       8 -> 27         0.00306
       8 -> 33         0.00248
       8 -> 37        -0.00244
       8 -> 42        -0.00010
       8 -> 52         0.00052
       3 <- 28        -0.00172
       3 <- 35        -0.00157
       3 <- 45        -0.00085
       4 <- 10        -0.00034
       4 <- 13        -0.00079
       4 <- 33         0.00060
       4 <- 37        -0.00113
       4 <- 42        -0.00036
       4 <- 52        -0.00015
       5 <- 11        -0.00028
       5 <- 16         0.00037
       5 <- 19         0.00095
       5 <- 23        -0.00269
       5 <- 24        -0.00149
       5 <- 29        -0.00038
       5 <- 32         0.00076
       5 <- 36        -0.00150
       5 <- 43        -0.00085
       5 <- 47        -0.00026
       5 <- 53        -0.00043
       6 <- 28        -0.00302
       6 <- 35         0.00038
       6 <- 45         0.00027
       7 <- 28        -0.00024
       7 <- 35         0.00018
       7 <- 45        -0.00049
       8 <- 10        -0.00698
       8 <- 13        -0.00415
       8 <- 17        -0.00269
       8 <- 22         0.00071
       8 <- 27        -0.00042
       8 <- 33         0.00253
       8 <- 37        -0.00169
       8 <- 42         0.00013
       8 <- 52         0.00021

 Excited State   6:      Singlet-B2     9.3893 eV  132.05 nm  f=0.1080  <S**2>=0.000
       3 -> 11         0.00037
       3 -> 16        -0.00077
       3 -> 19         0.00076
       3 -> 23        -0.00040
       3 -> 24         0.00026
       3 -> 29        -0.00067
       3 -> 32         0.00055
       3 -> 40        -0.00039
       3 -> 43        -0.00031
       3 -> 47        -0.00022
       4 ->  9         0.00434
       4 -> 12        -0.00503
       4 -> 14        -0.01072
       4 -> 18        -0.00212
       4 -> 20        -0.00662
       4 -> 21        -0.00828
       4 -> 25        -0.00322
       4 -> 26        -0.00033

 The electronic state is 1-A1.
 Alpha  occ. eigenvalues --  -19.15388 -10.25518  -1.32510  -0.69880  -0.66156
 Alpha  occ. eigenvalues --   -0.57911  -0.54604  -0.21924
 Alpha virt. eigenvalues --    0.01205   0.02710   0.04439   0.04556   0.12241
 Alpha virt. eigenvalues --    0.14425   0.17646   0.19463   0.21709   0.24726
 Alpha virt. eigenvalues --    0.25321   0.36544   0.50580   0.55249   0.56239

 Mulliken charges:
               1
     1  C    0.328421
     2  H   -0.056378
     3  H   -0.056378
     4  O   -0.215665
 Sum of Mulliken charges =  -0.00000

 Dipole moment (field-independent basis, Debye):
    X=              0.0000    Y=              0.0000    Z=              0.4486  Tot=              0.4486
 Quadrupole moment (field-independent basis, Debye-Ang):
   XX=            -10.4435   YY=            -13.0022   ZZ=            -13.4840
   XY=             -0.0000   XZ=             -0.0000   YZ=              0.0000

 Normal termination of Gaussian 16 at Fri Sep 17 10:52:24 2021.
