 Gaussian 16, Revision A.03,
 Gaussian 16:  ES64L-G16RevA.03 25-Dec-2016

 --------------------------------------------------------------------
 #p B3LYP/6-311+G** #p TD=(singlets,nstates=30)IOp(6/8=3) IOp(9/40=4)
 --------------------------------------------------------------------

 -----------------------------
 Scan Step 4, Bond Length 0.52
 -----------------------------
 Symbolic Z-matrix:
 Charge =  0 Multiplicity = 1

                         Standard orientation:
 ---------------------------------------------------------------------
 Center     Atomic      Atomic             Coordinates (Angstroms)
 Number     Number       Type             X           Y           Z
 ---------------------------------------------------------------------
      1          6           0        0.000000   -0.000000   -0.186081
      2          1           0        0.000000    0.937260   -0.777431
      3          1           0       -0.000000   -0.937260   -0.777431
      4          8           0        0.000000    0.000000    0.333919
 ---------------------------------------------------------------------

 SCF Done:  E(RB3LYP) =  -109.487925689     A.U. after   11 cycles

 Excitation energies and oscillator strengths:

 Excited State   1:      Singlet-B2     4.3087 eV  287.76 nm  f=0.1592  <S**2>=0.000
       3 -> 11         0.00066
       3 -> 14         0.00160
       3 -> 19         0.00070
       3 -> 22         0.00143
       3 -> 25         0.00170
       3 -> 31        -0.00038
       3 -> 38         0.00021
       3 -> 40         0.00065
       3 -> 43         0.00025
       3 -> 46         0.00011
       3 -> 53         0.00015
       4 ->  9        -0.00227
       4 -> 12         0.00141
       4 -> 13         0.00275
       4 -> 16         0.00111
       4 -> 17         0.00135
       4 -> 20         0.00195
       4 -> 21         0.00153
       4 -> 24         0.00095
       4 -> 26         0.00061
       4 -> 30         0.00167
       4 -> 32         0.00025
       4 -> 33         0.00090
       4 -> 37        -0.00046
       4 -> 42         0.00041
       4 -> 44        -0.00023
       4 -> 47        -0.00062
       4 -> 48        -0.00013
       4 -> 51        -0.00014
       4 -> 54        -0.00014
       5 -> 27         0.00220
       5 -> 35         0.00098
       5 -> 45         0.00061
       6 -> 11         0.01077
       6 -> 14        -0.00091
       6 -> 19         0.00326
       6 -> 22         0.00043
       6 -> 25        -0.00297
       6 -> 29        -0.00118
       6 -> 31         0.00084
       6 -> 40        -0.00011
       6 -> 43        -0.00019
       6 -> 46        -0.00013
       6 -> 50         0.00015
       7 -> 11         0.00749
       7 -> 14         0.00591
       7 -> 19         0.00387
       7 -> 22         0.00078
       7 -> 25         0.00310
       7 -> 29        -0.00065
       7 -> 31         0.00112
       7 -> 38        -0.00063
       7 -> 43        -0.00031
       7 -> 46         0.00049
       7 -> 50         0.00038
       7 -> 53        -0.00018
       8 ->  9         0.70377
       8 -> 12        -0.00867
       8 -> 13         0.06921
       8 -> 16        -0.00952
       8 -> 17        -0.02446
       8 -> 20         0.00671
       8 -> 21         0.01222
       8 -> 24        -0.00092
       8 -> 26         0.00133
       8 -> 30        -0.00362
       8 -> 32        -0.00136
       8 -> 33        -0.00163
       8 -> 37        -0.00084
       8 -> 39        -0.00033
       8 -> 42         0.00072
       8 -> 44         0.00065
       8 -> 47         0.00046
       8 -> 48         0.00025
       3 <- 11         0.00035
       3 <- 14         0.00118
       3 <- 19         0.00039
       3 <- 22         0.00123
       3 <- 25         0.00133
       3 <- 29        -0.00012
       3 <- 31        -0.00039
       3 <- 38         0.00024
       3 <- 40         0.00063
       3 <- 43         0.00026
       3 <- 46         0.00014
       3 <- 53         0.00016
       4 <-  9        -0.00089
       4 <- 13         0.00223
       4 <- 16         0.00103
       4 <- 17        -0.00015
       4 <- 20         0.00137
       4 <- 21         0.00128
       4 <- 24         0.00045
       4 <- 26         0.00114
       4 <- 30         0.00133
       4 <- 32         0.00016
       4 <- 33         0.00037
       4 <- 37        -0.00031
       4 <- 39         0.00015
       4 <- 42         0.00032
       4 <- 44        -0.00020
       4 <- 47        -0.00058
       5 <- 27         0.00192
       5 <- 35         0.00081
       5 <- 45         0.00052
       6 <- 11         0.00378
       6 <- 14        -0.00188
       6 <- 19         0.00151
       6 <- 22        -0.00024
       6 <- 25        -0.00238
       6 <- 29        -0.00099
       6 <- 31         0.00077
       6 <- 40        -0.00013
       6 <- 43        -0.00014
       6 <- 50         0.00012
       7 <- 11         0.00156
       7 <- 14         0.00312
       7 <- 19         0.00092
       7 <- 22         0.00049
       7 <- 25         0.00216
       7 <- 29        -0.00147
       7 <- 31         0.00100
       7 <- 38        -0.00039
       7 <- 43        -0.00021
       7 <- 46         0.00052
       7 <- 50         0.00049
       8 <-  9        -0.01665
       8 <- 12        -0.00829
       8 <- 13         0.02871
       8 <- 16         0.00728
       8 <- 17        -0.00220
       8 <- 20         0.00202
       8 <- 21         0.00683
       8 <- 24         0.00241
       8 <- 26         0.00117
       8 <- 30        -0.00251
       8 <- 32        -0.00163
       8 <- 33        -0.00108
       8 <- 37        -0.00083
       8 <- 39        -0.00037
       8 <- 42         0.00070
       8 <- 44         0.00033
       8 <- 47         0.00042
       8 <- 48         0.00015
 This state for optimization and/or second-order correction.
 Total Energy, E(TD-HF/TD-DFT) =  -109.329585038
 Copying the excited state density for this state as the 1-particle RhoCI density.

 Excited State   2:      Singlet-A2     4.7135 eV  263.04 nm  f=0.0000  <S**2>=0.000
       3 -> 27        -0.00219
       3 -> 35        -0.00101
       3 -> 45        -0.00027
       4 -> 10        -0.00077
       4 -> 15        -0.00104
       4 -> 18        -0.00160
       4 -> 23        -0.00024
       4 -> 28        -0.00174
       4 -> 34         0.00029
       4 -> 36        -0.00089
       4 -> 49        -0.00016
       4 -> 52        -0.00019
       5 -> 11         0.00015
       5 -> 14        -0.00021
       5 -> 19         0.00028
       5 -> 22        -0.00059
       5 -> 25         0.00022
       5 -> 29         0.00039
       5 -> 38        -0.00034
       5 -> 40        -0.00013
       5 -> 43        -0.00035
       5 -> 46        -0.00023
       5 -> 50         0.00014
       6 -> 27         0.00324
       6 -> 35        -0.00093
       6 -> 45        -0.00024
       7 -> 27         0.00115
       7 -> 45        -0.00015
       8 -> 10         0.70675
       8 -> 15         0.00383
       8 -> 18         0.02318
       8 -> 23        -0.00335
       8 -> 28        -0.00061
       8 -> 34         0.00366
       8 -> 36        -0.00112
       8 -> 41         0.00082
       8 -> 49         0.00016
       8 -> 52         0.00023
       3 <- 27        -0.00185
       3 <- 35        -0.00087
       3 <- 45        -0.00027
       4 <- 10        -0.00023
       4 <- 18        -0.00075
       4 <- 28        -0.00053
       4 <- 34         0.00057
       4 <- 36        -0.00055
       5 <- 11         0.00037
       5 <- 14        -0.00041
       5 <- 19         0.00084
       5 <- 22        -0.00069
       5 <- 25         0.00048
       5 <- 29         0.00109
       5 <- 38        -0.00053
       5 <- 43        -0.00039
       5 <- 46        -0.00026
       5 <- 53        -0.00016
       6 <- 27         0.00323
       6 <- 35        -0.00107
       6 <- 45        -0.00024
       7 <- 27         0.00107
       7 <- 45        -0.00019
       8 <- 10         0.00299
       8 <- 15         0.00051
       8 <- 18        -0.00779
       8 <- 28        -0.00105
       8 <- 34         0.00345
       8 <- 36        -0.00095
       8 <- 41         0.00046
       8 <- 52         0.00011

 Excited State   3:      Singlet-B2     5.4922 eV  225.75 nm  f=0.0400  <S**2>=0.000
       3 -> 11        -0.00033
       3 -> 14         0.00037
       3 -> 19        -0.00063
       3 -> 22         0.00013
       3 -> 25        -0.00011
       3 -> 31         0.00014
       3 -> 38        -0.00016
       3 -> 40        -0.00030
       3 -> 43        -0.00015
       3 -> 53        -0.00019
       4 ->  9         0.00053
       4 -> 13         0.00072
       4 -> 16         0.00132
       4 -> 17        -0.00083
       4 -> 20        -0.00049
       4 -> 21         0.00074
       4 -> 24         0.00087
       4 -> 26         0.00011
       4 -> 30        -0.00188
       4 -> 32        -0.00014
       4 -> 37         0.00051
       4 -> 39        -0.00081
       4 -> 42        -0.00031
       4 -> 47         0.00033
       5 -> 27        -0.00098
       5 -> 35        -0.00103
       5 -> 45        -0.00054
       6 -> 11         0.00107
       6 -> 14        -0.00461
       6 -> 19         0.00192
       6 -> 22         0.00033
       6 -> 25        -0.00192
       6 -> 29        -0.00251
       6 -> 31        -0.00066
       6 -> 38        -0.00026
       6 -> 40         0.00032
       6 -> 43        -0.00028
       6 -> 50         0.00013
       6 -> 53        -0.00011
       7 -> 11        -0.00099
       7 -> 14        -0.00297
       7 -> 19        -0.00158
       7 -> 22        -0.00067
       7 -> 25        -0.00235
       7 -> 29        -0.00055
       7 -> 31        -0.00033
       7 -> 38         0.00061
       7 -> 40        -0.00026
       7 -> 43         0.00015
       7 -> 46        -0.00059
       7 -> 50        -0.00027
       7 -> 53         0.00024
       8 ->  9         0.00493
       8 -> 12         0.70522
       8 -> 13         0.04635
       8 -> 16         0.02101
       8 -> 17        -0.00157
       8 -> 20         0.01558
       8 -> 21         0.00501
       8 -> 24        -0.00109
       8 -> 26        -0.00197
       8 -> 30        -0.00342
       8 -> 32         0.00038
       8 -> 33         0.00035
       8 -> 37        -0.00096
       8 -> 39         0.00117
       8 -> 42         0.00100
       8 -> 44        -0.00018
       8 -> 47        -0.00011
       8 -> 51        -0.00011
       8 -> 54        -0.00011
       3 <- 11        -0.00016
       3 <- 14         0.00021
       3 <- 19        -0.00024
       3 <- 29         0.00015
       3 <- 31         0.00018
       3 <- 38        -0.00020
       3 <- 40        -0.00024
       3 <- 43        -0.00016
       3 <- 53        -0.00023
       4 <-  9        -0.00086
       4 <- 12        -0.00021
       4 <- 13         0.00081
       4 <- 16         0.00065
       4 <- 17         0.00028
       4 <- 20        -0.00030
       4 <- 21         0.00053
       4 <- 24         0.00087
       4 <- 30        -0.00133
       4 <- 32        -0.00044
       4 <- 33         0.00025
       4 <- 37         0.00033
       4 <- 39        -0.00056
       4 <- 42        -0.00034
       4 <- 44         0.00011
       4 <- 47         0.00030
       5 <- 27        -0.00065
       5 <- 35        -0.00091
       5 <- 45        -0.00049
       6 <- 11         0.00107
       6 <- 14        -0.00096
       6 <- 22         0.00046
       6 <- 25        -0.00174
       6 <- 29        -0.00186
       6 <- 31        -0.00079
       6 <- 38        -0.00034
       6 <- 40         0.00024
       6 <- 43        -0.00025
       6 <- 53        -0.00011
       7 <- 11         0.00033
       7 <- 14        -0.00109
       7 <- 19        -0.00050
       7 <- 22        -0.00053
       7 <- 25        -0.00139
       7 <- 31        -0.00018
       7 <- 38         0.00031
       7 <- 40        -0.00015
       7 <- 46        -0.00051
       7 <- 50        -0.00033
       7 <- 53         0.00016
       8 <-  9        -0.00759
       8 <- 12         0.00051
       8 <- 13         0.01317
       8 <- 16         0.00413
       8 <- 17        -0.00286
       8 <- 20        -0.00326
       8 <- 21         0.00308
       8 <- 24         0.00044
       8 <- 30        -0.00261
       8 <- 32         0.00023
       8 <- 33         0.00042
       8 <- 37        -0.00084
       8 <- 39         0.00115
       8 <- 42         0.00086
       8 <- 44        -0.00012
       8 <- 47        -0.00012

 Excited State   4:      Singlet-A1     5.8046 eV  213.60 nm  f=0.0007  <S**2>=0.000
       3 ->  9         0.00202
       3 -> 16        -0.00167
       3 -> 17        -0.00185
       3 -> 21         0.00110
       3 -> 24        -0.00160
       3 -> 26         0.00035
       3 -> 30         0.00070
       3 -> 32         0.00036
       3 -> 33        -0.00098
       3 -> 37         0.00071
       3 -> 39         0.00033
       3 -> 44        -0.00022
       3 -> 51        -0.00010
       3 -> 54         0.00019
       4 -> 11        -0.00489
       4 -> 14        -0.00396
       4 -> 19        -0.00475
       4 -> 22        -0.00275
       4 -> 25        -0.00304
       4 -> 29        -0.00154
       4 -> 31        -0.00012
       4 -> 38        -0.00066
       4 -> 40         0.00014
       4 -> 43         0.00013
       4 -> 46        -0.00013
       5 -> 10        -0.00153
       5 -> 15        -0.00353
       5 -> 18         0.00083
       5 -> 23         0.00383
       5 -> 28         0.00050
       5 -> 34        -0.00047
       5 -> 36        -0.00049
       6 ->  9        -0.00823
       6 -> 12        -0.01002
       6 -> 13         0.00219
       6 -> 16         0.00841
       6 -> 17         0.00130
       6 -> 20        -0.00386
       6 -> 21        -0.00407
       6 -> 24         0.00393
       6 -> 26         0.00330
       6 -> 30         0.00036
       6 -> 32        -0.00317
       6 -> 33        -0.00269
       6 -> 37        -0.00221
       6 -> 39         0.00108
       6 -> 42         0.00047
       6 -> 44        -0.00106
       6 -> 47         0.00023
       6 -> 48         0.00041
       6 -> 51         0.00020
       7 ->  9         0.02061
       7 -> 12        -0.01095
       7 -> 13        -0.00454
       7 -> 16         0.00351
       7 -> 17        -0.01381
       7 -> 20        -0.00203
       7 -> 21        -0.00275
       7 -> 24        -0.00204
       7 -> 26         0.00379
       7 -> 30        -0.00130
       7 -> 32         0.00103
       7 -> 33        -0.00043
       7 -> 37        -0.00086
       7 -> 39        -0.00010
       7 -> 44         0.00018
       7 -> 47        -0.00011
       7 -> 54        -0.00017
       8 -> 11         0.70403
       8 -> 14         0.05728
       8 -> 19        -0.02579
       8 -> 22        -0.00190
       8 -> 25         0.01155
       8 -> 29        -0.00124
       8 -> 31         0.00242
       8 -> 38        -0.00369
       8 -> 40         0.00166
       8 -> 43         0.00183
       8 -> 46        -0.00128
       8 -> 50         0.00022
       3 <-  9         0.00137
       3 <- 16        -0.00117
       3 <- 17        -0.00119
       3 <- 21         0.00087
       3 <- 24        -0.00119
       3 <- 26         0.00028
       3 <- 30         0.00059
       3 <- 32         0.00029
       3 <- 33        -0.00077
       3 <- 37         0.00059
       3 <- 39         0.00028
       3 <- 44        -0.00017
       3 <- 54         0.00017
       4 <- 11        -0.00238
       4 <- 14        -0.00178
       4 <- 19        -0.00298
       4 <- 22        -0.00191
       4 <- 25        -0.00186
       4 <- 29        -0.00114
       4 <- 38        -0.00055
       4 <- 40         0.00014
       4 <- 43         0.00013
       4 <- 46        -0.00010
       5 <- 10        -0.00099
       5 <- 15        -0.00234
       5 <- 18         0.00056
       5 <- 23         0.00285
       5 <- 28         0.00041
       5 <- 34        -0.00041
       5 <- 36        -0.00043
       6 <-  9        -0.00760
       6 <- 12        -0.00478
       6 <- 13         0.00237
       6 <- 16         0.00573
       6 <- 17         0.00030
       6 <- 20        -0.00169
       6 <- 21        -0.00376
       6 <- 24         0.00274
       6 <- 26         0.00242
       6 <- 30         0.00010
       6 <- 32        -0.00235
       6 <- 33        -0.00212
       6 <- 37        -0.00199
       6 <- 39         0.00070
       6 <- 42         0.00042
       6 <- 44        -0.00099
       6 <- 47         0.00018
       6 <- 48         0.00037
       6 <- 51         0.00019
       7 <-  9         0.00436
       7 <- 12        -0.00365
       7 <- 13        -0.00114
       7 <- 16         0.00227
       7 <- 17        -0.00621
       7 <- 20        -0.00064
       7 <- 21        -0.00182
       7 <- 24        -0.00114
       7 <- 26         0.00260
       7 <- 30        -0.00096
       7 <- 32         0.00074
       7 <- 33        -0.00029
       7 <- 37        -0.00070
       7 <- 39        -0.00019
       7 <- 44         0.00014
       7 <- 54        -0.00014
       8 <- 11        -0.01746
       8 <- 14         0.00439
       8 <- 19        -0.01769
       8 <- 22        -0.00481
       8 <- 25         0.00691
       8 <- 29        -0.00121
       8 <- 31         0.00221
       8 <- 38        -0.00305
       8 <- 40         0.00112
       8 <- 43         0.00152
       8 <- 46        -0.00115
       8 <- 50         0.00024

 Excited State   5:      Singlet-A2     8.6297 eV  143.67 nm  f=0.0000  <S**2>=0.000
       3 -> 27         0.00121
       3 -> 35         0.00052
       4 -> 10        -0.00119
       4 -> 15        -0.00289
       4 -> 18         0.00124
       4 -> 23         0.00197
       4 -> 34         0.00014
       4 -> 36         0.00083
       4 -> 41        -0.00038
       5 -> 14         0.00015
       5 -> 19        -0.00028
       5 -> 22         0.00048
       5 -> 25        -0.00046
       5 -> 29        -0.00016
       5 -> 38         0.00018
       5 -> 43         0.00025
       5 -> 46         0.00014
       6 -> 27        -0.00144
       6 -> 35         0.00042
       7 -> 27        -0.00079
       7 -> 35        -0.00017
       8 -> 10        -0.00205
       8 -> 15         0.70467
       8 -> 18        -0.05701
       8 -> 23        -0.01364
       8 -> 28        -0.00044
       8 -> 34        -0.00162
       8 -> 36         0.00182
       8 -> 41        -0.00027
       8 -> 52        -0.00016
       3 <- 27         0.00092
       3 <- 35         0.00038
       4 <- 10         0.00020
       4 <- 18         0.00046
       4 <- 23         0.00014
       4 <- 28         0.00022
       4 <- 34        -0.00027
       4 <- 36         0.00033
       5 <- 11         0.00043
       5 <- 19         0.00022
       5 <- 22         0.00046
       5 <- 25        -0.00065
       5 <- 31        -0.00022
       5 <- 38         0.00035
       5 <- 40        -0.00012
       5 <- 43         0.00024
       6 <- 27        -0.00136
       6 <- 35         0.00043
       7 <- 27        -0.00036
       7 <- 35        -0.00026
       7 <- 45        -0.00012
       8 <- 10         0.00100
       8 <- 15         0.00219
       8 <- 18         0.00355
       8 <- 23         0.00083
       8 <- 34        -0.00181
       8 <- 36         0.00063
       8 <- 41        -0.00019

 Excited State   6:      Singlet-A1     8.7346 eV  141.95 nm  f=0.0448  <S**2>=0.000
       3 ->  9        -0.00055
       3 -> 12         0.00015
       3 -> 13        -0.00054
       3 -> 16         0.00097
       3 -> 17         0.00052
       3 -> 20        -0.00024
       3 -> 21        -0.00061
       3 -> 24         0.00092
       3 -> 26        -0.00023
       3 -> 30        -0.00088
       3 -> 32        -0.00073
       3 -> 39        -0.00016
       3 -> 42        -0.00027
       3 -> 47         0.00027
       3 -> 48        -0.00027
       3 -> 51        -0.00023
       3 -> 54         0.00010
       4 -> 11        -0.00087
       4 -> 14        -0.00041
       4 -> 19        -0.00030

 The electronic state is 1-A1.
 Alpha  occ. eigenvalues --  -19.47366 -10.71268  -1.17461  -1.02136  -0.99863
 Alpha  occ. eigenvalues --   -0.56541  -0.44486  -0.19476
 Alpha virt. eigenvalues --   -0.00509   0.02097   0.04440   0.04643   0.13748
 Alpha virt. eigenvalues --    0.16712   0.16772   0.18460   0.21071   0.22444
 Alpha virt. eigenvalues --    0.29636   0.36805   0.50340   0.56857   0.64008

 Mulliken charges:
               1
     1  C    0.121312
     2  H   -0.145148
     3  H   -0.145148
     4  O    0.168985
 Sum of Mulliken charges =  -0.00000

 Dipole moment (field-independent basis, Debye):
    X=              0.0000    Y=              0.0000    Z=              1.7942  Tot=              1.7942
 Quadrupole moment (field-independent basis, Debye-Ang):
   XX=             -9.8859   YY=            -14.6328   ZZ=            -13.8485
   XY=             -0.0000   XZ=             -0.0000   YZ=              0.0000

 Normal termination of Gaussian 16 at Fri Sep 17 10:52:16 2021.
