 Gaussian 16, Revision A.03,
 Gaussian 16:  ES64L-G16RevA.03 25-Dec-2016

 --------------------------------------------------------------------
 #p B3LYP/6-311+G** #p TD=(singlets,nstates=30)IOp(6/8=3) IOp(9/40=4)
 --------------------------------------------------------------------

 -------------------------------
 Scan Step 11, Bond Length 0.555
 -------------------------------
 Symbolic Z-matrix:
 Charge =  0 Multiplicity = 1

                         Standard orientation:
 ---------------------------------------------------------------------
 Center     Atomic      Atomic             Coordinates (Angstroms)
 Number     Number       Type             X           Y           Z
 ---------------------------------------------------------------------
      1          6           0        0.000000    0.000000   -0.203581
      2          1           0        0.000000    0.937260   -0.794931
      3          1           0       -0.000000   -0.937260   -0.794931
      4          8           0        0.000000   -0.000000    0.351419
 ---------------------------------------------------------------------

 SCF Done:  E(RB3LYP) =  -110.524757775     A.U. after   10 cycles

 Excitation energies and oscillator strengths:

 Excited State   1:      Singlet-B2     4.3789 eV  283.14 nm  f=0.1502  <S**2>=0.000
       3 -> 11         0.00073
       3 -> 15         0.00126
       3 -> 19         0.00074
       3 -> 22         0.00110
       3 -> 25         0.00143
       3 -> 31        -0.00033
       3 -> 37         0.00011
       3 -> 40         0.00052
       3 -> 43         0.00025
       3 -> 54         0.00016
       4 ->  9        -0.00243
       4 -> 12         0.00168
       4 -> 13         0.00290
       4 -> 16         0.00121
       4 -> 17         0.00170
       4 -> 20         0.00205
       4 -> 21         0.00154
       4 -> 24         0.00109
       4 -> 26        -0.00071
       4 -> 30         0.00153
       4 -> 32         0.00070
       4 -> 33        -0.00079
       4 -> 38        -0.00050
       4 -> 42         0.00043
       4 -> 44        -0.00024
       4 -> 47        -0.00067
       4 -> 49        -0.00011
       4 -> 51        -0.00011
       4 -> 53        -0.00014
       5 -> 28         0.00215
       5 -> 35         0.00096
       5 -> 45         0.00066
       6 -> 11        -0.00869
       6 -> 15         0.00209
       6 -> 19        -0.00192
       6 -> 22        -0.00014
       6 -> 25         0.00370
       6 -> 29         0.00103
       6 -> 31        -0.00074
       6 -> 40         0.00015
       6 -> 43         0.00018
       6 -> 46         0.00023
       7 -> 11         0.00842
       7 -> 15         0.00504
       7 -> 19         0.00392
       7 -> 22         0.00072
       7 -> 25         0.00228
       7 -> 29        -0.00095
       7 -> 31         0.00104
       7 -> 37        -0.00062
       7 -> 43        -0.00032
       7 -> 46         0.00047
       7 -> 50         0.00041
       7 -> 54        -0.00015
       8 ->  9         0.70421
       8 -> 12        -0.00614
       8 -> 13         0.06428
       8 -> 16        -0.00621
       8 -> 17        -0.02396
       8 -> 20         0.00604
       8 -> 21         0.01165
       8 -> 24        -0.00058
       8 -> 26        -0.00109
       8 -> 30        -0.00354
       8 -> 32        -0.00187
       8 -> 33         0.00093
       8 -> 38        -0.00095
       8 -> 39        -0.00025
       8 -> 42         0.00074
       8 -> 44         0.00056
       8 -> 47         0.00054
       8 -> 49         0.00026
       3 <- 11         0.00037
       3 <- 15         0.00087
       3 <- 19         0.00044
       3 <- 22         0.00094
       3 <- 25         0.00110
       3 <- 31        -0.00034
       3 <- 37         0.00013
       3 <- 40         0.00051
       3 <- 43         0.00025
       3 <- 54         0.00017
       4 <-  9        -0.00095
       4 <- 12        -0.00012
       4 <- 13         0.00237
       4 <- 16         0.00129
       4 <- 20         0.00137
       4 <- 21         0.00128
       4 <- 24         0.00062
       4 <- 26        -0.00124
       4 <- 30         0.00119
       4 <- 32         0.00036
       4 <- 33        -0.00028
       4 <- 38        -0.00033
       4 <- 39         0.00014
       4 <- 42         0.00034
       4 <- 44        -0.00021
       4 <- 47        -0.00062
       5 <- 28         0.00186
       5 <- 35         0.00080
       5 <- 45         0.00056
       6 <- 11        -0.00284
       6 <- 15         0.00253
       6 <- 19        -0.00077
       6 <- 22         0.00042
       6 <- 25         0.00290
       6 <- 29         0.00071
       6 <- 31        -0.00067
       6 <- 40         0.00015
       6 <- 43         0.00015
       6 <- 46         0.00019
       7 <- 11         0.00205
       7 <- 15         0.00252
       7 <- 19         0.00100
       7 <- 22         0.00039
       7 <- 25         0.00145
       7 <- 29        -0.00165
       7 <- 31         0.00091
       7 <- 37        -0.00038
       7 <- 43        -0.00021
       7 <- 46         0.00050
       7 <- 50         0.00050
       8 <-  9        -0.01421
       8 <- 12        -0.00765
       8 <- 13         0.02648
       8 <- 16         0.00765
       8 <- 17        -0.00058
       8 <- 20         0.00158
       8 <- 21         0.00632
       8 <- 24         0.00265
       8 <- 26        -0.00091
       8 <- 30        -0.00243
       8 <- 32        -0.00189
       8 <- 33         0.00032
       8 <- 38        -0.00093
       8 <- 39        -0.00028
       8 <- 42         0.00069
       8 <- 44         0.00025
       8 <- 47         0.00048
       8 <- 49         0.00016
 This state for optimization and/or second-order correction.
 Total Energy, E(TD-HF/TD-DFT) =  -110.363834404
 Copying the excited state density for this state as the 1-particle RhoCI density.

 Excited State   2:      Singlet-A2     4.7706 eV  259.89 nm  f=0.0000  <S**2>=0.000
       3 -> 28        -0.00203
       3 -> 35        -0.00102
       3 -> 45        -0.00029
       4 -> 10        -0.00077
       4 -> 14        -0.00087
       4 -> 18        -0.00201
       4 -> 23        -0.00051
       4 -> 27        -0.00187
       4 -> 34         0.00027
       4 -> 36        -0.00099
       4 -> 48        -0.00015
       4 -> 52        -0.00020
       5 -> 11         0.00017
       5 -> 15        -0.00021
       5 -> 19         0.00030
       5 -> 22        -0.00065
       5 -> 25         0.00023
       5 -> 29         0.00037
       5 -> 37        -0.00032
       5 -> 40        -0.00015
       5 -> 43        -0.00035
       5 -> 46        -0.00025
       5 -> 50         0.00016
       6 -> 28        -0.00319
       6 -> 35         0.00078
       6 -> 45         0.00020
       7 -> 28         0.00136
       7 -> 35        -0.00016
       7 -> 45        -0.00023
       8 -> 10         0.70671
       8 -> 14        -0.00121
       8 -> 18         0.02465
       8 -> 23        -0.00357
       8 -> 27        -0.00015
       8 -> 34         0.00353
       8 -> 36        -0.00135
       8 -> 41         0.00067
       8 -> 48         0.00015
       8 -> 52         0.00026
       3 <- 28        -0.00171
       3 <- 35        -0.00088
       3 <- 45        -0.00028
       4 <- 10        -0.00022
       4 <- 14         0.00021
       4 <- 18        -0.00079
       4 <- 23        -0.00012
       4 <- 27        -0.00051
       4 <- 34         0.00061
       4 <- 36        -0.00060
       5 <- 11         0.00042
       5 <- 15        -0.00044
       5 <- 19         0.00096
       5 <- 22        -0.00078
       5 <- 25         0.00061
       5 <- 29         0.00116
       5 <- 31         0.00011
       5 <- 37        -0.00055
       5 <- 40        -0.00011
       5 <- 43        -0.00039
       5 <- 46        -0.00028
       5 <- 54        -0.00017
       6 <- 28        -0.00314
       6 <- 35         0.00092
       6 <- 45         0.00019
       7 <- 28         0.00135
       7 <- 35        -0.00028
       7 <- 45        -0.00027
       8 <- 10         0.00294
       8 <- 14         0.00162
       8 <- 18        -0.00762
       8 <- 23        -0.00012
       8 <- 27        -0.00090
       8 <- 34         0.00335
       8 <- 36        -0.00110
       8 <- 41         0.00038
       8 <- 52         0.00011

 Excited State   3:      Singlet-B2     5.4998 eV  225.44 nm  f=0.0391  <S**2>=0.000
       3 -> 11        -0.00027
       3 -> 15         0.00040
       3 -> 19        -0.00052
       3 -> 22         0.00022
       3 -> 29        -0.00010
       3 -> 31         0.00013
       3 -> 37        -0.00015
       3 -> 40        -0.00024
       3 -> 43        -0.00017
       3 -> 54        -0.00019
       4 ->  9         0.00073
       4 -> 13         0.00082
       4 -> 16         0.00156
       4 -> 17        -0.00080
       4 -> 20        -0.00055
       4 -> 21         0.00085
       4 -> 24         0.00089
       4 -> 30        -0.00199
       4 -> 32        -0.00012
       4 -> 38         0.00047
       4 -> 39        -0.00087
       4 -> 42        -0.00030
       4 -> 47         0.00037
       5 -> 28        -0.00099
       5 -> 35        -0.00108
       5 -> 45        -0.00056
       6 -> 11        -0.00094
       6 -> 15         0.00421
       6 -> 19        -0.00199
       6 -> 22        -0.00031
       6 -> 25         0.00172
       6 -> 29         0.00233
       6 -> 31         0.00057
       6 -> 37         0.00042
       6 -> 40        -0.00037
       6 -> 43         0.00028
       6 -> 46        -0.00017
       6 -> 50        -0.00018
       6 -> 54         0.00013
       7 -> 11        -0.00101
       7 -> 15        -0.00360
       7 -> 19        -0.00124
       7 -> 22        -0.00029
       7 -> 25        -0.00271
       7 -> 29        -0.00089
       7 -> 31        -0.00042
       7 -> 37         0.00056
       7 -> 40        -0.00017
       7 -> 43         0.00011
       7 -> 46        -0.00059
       7 -> 50        -0.00027
       7 -> 54         0.00019
       8 ->  9         0.00300
       8 -> 12         0.70535
       8 -> 13         0.04282
       8 -> 16         0.02378
       8 -> 17         0.00168
       8 -> 20         0.01559
       8 -> 21         0.00527
       8 -> 24        -0.00103
       8 -> 26         0.00203
       8 -> 30        -0.00322
       8 -> 32         0.00039
       8 -> 33        -0.00033
       8 -> 38        -0.00087
       8 -> 39         0.00128
       8 -> 42         0.00096
       8 -> 44        -0.00018
       8 -> 47        -0.00018
       8 -> 51        -0.00012
       8 -> 53        -0.00011
       3 <- 11        -0.00010
       3 <- 15         0.00029
       3 <- 19        -0.00020
       3 <- 25         0.00016
       3 <- 31         0.00016
       3 <- 37        -0.00018
       3 <- 40        -0.00020
       3 <- 43        -0.00017
       3 <- 54        -0.00023
       4 <-  9        -0.00095
       4 <- 12        -0.00021
       4 <- 13         0.00092
       4 <- 16         0.00065
       4 <- 17         0.00042
       4 <- 20        -0.00035
       4 <- 21         0.00060
       4 <- 24         0.00092
       4 <- 26         0.00022
       4 <- 30        -0.00138
       4 <- 32        -0.00033
       4 <- 33        -0.00040
       4 <- 38         0.00030
       4 <- 39        -0.00062
       4 <- 42        -0.00033
       4 <- 44         0.00011
       4 <- 47         0.00034
       5 <- 28        -0.00064
       5 <- 35        -0.00095
       5 <- 45        -0.00051
       6 <- 11        -0.00087
       6 <- 15         0.00087
       6 <- 19         0.00011
       6 <- 22        -0.00054
       6 <- 25         0.00160
       6 <- 29         0.00177
       6 <- 31         0.00073
       6 <- 37         0.00043
       6 <- 40        -0.00029
       6 <- 43         0.00023
       6 <- 46        -0.00013
       6 <- 50        -0.00012
       6 <- 54         0.00012
       7 <- 11         0.00035
       7 <- 15        -0.00124
       7 <- 19        -0.00052
       7 <- 22        -0.00025
       7 <- 25        -0.00166
       7 <- 29        -0.00014
       7 <- 31        -0.00029
       7 <- 37         0.00024
       7 <- 40        -0.00011
       7 <- 46        -0.00051
       7 <- 50        -0.00034
       7 <- 54         0.00011
       8 <-  9        -0.00701
       8 <- 12         0.00062
       8 <- 13         0.01287
       8 <- 16         0.00469
       8 <- 17        -0.00204
       8 <- 20        -0.00328
       8 <- 21         0.00317
       8 <- 24         0.00052
       8 <- 30        -0.00251
       8 <- 32         0.00033
       8 <- 33        -0.00041
       8 <- 38        -0.00073
       8 <- 39         0.00121
       8 <- 42         0.00083
       8 <- 44        -0.00012
       8 <- 47        -0.00016

 Excited State   4:      Singlet-A1     5.7639 eV  215.11 nm  f=0.0000  <S**2>=0.000
       3 ->  9         0.00175
       3 -> 12        -0.00024
       3 -> 16        -0.00122
       3 -> 17        -0.00188
       3 -> 21         0.00107
       3 -> 24        -0.00129
       3 -> 26        -0.00037
       3 -> 30         0.00067
       3 -> 32        -0.00012
       3 -> 33         0.00106
       3 -> 38         0.00059
       3 -> 39         0.00033
       3 -> 44        -0.00021
       3 -> 51        -0.00010
       3 -> 53         0.00017
       4 -> 11        -0.00527
       4 -> 15        -0.00457
       4 -> 19        -0.00480
       4 -> 22        -0.00277
       4 -> 25        -0.00316
       4 -> 29        -0.00101
       4 -> 37        -0.00081
       4 -> 40         0.00013
       4 -> 43         0.00015
       4 -> 46        -0.00013
       5 -> 10        -0.00199
       5 -> 14        -0.00387
       5 -> 23         0.00381
       5 -> 34        -0.00062
       5 -> 36        -0.00055
       6 ->  9         0.01000
       6 -> 12         0.00860
       6 -> 13        -0.00296
       6 -> 16        -0.00726
       6 -> 17        -0.00437
       6 -> 20         0.00388
       6 -> 21         0.00315
       6 -> 24        -0.00476
       6 -> 26         0.00243
       6 -> 30        -0.00039
       6 -> 32         0.00362
       6 -> 33        -0.00082
       6 -> 38         0.00192
       6 -> 39        -0.00109
       6 -> 42        -0.00038
       6 -> 44         0.00097
       6 -> 47        -0.00022
       6 -> 49        -0.00038
       6 -> 51        -0.00016
       7 ->  9         0.01302
       7 -> 12        -0.01142
       7 -> 13        -0.00216
       7 -> 16         0.00547
       7 -> 17        -0.01089
       7 -> 20        -0.00280
       7 -> 21        -0.00234
       7 -> 24        -0.00083
       7 -> 26        -0.00405
       7 -> 30        -0.00110
       7 -> 32        -0.00015
       7 -> 33         0.00118
       7 -> 38        -0.00095
       7 -> 39         0.00018
       7 -> 42         0.00013
       7 -> 44        -0.00010
       7 -> 53        -0.00014
       8 -> 11         0.70424
       8 -> 15         0.05740
       8 -> 19        -0.02431
       8 -> 22        -0.00159
       8 -> 25         0.01072
       8 -> 29        -0.00208
       8 -> 31         0.00231
       8 -> 37        -0.00368
       8 -> 40         0.00102
       8 -> 43         0.00188
       8 -> 46        -0.00121
       8 -> 50         0.00024
       3 <-  9         0.00113
       3 <- 16        -0.00085
       3 <- 17        -0.00122
       3 <- 21         0.00081
       3 <- 24        -0.00096
       3 <- 26        -0.00030
       3 <- 30         0.00055
       3 <- 33         0.00082
       3 <- 38         0.00049
       3 <- 39         0.00028
       3 <- 44        -0.00017
       3 <- 53         0.00015
       4 <- 11        -0.00246
       4 <- 15        -0.00202
       4 <- 19        -0.00294
       4 <- 22        -0.00193
       4 <- 25        -0.00188
       4 <- 29        -0.00074
       4 <- 37        -0.00068
       4 <- 40         0.00013
       4 <- 43         0.00015
       5 <- 10        -0.00124
       5 <- 14        -0.00249
       5 <- 23         0.00280
       5 <- 34        -0.00053
       5 <- 36        -0.00047
       6 <-  9         0.00808
       6 <- 12         0.00426
       6 <- 13        -0.00269
       6 <- 16        -0.00519
       6 <- 17        -0.00216
       6 <- 20         0.00188
       6 <- 21         0.00309
       6 <- 24        -0.00329
       6 <- 26         0.00175
       6 <- 32         0.00270
       6 <- 33        -0.00069
       6 <- 38         0.00177
       6 <- 39        -0.00075
       6 <- 42        -0.00034
       6 <- 44         0.00092
       6 <- 47        -0.00015
       6 <- 49        -0.00034
       6 <- 51        -0.00016
       7 <-  9         0.00227
       7 <- 12        -0.00438
       7 <- 16         0.00350
       7 <- 17        -0.00520
       7 <- 20        -0.00109
       7 <- 21        -0.00179
       7 <- 24        -0.00041
       7 <- 26        -0.00280
       7 <- 30        -0.00088
       7 <- 32        -0.00013
       7 <- 33         0.00089
       7 <- 38        -0.00081
       7 <- 44        -0.00012
       7 <- 53        -0.00013
       8 <- 11        -0.01566
       8 <- 15         0.00492
       8 <- 19        -0.01727
       8 <- 22        -0.00469
       8 <- 25         0.00615
       8 <- 29        -0.00176
       8 <- 31         0.00212
       8 <- 37        -0.00301
       8 <- 40         0.00060
       8 <- 43         0.00154
       8 <- 46        -0.00110
       8 <- 50         0.00025

 Excited State   5:      Singlet-A2     8.5381 eV  145.21 nm  f=0.0000  <S**2>=0.000
       3 -> 28         0.00175
       3 -> 35         0.00089
       3 -> 45         0.00020
       4 -> 10        -0.00106
       4 -> 14        -0.00378
       4 -> 18         0.00155
       4 -> 23         0.00237
       4 -> 27         0.00014
       4 -> 34         0.00025
       4 -> 36         0.00131
       4 -> 41        -0.00033
       5 -> 19        -0.00037
       5 -> 22         0.00071
       5 -> 25        -0.00059
       5 -> 29        -0.00018
       5 -> 37         0.00026
       5 -> 40         0.00014
       5 -> 43         0.00037
       5 -> 46         0.00022
       6 -> 28         0.00193
       6 -> 35        -0.00058
       7 -> 28        -0.00109
       7 -> 45         0.00015
       8 -> 10         0.00350
       8 -> 14         0.70358
       8 -> 18        -0.06874
       8 -> 23        -0.01510
       8 -> 27        -0.00100
       8 -> 34        -0.00216
       8 -> 36         0.00220
       8 -> 41        -0.00028
       8 -> 52        -0.00022
       3 <- 28         0.00127
       3 <- 35         0.00070
       3 <- 45         0.00021
       4 <- 10         0.00025
       4 <- 14        -0.00017
       4 <- 18         0.00059
       4 <- 23         0.00019
       4 <- 27         0.00028
       4 <- 34        -0.00040
       4 <- 36         0.00052
       5 <- 11         0.00044
       5 <- 22         0.00073
       5 <- 25        -0.00090
       5 <- 31        -0.00030
       5 <- 37         0.00056
       5 <- 43         0.00038
       6 <- 28         0.00194
       6 <- 35        -0.00056
       6 <- 45        -0.00014
       7 <- 28        -0.00073
       7 <- 35        -0.00015
       8 <- 10         0.00222
       8 <- 14         0.00082
       8 <- 18         0.00431
       8 <- 23         0.00083
       8 <- 27         0.00023
       8 <- 34        -0.00238
       8 <- 36         0.00092
       8 <- 41        -0.00023

 Excited State   6:      Singlet-B2     8.7456 eV  141.77 nm  f=0.1506  <S**2>=0.000
       3 -> 11         0.00076
       3 -> 15        -0.00145
       3 -> 19         0.00163
       3 -> 22        -0.00116
       3 -> 25        -0.00049
       3 -> 29         0.00106
       3 -> 31         0.00070
       3 -> 40        -0.00069
       3 -> 43        -0.00031
       4 ->  9         0.00203
       4 -> 12        -0.00217
       4 -> 13        -0.00524
       4 -> 16        -0.00046
       4 -> 17        -0.00092
       4 -> 20        -0.00407
       4 -> 21        -0.00511
       4 -> 24        -0.00087
       4 -> 26         0.00043

 The electronic state is 1-A1.
 Alpha  occ. eigenvalues --  -19.36597 -10.56888  -1.21233  -0.95386  -0.92947
 Alpha  occ. eigenvalues --   -0.57395  -0.49145  -0.19458
 Alpha virt. eigenvalues --   -0.00135   0.02330   0.04431   0.04693   0.13991
 Alpha virt. eigenvalues --    0.16606   0.17148   0.18296   0.21493   0.22197
 Alpha virt. eigenvalues --    0.29135   0.36712   0.50533   0.57273   0.62883

 Mulliken charges:
               1
     1  C    0.147405
     2  H   -0.138939
     3  H   -0.138939
     4  O    0.130473
 Sum of Mulliken charges =  -0.00000

 Dipole moment (field-independent basis, Debye):
    X=              0.0000    Y=              0.0000    Z=              1.7424  Tot=              1.7424
 Quadrupole moment (field-independent basis, Debye-Ang):
   XX=             -9.9634   YY=            -14.4634   ZZ=            -13.7684
   XY=             -0.0000   XZ=             -0.0000   YZ=              0.0000

 Normal termination of Gaussian 16 at Fri Sep 17 10:52:18 2021.
