 Gaussian 16, Revision C.01,
 Gaussian 16:  ES64L-G16RevC.01  3-Jul-2019

 ---------------------------------------
 #P wB97XD/6-311+G* NoSymm #P Field=Z+77
 ---------------------------------------

 -------
 TitleMe
 -------
 Symbolic Z-matrix:
 Charge =  1 Multiplicity = 1

                          Input orientation:
 ---------------------------------------------------------------------
 Center     Atomic      Atomic             Coordinates (Angstroms)
 Number     Number       Type             X           Y           Z
 ---------------------------------------------------------------------
      1          6           0        0.519300    1.233000   -0.031900
      2          6           0        1.944500    1.269200   -0.036700
      3          6           0        2.620400    0.092800   -0.025000
      4          6           0       -0.196000    0.030100    0.001000
      5          1           0       -0.020700    2.174200   -0.043400
      6          1           0        2.482800    2.208900   -0.036100
      7          1           0       -1.277700    0.039900    0.011700
      8          7           0        4.092100    0.095900    0.036600
      9          8           0        4.639300   -1.021700    0.144600
     10          8           0        4.664900    1.198400   -0.023300
     11          6           0        0.494300   -1.167100    0.021000
     12          1           0       -0.032500   -2.114900    0.054500
     13          6           0        1.962900   -1.216500   -0.021100
     14          1           0        2.443600   -1.963100    0.615100
     15         35           0        2.173000   -1.949100   -1.906200
 ---------------------------------------------------------------------

 SCF Done:  E(RwB97XD) =  -3010.53627718     A.U. after   19 cycles

 Alpha  occ. eigenvalues -- -483.29810 -62.84809 -56.64528 -56.63926 -56.63911
 Alpha  occ. eigenvalues --  -19.45991 -19.45987 -14.85397 -10.58683 -10.57215
 Alpha  occ. eigenvalues --  -10.56730 -10.56310 -10.52859 -10.52245  -9.00598
 Alpha  occ. eigenvalues --   -6.83344  -6.81377  -6.81333  -2.93232  -2.92719
 Alpha  occ. eigenvalues --   -2.92683  -2.91110  -2.91109  -1.49673  -1.32639
 Alpha  occ. eigenvalues --   -1.21814  -1.12277  -1.11724  -1.03789  -0.99654
 Alpha  occ. eigenvalues --   -0.94747  -0.90053  -0.84584  -0.80513  -0.79752
 Alpha  occ. eigenvalues --   -0.79654  -0.77425  -0.75878  -0.75051  -0.71216
 Alpha  occ. eigenvalues --   -0.67978  -0.67030  -0.62491  -0.59015  -0.57149
 Alpha  occ. eigenvalues --   -0.56393  -0.55688  -0.54598  -0.53357
 Alpha virt. eigenvalues --   -0.29366  -0.20011  -0.14646  -0.12612  -0.09132
 Alpha virt. eigenvalues --   -0.06504  -0.06148  -0.05046  -0.03139  -0.02813
 Alpha virt. eigenvalues --   -0.01857  -0.01702  -0.00297   0.00532   0.01478

 Mulliken charges:
               1
     1  C   -0.129892
     2  C    0.209771
     3  C   -0.059352
     4  C   -0.331631
     5  H    0.344218
     6  H    0.349127
     7  H    0.328677
     8  N   -0.256360
     9  O    0.088083
    10  O    0.069342
    11  C   -0.222694
    12  H    0.354315
    13  C   -0.388584
    14  H    0.386355
    15  Br   0.258625
 Sum of Mulliken charges =   1.00000

 Dipole moment (field-independent basis, Debye):
    X=              2.8965    Y=             -1.2180    Z=             -2.1375  Tot=              3.8002
 Quadrupole moment (field-independent basis, Debye-Ang):
   XX=            -67.8731   YY=            -50.6532   ZZ=            -60.4420
   XY=             -3.6019   XZ=             -5.4206   YZ=              3.8108

 Normal termination of Gaussian 16 at Thu May  2 14:19:12 2024.
