 Gaussian 16, Revision C.01,
 Gaussian 16:  ES64L-G16RevC.01  3-Jul-2019

 ---------------------------------------
 #P wB97XD/6-311+G* NoSymm #P Field=X+48
 ---------------------------------------

 -------
 TitleMe
 -------
 Symbolic Z-matrix:
 Charge =  1 Multiplicity = 1

                          Input orientation:
 ---------------------------------------------------------------------
 Center     Atomic      Atomic             Coordinates (Angstroms)
 Number     Number       Type             X           Y           Z
 ---------------------------------------------------------------------
      1          6           0        0.029500    1.339700    0.068200
      2          6           0        1.434800    1.286700    0.006400
      3          6           0        2.111800    0.051100   -0.005400
      4          6           0        1.445100   -1.137200    0.031200
      5          6           0       -0.687900    0.168200    0.110000
      6          1           0       -0.471300    2.298400    0.078100
      7          1           0        2.027300    2.196500   -0.032200
      8          1           0        1.989700   -2.076400    0.023200
      9          1           0       -1.771600    0.180400    0.158200
     10          7           0        3.586400    0.051000   -0.067500
     11          8           0        4.147100   -1.059700   -0.088100
     12          8           0        4.145000    1.163900   -0.090100
     13          6           0       -0.023600   -1.145800    0.083500
     14          1           0       -0.436700   -1.872500    0.788900
     15         35           0       -0.535900   -1.869700   -1.740800
 ---------------------------------------------------------------------

 SCF Done:  E(RwB97XD) =  -3010.53826244     A.U. after   18 cycles

 Alpha  occ. eigenvalues -- -483.31401 -62.86420 -56.66117 -56.65539 -56.65535
 Alpha  occ. eigenvalues --  -19.48135 -19.48060 -14.87571 -10.58490 -10.58158
 Alpha  occ. eigenvalues --  -10.58084 -10.57756 -10.57024 -10.53189  -9.02221
 Alpha  occ. eigenvalues --   -6.84912  -6.83019  -6.83002  -2.94814  -2.94312
 Alpha  occ. eigenvalues --   -2.94296  -2.92783  -2.92782  -1.51889  -1.34893
 Alpha  occ. eigenvalues --   -1.23227  -1.14734  -1.12246  -1.04736  -1.02125
 Alpha  occ. eigenvalues --   -0.95934  -0.91666  -0.86567  -0.82061  -0.81968
 Alpha  occ. eigenvalues --   -0.81566  -0.78724  -0.78038  -0.76375  -0.72762
 Alpha  occ. eigenvalues --   -0.69668  -0.67996  -0.64201  -0.60541  -0.59365
 Alpha  occ. eigenvalues --   -0.58586  -0.57964  -0.56443  -0.55462
 Alpha virt. eigenvalues --   -0.30008  -0.22945  -0.15966  -0.14191  -0.09027
 Alpha virt. eigenvalues --   -0.06494  -0.06068  -0.05237  -0.04984  -0.03568
 Alpha virt. eigenvalues --   -0.03008  -0.02486  -0.01683  -0.00765   0.00204

 Mulliken charges:
               1
     1  C   -0.589803
     2  C    0.534491
     3  C   -0.730020
     4  C    0.264156
     5  C    0.019039
     6  H    0.343893
     7  H    0.357588
     8  H    0.366693
     9  H    0.371998
    10  N   -0.105139
    11  O    0.009557
    12  O    0.006325
    13  C   -0.462098
    14  H    0.411879
    15  Br   0.201441
 Sum of Mulliken charges =   1.00000

 Dipole moment (field-independent basis, Debye):
    X=             -2.2646    Y=             -0.7501    Z=             -0.1381  Tot=              2.3896
 Quadrupole moment (field-independent basis, Debye-Ang):
   XX=            -74.6334   YY=            -51.8401   ZZ=            -62.2722
   XY=              1.5252   XZ=              1.4788   YZ=              1.9952

 Normal termination of Gaussian 16 at Wed May  1 14:45:47 2024.
