 Gaussian 16, Revision C.01,
 Gaussian 16:  ES64L-G16RevC.01  3-Jul-2019

 ----------------------------------------
 #P wB97XD/6-311+G* NoSymm #P Field=X+175
 ----------------------------------------

 -------
 TitleMe
 -------
 Symbolic Z-matrix:
 Charge =  1 Multiplicity = 1

                          Input orientation:
 ---------------------------------------------------------------------
 Center     Atomic      Atomic             Coordinates (Angstroms)
 Number     Number       Type             X           Y           Z
 ---------------------------------------------------------------------
      1          6           0        0.519300    1.233000   -0.031900
      2          6           0        1.944500    1.269200   -0.036700
      3          6           0        2.620400    0.092800   -0.025000
      4          6           0       -0.196000    0.030100    0.001000
      5          1           0       -0.020700    2.174200   -0.043400
      6          1           0        2.482800    2.208900   -0.036100
      7          1           0       -1.277700    0.039900    0.011700
      8          7           0        4.092100    0.095900    0.036600
      9          8           0        4.639300   -1.021700    0.144600
     10          8           0        4.664900    1.198400   -0.023300
     11          6           0        0.494300   -1.167100    0.021000
     12          1           0       -0.032500   -2.114900    0.054500
     13          6           0        1.962900   -1.216500   -0.021100
     14          1           0        2.443600   -1.963100    0.615100
     15         35           0        2.173000   -1.949100   -1.906200
 ---------------------------------------------------------------------

 SCF Done:  E(RwB97XD) =  -3010.52990493     A.U. after   19 cycles

 Alpha  occ. eigenvalues -- -483.37239 -62.92273 -56.71954 -56.71400 -56.71392
 Alpha  occ. eigenvalues --  -19.57186 -19.57082 -14.96282 -10.65536 -10.64272
 Alpha  occ. eigenvalues --  -10.62166 -10.61464 -10.60311 -10.56679  -9.08087
 Alpha  occ. eigenvalues --   -6.90735  -6.88914  -6.88888  -3.00646  -3.00165
 Alpha  occ. eigenvalues --   -3.00144  -2.98687  -2.98686  -1.60757  -1.43829
 Alpha  occ. eigenvalues --   -1.28533  -1.19136  -1.18368  -1.10969  -1.07140
 Alpha  occ. eigenvalues --   -1.00853  -0.97066  -0.93698  -0.90756  -0.89147
 Alpha  occ. eigenvalues --   -0.86760  -0.84310  -0.82788  -0.81614  -0.77660
 Alpha  occ. eigenvalues --   -0.72881  -0.72645  -0.69011  -0.68457  -0.67845
 Alpha  occ. eigenvalues --   -0.67080  -0.65473  -0.62560  -0.60860
 Alpha virt. eigenvalues --   -0.36158  -0.29059  -0.21834  -0.19402  -0.16574
 Alpha virt. eigenvalues --   -0.13623  -0.12841  -0.12242  -0.10874  -0.08786
 Alpha virt. eigenvalues --   -0.08272  -0.07746  -0.07553  -0.06524  -0.05628

 Mulliken charges:
               1
     1  C   -0.133933
     2  C    0.176853
     3  C   -0.161796
     4  C   -0.310020
     5  H    0.388842
     6  H    0.329442
     7  H    0.408808
     8  N   -0.236433
     9  O    0.019848
    10  O   -0.014936
    11  C   -0.150687
    12  H    0.399421
    13  C   -0.256283
    14  H    0.390172
    15  Br   0.150704
 Sum of Mulliken charges =   1.00000

 Dipole moment (field-independent basis, Debye):
    X=             -2.2215    Y=             -0.6588    Z=             -0.5156  Tot=              2.3738
 Quadrupole moment (field-independent basis, Debye-Ang):
   XX=            -87.9765   YY=            -51.5182   ZZ=            -62.7354
   XY=             -1.6983   XZ=             -1.1941   YZ=              1.8978

 Normal termination of Gaussian 16 at Thu May  2 14:18:33 2024.
