 Gaussian 16, Revision C.01,
 Gaussian 16:  ES64L-G16RevC.01  3-Jul-2019

 ----------------------------------------
 #P wB97XD/6-311+G* NoSymm #P Field=Y-252
 ----------------------------------------

 -------
 TitleMe
 -------
 Symbolic Z-matrix:
 Charge =  1 Multiplicity = 1

                          Input orientation:
 ---------------------------------------------------------------------
 Center     Atomic      Atomic             Coordinates (Angstroms)
 Number     Number       Type             X           Y           Z
 ---------------------------------------------------------------------
      1          6           0        0.519300    1.233000   -0.031900
      2          6           0        1.944500    1.269200   -0.036700
      3          6           0        2.620400    0.092800   -0.025000
      4          6           0       -0.196000    0.030100    0.001000
      5          1           0       -0.020700    2.174200   -0.043400
      6          1           0        2.482800    2.208900   -0.036100
      7          1           0       -1.277700    0.039900    0.011700
      8          7           0        4.092100    0.095900    0.036600
      9          8           0        4.639300   -1.021700    0.144600
     10          8           0        4.664900    1.198400   -0.023300
     11          6           0        0.494300   -1.167100    0.021000
     12          1           0       -0.032500   -2.114900    0.054500
     13          6           0        1.962900   -1.216500   -0.021100
     14          1           0        2.443600   -1.963100    0.615100
     15         35           0        2.173000   -1.949100   -1.906200
 ---------------------------------------------------------------------

 SCF Done:  E(RwB97XD) =  -3010.55970257     A.U. after   22 cycles

 Alpha  occ. eigenvalues -- -483.35384 -62.90444 -56.70080 -56.69592 -56.69582
 Alpha  occ. eigenvalues --  -19.46950 -19.46455 -14.85988 -10.61769 -10.59912
 Alpha  occ. eigenvalues --  -10.59256 -10.57512 -10.54236 -10.53129  -9.06278
 Alpha  occ. eigenvalues --   -6.88796  -6.87181  -6.87148  -2.98738  -2.98311
 Alpha  occ. eigenvalues --   -2.98284  -2.96991  -2.96990  -1.50304  -1.33262
 Alpha  occ. eigenvalues --   -1.24240  -1.14931  -1.13706  -1.07529  -1.01731
 Alpha  occ. eigenvalues --   -0.96851  -0.91728  -0.86251  -0.81836  -0.81522
 Alpha  occ. eigenvalues --   -0.80699  -0.79370  -0.77012  -0.76411  -0.73983
 Alpha  occ. eigenvalues --   -0.69544  -0.67891  -0.64888  -0.62775  -0.61141
 Alpha  occ. eigenvalues --   -0.58469  -0.57850  -0.56340  -0.55898
 Alpha virt. eigenvalues --   -0.31921  -0.21392  -0.21013  -0.19316  -0.16600
 Alpha virt. eigenvalues --   -0.15207  -0.13668  -0.10925  -0.10311  -0.08870
 Alpha virt. eigenvalues --   -0.07090  -0.05935  -0.05290  -0.04475  -0.02450

 Mulliken charges:
               1
     1  C   -0.122937
     2  C    0.243860
     3  C   -0.028328
     4  C   -0.279083
     5  H    0.442111
     6  H    0.437879
     7  H    0.339599
     8  N   -0.233667
     9  O   -0.044778
    10  O    0.215347
    11  C   -0.186599
    12  H    0.259460
    13  C   -0.389571
    14  H    0.348731
    15  Br  -0.002024
 Sum of Mulliken charges =   1.00000

 Dipole moment (field-independent basis, Debye):
    X=              2.3991    Y=              6.5453    Z=              0.2307  Tot=              6.9749
 Quadrupole moment (field-independent basis, Debye-Ang):
   XX=            -68.2613   YY=            -56.0371   ZZ=            -65.0254
   XY=             12.5212   XZ=             -0.4324   YZ=             -1.5188

 Normal termination of Gaussian 16 at Thu May  2 14:21:09 2024.
