 Gaussian 16, Revision C.01,
 Gaussian 16:  ES64L-G16RevC.01  3-Jul-2019

 ----------------------------------------
 #P wB97XD/6-311+G* NoSymm #P Field=Z-282
 ----------------------------------------

 -------
 TitleMe
 -------
 Symbolic Z-matrix:
 Charge =  1 Multiplicity = 1

                          Input orientation:
 ---------------------------------------------------------------------
 Center     Atomic      Atomic             Coordinates (Angstroms)
 Number     Number       Type             X           Y           Z
 ---------------------------------------------------------------------
      1          6           0        0.519300    1.233000   -0.031900
      2          6           0        1.944500    1.269200   -0.036700
      3          6           0        2.620400    0.092800   -0.025000
      4          6           0       -0.196000    0.030100    0.001000
      5          1           0       -0.020700    2.174200   -0.043400
      6          1           0        2.482800    2.208900   -0.036100
      7          1           0       -1.277700    0.039900    0.011700
      8          7           0        4.092100    0.095900    0.036600
      9          8           0        4.639300   -1.021700    0.144600
     10          8           0        4.664900    1.198400   -0.023300
     11          6           0        0.494300   -1.167100    0.021000
     12          1           0       -0.032500   -2.114900    0.054500
     13          6           0        1.962900   -1.216500   -0.021100
     14          1           0        2.443600   -1.963100    0.615100
     15         35           0        2.173000   -1.949100   -1.906200
 ---------------------------------------------------------------------

 SCF Done:  E(RwB97XD) =  -3010.55169687     A.U. after   22 cycles

 Alpha  occ. eigenvalues -- -483.36305 -62.91381 -56.70993 -56.70537 -56.70533
 Alpha  occ. eigenvalues --  -19.47130 -19.47043 -14.86570 -10.60991 -10.60957
 Alpha  occ. eigenvalues --  -10.59133 -10.59070 -10.55131 -10.54407  -9.07224
 Alpha  occ. eigenvalues --   -6.89679  -6.88153  -6.88147  -2.99636  -2.99224
 Alpha  occ. eigenvalues --   -2.99219  -2.97996  -2.97995  -1.50764  -1.33704
 Alpha  occ. eigenvalues --   -1.24572  -1.15806  -1.14190  -1.08346  -1.02212
 Alpha  occ. eigenvalues --   -0.97282  -0.92295  -0.86212  -0.82344  -0.81656
 Alpha  occ. eigenvalues --   -0.81223  -0.79516  -0.77502  -0.77073  -0.74805
 Alpha  occ. eigenvalues --   -0.70383  -0.69369  -0.66110  -0.63810  -0.62081
 Alpha  occ. eigenvalues --   -0.58770  -0.58140  -0.56868  -0.56598
 Alpha virt. eigenvalues --   -0.32701  -0.24106  -0.21669  -0.19304  -0.17096
 Alpha virt. eigenvalues --   -0.15654  -0.14354  -0.11759  -0.10151  -0.09543
 Alpha virt. eigenvalues --   -0.06672  -0.06310  -0.04319  -0.03644  -0.02840

 Mulliken charges:
               1
     1  C   -0.038914
     2  C    0.058671
     3  C   -0.104308
     4  C   -0.378469
     5  H    0.356175
     6  H    0.361661
     7  H    0.345472
     8  N   -0.190045
     9  O    0.094730
    10  O    0.079497
    11  C   -0.116206
    12  H    0.370456
    13  C   -0.239165
    14  H    0.501665
    15  Br  -0.101221
 Sum of Mulliken charges =   1.00000

 Dipole moment (field-independent basis, Debye):
    X=              2.4221    Y=              0.1862    Z=              4.3445  Tot=              4.9775
 Quadrupole moment (field-independent basis, Debye-Ang):
   XX=            -67.7519   YY=            -52.9810   ZZ=            -69.4942
   XY=             -0.8189   XZ=              7.9210   YZ=             -2.5347

 Normal termination of Gaussian 16 at Thu May  2 14:21:54 2024.
