 Gaussian 16, Revision A.03,
 Gaussian 16:  ES64L-G16RevA.03 25-Dec-2016

 --------------------------------------------------------------------
 #p B3LYP/6-311+G** #p TD=(singlets,nstates=30)IOp(6/8=3) IOp(9/40=4)
 --------------------------------------------------------------------

 ------------------------------
 Scan Step 32, Bond Length 0.66
 ------------------------------
 Symbolic Z-matrix:
 Charge =  0 Multiplicity = 1

                         Standard orientation:
 ---------------------------------------------------------------------
 Center     Atomic      Atomic             Coordinates (Angstroms)
 Number     Number       Type             X           Y           Z
 ---------------------------------------------------------------------
      1          6           0        0.000000    0.000000   -0.256081
      2          1           0        0.000000    0.937260   -0.847431
      3          1           0       -0.000000   -0.937260   -0.847431
      4          8           0        0.000000   -0.000000    0.403919
 ---------------------------------------------------------------------

 SCF Done:  E(RB3LYP) =  -112.568513315     A.U. after   10 cycles

 Excitation energies and oscillator strengths:

 Excited State   1:      Singlet-B2     4.7690 eV  259.98 nm  f=0.1270  <S**2>=0.000
       3 -> 11         0.00075
       3 -> 16         0.00067
       3 -> 19         0.00075
       3 -> 22         0.00051
       3 -> 24        -0.00102
       3 -> 29         0.00019
       3 -> 32        -0.00020
       3 -> 40        -0.00024
       3 -> 43         0.00021
       3 -> 53         0.00015
       4 ->  9        -0.00283
       4 -> 12         0.00280
       4 -> 13         0.00343
       4 -> 15         0.00149
       4 -> 18         0.00267
       4 -> 20         0.00206
       4 -> 21         0.00167
       4 -> 25         0.00144
       4 -> 26        -0.00077
       4 -> 30         0.00081
       4 -> 31         0.00150
       4 -> 33         0.00023
       4 -> 38        -0.00064
       4 -> 42        -0.00048
       4 -> 44        -0.00029
       4 -> 47        -0.00077
       4 -> 49        -0.00014
       4 -> 51        -0.00011
       5 -> 28         0.00186
       5 -> 35         0.00083
       5 -> 45         0.00078
       6 -> 11        -0.00524
       6 -> 16         0.00353
       6 -> 19         0.00046
       6 -> 22        -0.00068
       6 -> 24        -0.00463
       6 -> 29         0.00070
       6 -> 32        -0.00071
       6 -> 37         0.00017
       6 -> 43         0.00015
       6 -> 46         0.00034
       7 -> 11         0.00845
       7 -> 16         0.00351
       7 -> 19         0.00305
       7 -> 22         0.00013
       7 -> 24        -0.00056
       7 -> 29        -0.00113
       7 -> 32         0.00090
       7 -> 37        -0.00070
       7 -> 43        -0.00041
       7 -> 46         0.00040
       7 -> 50         0.00043
       7 -> 53        -0.00011
       8 ->  9         0.70518
       8 -> 12        -0.00039
       8 -> 13         0.05011
       8 -> 15        -0.00606
       8 -> 18        -0.02223
       8 -> 20         0.00540
       8 -> 21         0.01041
       8 -> 25        -0.00023
       8 -> 26        -0.00046
       8 -> 30        -0.00317
       8 -> 31        -0.00201
       8 -> 33        -0.00099
       8 -> 38        -0.00111
       8 -> 42        -0.00075
       8 -> 44         0.00035
       8 -> 47         0.00074
       8 -> 49         0.00027
       8 -> 51         0.00011
       3 <- 11         0.00033
       3 <- 16         0.00033
       3 <- 19         0.00049
       3 <- 22         0.00041
       3 <- 24        -0.00077
       3 <- 29         0.00015
       3 <- 32        -0.00021
       3 <- 40        -0.00025
       3 <- 43         0.00021
       3 <- 53         0.00016
       4 <-  9        -0.00123
       4 <- 12        -0.00021
       4 <- 13         0.00282
       4 <- 15         0.00175
       4 <- 18         0.00051
       4 <- 20         0.00121
       4 <- 21         0.00132
       4 <- 25         0.00113
       4 <- 26        -0.00133
       4 <- 30         0.00062
       4 <- 31         0.00063
       4 <- 33         0.00021
       4 <- 38        -0.00042
       4 <- 39         0.00015
       4 <- 42        -0.00039
       4 <- 44        -0.00024
       4 <- 47        -0.00069
       5 <- 28         0.00155
       5 <- 35         0.00067
       5 <- 45         0.00066
       6 <- 11        -0.00102
       6 <- 16         0.00312
       6 <- 19         0.00069
       6 <- 24        -0.00340
       6 <- 29         0.00022
       6 <- 32        -0.00062
       6 <- 37         0.00023
       6 <- 43         0.00011
       6 <- 46         0.00032
       6 <- 50         0.00018
       7 <- 11         0.00185
       7 <- 16         0.00145
       7 <- 19         0.00034
       7 <- 24         0.00011
       7 <- 29        -0.00162
       7 <- 32         0.00073
       7 <- 37        -0.00044
       7 <- 43        -0.00028
       7 <- 46         0.00043
       7 <- 50         0.00049
       8 <-  9        -0.00910
       8 <- 12        -0.00564
       8 <- 13         0.02087
       8 <- 15         0.00646
       8 <- 18         0.00131
       8 <- 20         0.00064
       8 <- 21         0.00533
       8 <- 25         0.00305
       8 <- 30        -0.00209
       8 <- 31        -0.00138
       8 <- 33        -0.00136
       8 <- 38        -0.00107
       8 <- 42        -0.00064
       8 <- 47         0.00064
       8 <- 49         0.00019
 This state for optimization and/or second-order correction.
 Total Energy, E(TD-HF/TD-DFT) =  -112.393255490
 Copying the excited state density for this state as the 1-particle RhoCI density.

 Excited State   2:      Singlet-A2     5.1039 eV  242.92 nm  f=0.0000  <S**2>=0.000
       3 -> 28        -0.00185
       3 -> 35        -0.00112
       3 -> 45        -0.00039
       4 -> 10        -0.00086
       4 -> 14         0.00059
       4 -> 17        -0.00344
       4 -> 23         0.00148
       4 -> 27        -0.00217
       4 -> 36        -0.00141
       4 -> 41        -0.00014
       4 -> 48        -0.00014
       4 -> 52        -0.00026
       5 -> 11         0.00027
       5 -> 16        -0.00016
       5 -> 19         0.00035
       5 -> 22        -0.00088
       5 -> 24        -0.00024
       5 -> 29         0.00024
       5 -> 32        -0.00011
       5 -> 37        -0.00032
       5 -> 40         0.00011
       5 -> 43        -0.00038
       5 -> 46        -0.00034
       5 -> 50         0.00018
       6 -> 28        -0.00320
       6 -> 35         0.00049
       7 -> 28         0.00157
       7 -> 35        -0.00034
       7 -> 45        -0.00043
       8 -> 10         0.70621
       8 -> 14        -0.02303
       8 -> 17         0.02773
       8 -> 23         0.00321
       8 -> 27         0.00135
       8 -> 34         0.00324
       8 -> 36        -0.00186
       8 -> 41         0.00030
       8 -> 48         0.00014
       8 -> 52         0.00035
       3 <- 28        -0.00152
       3 <- 35        -0.00097
       3 <- 45        -0.00038
       4 <- 10        -0.00018
       4 <- 14         0.00064
       4 <- 17        -0.00077
       4 <- 23         0.00013
       4 <- 27        -0.00039
       4 <- 34         0.00074
       4 <- 36        -0.00079
       4 <- 41        -0.00021
       5 <- 11         0.00058
       5 <- 16        -0.00055
       5 <- 19         0.00143
       5 <- 22        -0.00125
       5 <- 24        -0.00109
       5 <- 29         0.00130
       5 <- 32         0.00020
       5 <- 37        -0.00071
       5 <- 43        -0.00042
       5 <- 46        -0.00035
       5 <- 53        -0.00024
       6 <- 28        -0.00310
       6 <- 35         0.00062
       7 <- 28         0.00163
       7 <- 35        -0.00044
       7 <- 45        -0.00043
       8 <- 10         0.00166
       8 <- 14         0.00486
       8 <- 17        -0.00637
       8 <- 23         0.00019
       8 <- 27        -0.00055
       8 <- 34         0.00311
       8 <- 36        -0.00149
       8 <- 41         0.00020
       8 <- 52         0.00013

 Excited State   3:      Singlet-B2     5.7259 eV  216.53 nm  f=0.0346  <S**2>=0.000
       3 -> 11        -0.00016
       3 -> 16         0.00045
       3 -> 19        -0.00030
       3 -> 22         0.00030
       3 -> 24        -0.00031
       3 -> 29        -0.00036
       3 -> 32         0.00012
       3 -> 37        -0.00020
       3 -> 40         0.00011
       3 -> 43        -0.00021
       3 -> 46         0.00014
       3 -> 50         0.00010
       3 -> 53        -0.00017
       4 ->  9         0.00165
       4 -> 12         0.00031
       4 -> 13         0.00120
       4 -> 15         0.00236
       4 -> 18        -0.00126
       4 -> 20        -0.00052
       4 -> 21         0.00118
       4 -> 25         0.00086
       4 -> 26         0.00053
       4 -> 30        -0.00217
       4 -> 31        -0.00046
       4 -> 38         0.00027
       4 -> 39        -0.00096
       4 -> 42         0.00031
       4 -> 47         0.00051
       5 -> 28        -0.00099
       5 -> 35        -0.00121
       5 -> 45        -0.00068
       6 -> 11        -0.00060
       6 -> 16         0.00364
       6 -> 19        -0.00177
       6 -> 24        -0.00185
       6 -> 29         0.00185
       6 -> 32         0.00040
       6 -> 37         0.00061
       6 -> 40         0.00043
       6 -> 43         0.00030
       6 -> 46        -0.00031
       6 -> 50        -0.00025
       6 -> 53         0.00014
       7 -> 11        -0.00200
       7 -> 16        -0.00431
       7 -> 19        -0.00116
       7 -> 22         0.00060
       7 -> 24         0.00317
       7 -> 29        -0.00104
       7 -> 32        -0.00047
       7 -> 37         0.00053
       7 -> 43         0.00015
       7 -> 46        -0.00056
       7 -> 50        -0.00029
       7 -> 53         0.00014
       8 ->  9        -0.00117
       8 -> 12         0.70568
       8 -> 13         0.03276
       8 -> 15         0.02702
       8 -> 18         0.00779
       8 -> 20         0.01579
       8 -> 21         0.00537
       8 -> 25        -0.00090
       8 -> 26         0.00182
       8 -> 30        -0.00263
       8 -> 31         0.00050
       8 -> 33        -0.00023
       8 -> 38        -0.00043
       8 -> 39         0.00142
       8 -> 42        -0.00087
       8 -> 47        -0.00041
       8 -> 54        -0.00015
       3 <- 16         0.00044
       3 <- 22         0.00015
       3 <- 24        -0.00037
       3 <- 29        -0.00021
       3 <- 32         0.00013
       3 <- 37        -0.00022
       3 <- 43        -0.00019
       3 <- 46         0.00010
       3 <- 53        -0.00022
       4 <-  9        -0.00117
       4 <- 12        -0.00016
       4 <- 13         0.00124
       4 <- 15         0.00069
       4 <- 18         0.00060
       4 <- 20        -0.00042
       4 <- 21         0.00081
       4 <- 25         0.00097
       4 <- 26         0.00059
       4 <- 30        -0.00144
       4 <- 33        -0.00058
       4 <- 38         0.00018
       4 <- 39        -0.00071
       4 <- 42         0.00033
       4 <- 47         0.00047
       5 <- 28        -0.00060
       5 <- 35        -0.00105
       5 <- 45        -0.00060
       6 <- 11        -0.00046
       6 <- 16         0.00075
       6 <- 19         0.00030
       6 <- 22        -0.00057
       6 <- 24        -0.00156
       6 <- 29         0.00140
       6 <- 32         0.00058
       6 <- 37         0.00057
       6 <- 40         0.00037
       6 <- 43         0.00020
       6 <- 46        -0.00026
       6 <- 50        -0.00018
       7 <- 16        -0.00142
       7 <- 19        -0.00058
       7 <- 22         0.00041
       7 <- 24         0.00182
       7 <- 29        -0.00024
       7 <- 32        -0.00038
       7 <- 37         0.00018
       7 <- 46        -0.00050
       7 <- 50        -0.00037
       8 <-  9        -0.00517
       8 <- 12         0.00102
       8 <- 13         0.01123
       8 <- 15         0.00439
       8 <- 18        -0.00117
       8 <- 20        -0.00306
       8 <- 21         0.00331
       8 <- 25         0.00065
       8 <- 30        -0.00223
       8 <- 31         0.00046
       8 <- 33        -0.00012
       8 <- 38        -0.00026
       8 <- 39         0.00124
       8 <- 42        -0.00075
       8 <- 47        -0.00033

 Excited State   4:      Singlet-A1     5.9019 eV  210.07 nm  f=0.0073  <S**2>=0.000
       3 ->  9         0.00128
       3 -> 12        -0.00048
       3 -> 13         0.00021
       3 -> 15        -0.00073
       3 -> 18        -0.00152
       3 -> 20        -0.00012
       3 -> 21         0.00081
       3 -> 25        -0.00066
       3 -> 26        -0.00030
       3 -> 30         0.00069
       3 -> 31        -0.00077
       3 -> 33         0.00043
       3 -> 38         0.00036
       3 -> 39         0.00033
       3 -> 47        -0.00012
       3 -> 51         0.00019
       3 -> 54        -0.00012
       4 -> 11        -0.00607
       4 -> 16        -0.00622
       4 -> 19        -0.00466
       4 -> 22        -0.00243
       4 -> 24         0.00326
       4 -> 29         0.00017
       4 -> 37        -0.00102
       4 -> 40        -0.00012
       4 -> 43         0.00025
       4 -> 50         0.00018
       5 -> 10        -0.00335
       5 -> 14        -0.00357
       5 -> 17        -0.00268
       5 -> 23        -0.00345
       5 -> 27        -0.00088
       5 -> 34        -0.00087
       5 -> 36        -0.00059
       5 -> 41        -0.00010
       5 -> 48         0.00021
       6 ->  9         0.01151
       6 -> 12         0.00614
       6 -> 13        -0.00402
       6 -> 15        -0.00428
       6 -> 18        -0.00723
       6 -> 20         0.00452
       6 -> 21         0.00132
       6 -> 25        -0.00566
       6 -> 26         0.00088
       6 -> 30        -0.00035
       6 -> 31         0.00155
       6 -> 33         0.00199
       6 -> 38         0.00124
       6 -> 39        -0.00113
       6 -> 42         0.00014
       6 -> 44         0.00061
       6 -> 49        -0.00044
       7 ->  9         0.00694
       7 -> 12        -0.01226
       7 -> 13         0.00123
       7 -> 15         0.00525
       7 -> 18        -0.00700
       7 -> 20        -0.00383
       7 -> 21        -0.00074
       7 -> 25         0.00178
       7 -> 26        -0.00304
       7 -> 30        -0.00067
       7 -> 31        -0.00182
       7 -> 33         0.00011
       7 -> 38        -0.00072
       7 -> 39         0.00057
       7 -> 42        -0.00014
       7 -> 44        -0.00036
       7 -> 51        -0.00016
       8 -> 11         0.70471
       8 -> 16         0.05290
       8 -> 19        -0.01952
       8 -> 22        -0.00067
       8 -> 24        -0.00697
       8 -> 29        -0.00383
       8 -> 32         0.00198
       8 -> 37        -0.00329
       8 -> 40        -0.00040
       8 -> 43         0.00185
       8 -> 46        -0.00093
       8 -> 50         0.00019
       3 <-  9         0.00071
       3 <- 12        -0.00023
       3 <- 13         0.00016
       3 <- 15        -0.00046
       3 <- 18        -0.00097
       3 <- 20        -0.00010
       3 <- 21         0.00054
       3 <- 25        -0.00051
       3 <- 26        -0.00024
       3 <- 30         0.00052
       3 <- 31        -0.00052
       3 <- 33         0.00037
       3 <- 38         0.00028
       3 <- 39         0.00027
       3 <- 47        -0.00015
       3 <- 51         0.00016
       3 <- 54        -0.00011
       4 <- 11        -0.00250
       4 <- 16        -0.00255
       4 <- 19        -0.00267
       4 <- 22        -0.00174
       4 <- 24         0.00178
       4 <- 32         0.00014
       4 <- 37        -0.00085
       4 <- 40        -0.00011
       4 <- 43         0.00023
       4 <- 50         0.00016
       5 <- 10        -0.00186
       5 <- 14        -0.00206
       5 <- 17        -0.00163
       5 <- 23        -0.00240
       5 <- 27        -0.00064
       5 <- 34        -0.00072
       5 <- 36        -0.00050
       5 <- 48         0.00019
       6 <-  9         0.00813
       6 <- 12         0.00312
       6 <- 13        -0.00317
       6 <- 15        -0.00346
       6 <- 18        -0.00391
       6 <- 20         0.00254
       6 <- 21         0.00171
       6 <- 25        -0.00380
       6 <- 26         0.00055
       6 <- 31         0.00114
       6 <- 33         0.00143
       6 <- 38         0.00123
       6 <- 39        -0.00088
       6 <- 42         0.00014
       6 <- 44         0.00060
       6 <- 49        -0.00037
       7 <- 12        -0.00501
       7 <- 13         0.00169
       7 <- 15         0.00366
       7 <- 18        -0.00327
       7 <- 20        -0.00184
       7 <- 21        -0.00091
       7 <- 25         0.00125
       7 <- 26        -0.00199
       7 <- 30        -0.00070
       7 <- 31        -0.00139
       7 <- 38        -0.00066
       7 <- 39         0.00033
       7 <- 44        -0.00036
       7 <- 47         0.00011
       7 <- 51        -0.00015
       8 <- 11        -0.01010
       8 <- 16         0.00507
       8 <- 19        -0.01555
       8 <- 22        -0.00407
       8 <- 24        -0.00290
       8 <- 29        -0.00273
       8 <- 32         0.00178
       8 <- 37        -0.00261
       8 <- 40        -0.00014
       8 <- 43         0.00148
       8 <- 46        -0.00089
       8 <- 50         0.00019

 Excited State   5:      Singlet-A2     8.1799 eV  151.57 nm  f=0.0000  <S**2>=0.000
       3 -> 28         0.00260
       3 -> 35         0.00168
       3 -> 45         0.00056
       4 -> 10         0.00034
       4 -> 14        -0.00715
       4 -> 17         0.00164
       4 -> 23        -0.00337
       4 -> 27         0.00067
       4 -> 34         0.00093
       4 -> 36         0.00256
       4 -> 52         0.00033
       5 -> 16        -0.00047
       5 -> 19        -0.00048
       5 -> 22         0.00139
       5 -> 24         0.00070
       5 -> 37         0.00045
       5 -> 40        -0.00014
       5 -> 43         0.00062
       5 -> 46         0.00046
       5 -> 50        -0.00013
       5 -> 53         0.00014
       6 -> 28         0.00279
       6 -> 35        -0.00066
       6 -> 45         0.00013
       7 -> 28        -0.00142
       7 -> 35         0.00043
       7 -> 45         0.00051
       8 -> 10         0.02528
       8 -> 14         0.70361
       8 -> 17        -0.06222
       8 -> 23         0.01990
       8 -> 27        -0.00258
       8 -> 34        -0.00283
       8 -> 36         0.00284
       8 -> 41        -0.00012
       8 -> 52        -0.00040
       3 <- 28         0.00179
       3 <- 35         0.00137
       3 <- 45         0.00061
       4 <- 10         0.00033
       4 <- 14        -0.00070
       4 <- 17         0.00052
       4 <- 23        -0.00021
       4 <- 27         0.00026
       4 <- 34        -0.00064
       4 <- 36         0.00099
       4 <- 41         0.00028
       4 <- 52         0.00012
       5 <- 11         0.00036
       5 <- 16        -0.00020
       5 <- 19        -0.00051
       5 <- 22         0.00174
       5 <- 24         0.00156
       5 <- 29        -0.00041
       5 <- 32        -0.00057
       5 <- 37         0.00116
       5 <- 43         0.00072
       5 <- 46         0.00018
       5 <- 53         0.00029
       6 <- 28         0.00295
       6 <- 35        -0.00055
       6 <- 45        -0.00010
       7 <- 28        -0.00141
       7 <- 35         0.00011
       7 <- 45         0.00033
       8 <- 10         0.00519
       8 <- 14        -0.00315
       8 <- 17         0.00428
       8 <- 23        -0.00078
       8 <- 27         0.00047
       8 <- 34        -0.00310
       8 <- 36         0.00161
       8 <- 41        -0.00022
       8 <- 52        -0.00017

 Excited State   6:      Singlet-B2     8.9565 eV  138.43 nm  f=0.0934  <S**2>=0.000
       3 -> 11         0.00044
       3 -> 16        -0.00080
       3 -> 19         0.00095
       3 -> 22        -0.00049

 The electronic state is 1-A1.
 Alpha  occ. eigenvalues --  -19.20647 -10.33615  -1.31104  -0.80407  -0.77409
 Alpha  occ. eigenvalues --   -0.58141  -0.54211  -0.20314
 Alpha virt. eigenvalues --    0.00712   0.02761   0.04429   0.04678   0.14362
 Alpha virt. eigenvalues --    0.15008   0.17824   0.18376   0.21717   0.23160
 Alpha virt. eigenvalues --    0.27297   0.36578   0.50707   0.57435   0.58735

 Mulliken charges:
               1
     1  C    0.298228
     2  H   -0.103767
     3  H   -0.103767
     4  O   -0.090693
 Sum of Mulliken charges =  -0.00000

 Dipole moment (field-independent basis, Debye):
    X=              0.0000    Y=              0.0000    Z=              1.2225  Tot=              1.2225
 Quadrupole moment (field-independent basis, Debye-Ang):
   XX=            -10.1932   YY=            -13.7350   ZZ=            -13.6534
   XY=             -0.0000   XZ=             -0.0000   YZ=             -0.0000

 Normal termination of Gaussian 16 at Fri Sep 17 10:52:24 2021.
