 Gaussian 16, Revision A.03,
 Gaussian 16:  ES64L-G16RevA.03 25-Dec-2016

 --------------------------------------------------------------------
 #p B3LYP/6-311+G** #p TD=(singlets,nstates=30)IOp(6/8=3) IOp(9/40=4)
 --------------------------------------------------------------------

 -----------------------------
 Scan Step 6, Bond Length 0.53
 -----------------------------
 Symbolic Z-matrix:
 Charge =  0 Multiplicity = 1

                         Standard orientation:
 ---------------------------------------------------------------------
 Center     Atomic      Atomic             Coordinates (Angstroms)
 Number     Number       Type             X           Y           Z
 ---------------------------------------------------------------------
      1          6           0        0.000000    0.000000   -0.191081
      2          1           0        0.000000    0.937260   -0.782431
      3          1           0       -0.000000   -0.937260   -0.782431
      4          8           0        0.000000   -0.000000    0.338919
 ---------------------------------------------------------------------

 SCF Done:  E(RB3LYP) =  -109.807244060     A.U. after   11 cycles

 Excitation energies and oscillator strengths:

 Excited State   1:      Singlet-B2     4.3240 eV  286.73 nm  f=0.1565  <S**2>=0.000
       3 -> 11         0.00069
       3 -> 15         0.00150
       3 -> 19         0.00072
       3 -> 22         0.00133
       3 -> 25         0.00162
       3 -> 31        -0.00037
       3 -> 38         0.00017
       3 -> 40         0.00061
       3 -> 43         0.00025
       3 -> 53         0.00015
       4 ->  9        -0.00232
       4 -> 12         0.00148
       4 -> 13         0.00279
       4 -> 16         0.00114
       4 -> 17         0.00145
       4 -> 20         0.00198
       4 -> 21         0.00153
       4 -> 24         0.00099
       4 -> 26         0.00064
       4 -> 30         0.00164
       4 -> 32         0.00034
       4 -> 33         0.00091
       4 -> 37        -0.00047
       4 -> 42         0.00042
       4 -> 44        -0.00023
       4 -> 47        -0.00063
       4 -> 48        -0.00012
       4 -> 51        -0.00013
       4 -> 54        -0.00014
       5 -> 27         0.00219
       5 -> 35         0.00098
       5 -> 45         0.00063
       6 -> 11         0.01019
       6 -> 15        -0.00126
       6 -> 19         0.00288
       6 -> 22         0.00032
       6 -> 25        -0.00320
       6 -> 29        -0.00114
       6 -> 31         0.00081
       6 -> 40        -0.00013
       6 -> 43        -0.00019
       6 -> 46        -0.00016
       6 -> 50         0.00013
       7 -> 11         0.00776
       7 -> 15         0.00565
       7 -> 19         0.00390
       7 -> 22         0.00079
       7 -> 25         0.00288
       7 -> 29        -0.00074
       7 -> 31         0.00109
       7 -> 38        -0.00062
       7 -> 43        -0.00031
       7 -> 46         0.00049
       7 -> 50         0.00039
       7 -> 53        -0.00017
       8 ->  9         0.70391
       8 -> 12        -0.00794
       8 -> 13         0.06777
       8 -> 16        -0.00826
       8 -> 17        -0.02439
       8 -> 20         0.00649
       8 -> 21         0.01204
       8 -> 24        -0.00081
       8 -> 26         0.00126
       8 -> 30        -0.00360
       8 -> 32        -0.00147
       8 -> 33        -0.00152
       8 -> 37        -0.00087
       8 -> 39        -0.00031
       8 -> 42         0.00072
       8 -> 44         0.00062
       8 -> 47         0.00048
       8 -> 48         0.00025
       3 <- 11         0.00036
       3 <- 15         0.00109
       3 <- 19         0.00041
       3 <- 22         0.00114
       3 <- 25         0.00126
       3 <- 31        -0.00038
       3 <- 38         0.00019
       3 <- 40         0.00059
       3 <- 43         0.00026
       3 <- 46         0.00013
       3 <- 53         0.00017
       4 <-  9        -0.00091
       4 <- 13         0.00227
       4 <- 16         0.00111
       4 <- 20         0.00137
       4 <- 21         0.00128
       4 <- 24         0.00050
       4 <- 26         0.00117
       4 <- 30         0.00130
       4 <- 32         0.00020
       4 <- 33         0.00036
       4 <- 37        -0.00031
       4 <- 39         0.00015
       4 <- 42         0.00033
       4 <- 44        -0.00020
       4 <- 47        -0.00059
       5 <- 27         0.00191
       5 <- 35         0.00081
       5 <- 45         0.00053
       6 <- 11         0.00351
       6 <- 15        -0.00208
       6 <- 19         0.00129
       6 <- 22        -0.00031
       6 <- 25        -0.00255
       6 <- 29        -0.00092
       6 <- 31         0.00074
       6 <- 40        -0.00013
       6 <- 43        -0.00015
       6 <- 46        -0.00011
       7 <- 11         0.00173
       7 <- 15         0.00295
       7 <- 19         0.00097
       7 <- 22         0.00048
       7 <- 25         0.00197
       7 <- 29        -0.00153
       7 <- 31         0.00096
       7 <- 38        -0.00038
       7 <- 43        -0.00020
       7 <- 46         0.00051
       7 <- 50         0.00049
       8 <-  9        -0.01591
       8 <- 12        -0.00811
       8 <- 13         0.02806
       8 <- 16         0.00747
       8 <- 17        -0.00167
       8 <- 20         0.00189
       8 <- 21         0.00667
       8 <- 24         0.00248
       8 <- 26         0.00110
       8 <- 30        -0.00249
       8 <- 32        -0.00169
       8 <- 33        -0.00095
       8 <- 37        -0.00086
       8 <- 39        -0.00034
       8 <- 42         0.00070
       8 <- 44         0.00031
       8 <- 47         0.00044
       8 <- 48         0.00015
 This state for optimization and/or second-order correction.
 Total Energy, E(TD-HF/TD-DFT) =  -109.648338378
 Copying the excited state density for this state as the 1-particle RhoCI density.

 Excited State   2:      Singlet-A2     4.7253 eV  262.38 nm  f=0.0000  <S**2>=0.000
       3 -> 27        -0.00214
       3 -> 35        -0.00102
       3 -> 45        -0.00028
       4 -> 10        -0.00077
       4 -> 14        -0.00100
       4 -> 18        -0.00171
       4 -> 23        -0.00031
       4 -> 28        -0.00178
       4 -> 34         0.00029
       4 -> 36        -0.00092
       4 -> 49        -0.00015
       4 -> 52        -0.00019
       5 -> 11         0.00016
       5 -> 15        -0.00021
       5 -> 19         0.00029
       5 -> 22        -0.00060
       5 -> 25         0.00022
       5 -> 29         0.00038
       5 -> 38        -0.00033
       5 -> 40        -0.00014
       5 -> 43        -0.00035
       5 -> 46        -0.00023
       5 -> 50         0.00015
       6 -> 27         0.00323
       6 -> 35        -0.00089
       6 -> 45        -0.00023
       7 -> 27         0.00119
       7 -> 45        -0.00018
       8 -> 10         0.70674
       8 -> 14         0.00248
       8 -> 18         0.02361
       8 -> 23        -0.00343
       8 -> 28        -0.00048
       8 -> 34         0.00363
       8 -> 36        -0.00119
       8 -> 41         0.00078
       8 -> 49         0.00015
       8 -> 52         0.00024
       3 <- 27        -0.00180
       3 <- 35        -0.00088
       3 <- 45        -0.00027
       4 <- 10        -0.00023
       4 <- 14         0.00012
       4 <- 18        -0.00077
       4 <- 23        -0.00011
       4 <- 28        -0.00052
       4 <- 34         0.00058
       4 <- 36        -0.00057
       5 <- 11         0.00038
       5 <- 15        -0.00042
       5 <- 19         0.00087
       5 <- 22        -0.00071
       5 <- 25         0.00052
       5 <- 29         0.00111
       5 <- 38        -0.00053
       5 <- 43        -0.00039
       5 <- 46        -0.00027
       5 <- 53        -0.00016
       6 <- 27         0.00321
       6 <- 35        -0.00103
       6 <- 45        -0.00023
       7 <- 27         0.00114
       7 <- 35        -0.00010
       7 <- 45        -0.00021
       8 <- 10         0.00300
       8 <- 14         0.00082
       8 <- 18        -0.00775
       8 <- 28        -0.00100
       8 <- 34         0.00342
       8 <- 36        -0.00099
       8 <- 41         0.00043
       8 <- 52         0.00011

 Excited State   3:      Singlet-B2     5.4894 eV  225.86 nm  f=0.0398  <S**2>=0.000
       3 -> 11        -0.00031
       3 -> 15         0.00038
       3 -> 19        -0.00060
       3 -> 22         0.00016
       3 -> 31         0.00013
       3 -> 38        -0.00015
       3 -> 40        -0.00028
       3 -> 43        -0.00016
       3 -> 53        -0.00019
       4 ->  9         0.00058
       4 -> 13         0.00075
       4 -> 16         0.00139
       4 -> 17        -0.00081
       4 -> 20        -0.00051
       4 -> 21         0.00077
       4 -> 24         0.00087
       4 -> 30        -0.00191
       4 -> 32        -0.00013
       4 -> 37         0.00050
       4 -> 39        -0.00083
       4 -> 42        -0.00031
       4 -> 47         0.00034
       5 -> 27        -0.00099
       5 -> 35        -0.00104
       5 -> 45        -0.00054
       6 -> 11         0.00103
       6 -> 15        -0.00451
       6 -> 19         0.00194
       6 -> 22         0.00033
       6 -> 25        -0.00187
       6 -> 29        -0.00246
       6 -> 31        -0.00064
       6 -> 38        -0.00031
       6 -> 40         0.00033
       6 -> 43        -0.00028
       6 -> 50         0.00014
       6 -> 53        -0.00011
       7 -> 11        -0.00097
       7 -> 15        -0.00314
       7 -> 19        -0.00147
       7 -> 22        -0.00056
       7 -> 25        -0.00246
       7 -> 29        -0.00065
       7 -> 31        -0.00036
       7 -> 38         0.00060
       7 -> 40        -0.00023
       7 -> 43         0.00014
       7 -> 46        -0.00059
       7 -> 50        -0.00027
       7 -> 53         0.00022
       8 ->  9         0.00438
       8 -> 12         0.70526
       8 -> 13         0.04531
       8 -> 16         0.02193
       8 -> 17        -0.00057
       8 -> 20         0.01558
       8 -> 21         0.00509
       8 -> 24        -0.00107
       8 -> 26        -0.00200
       8 -> 30        -0.00336
       8 -> 32         0.00036
       8 -> 33         0.00036
       8 -> 37        -0.00094
       8 -> 39         0.00120
       8 -> 42         0.00099
       8 -> 44        -0.00018
       8 -> 47        -0.00013
       8 -> 51        -0.00011
       8 -> 54        -0.00011
       3 <- 11        -0.00015
       3 <- 15         0.00023
       3 <- 19        -0.00023
       3 <- 29         0.00012
       3 <- 31         0.00017
       3 <- 38        -0.00019
       3 <- 40        -0.00023
       3 <- 43        -0.00016
       3 <- 53        -0.00023
       4 <-  9        -0.00089
       4 <- 12        -0.00021
       4 <- 13         0.00084
       4 <- 16         0.00065
       4 <- 17         0.00033
       4 <- 20        -0.00031
       4 <- 21         0.00055
       4 <- 24         0.00089
       4 <- 26        -0.00013
       4 <- 30        -0.00134
       4 <- 32        -0.00043
       4 <- 33         0.00028
       4 <- 37         0.00032
       4 <- 39        -0.00058
       4 <- 42        -0.00034
       4 <- 44         0.00011
       4 <- 47         0.00031
       5 <- 27        -0.00065
       5 <- 35        -0.00092
       5 <- 45        -0.00049
       6 <- 11         0.00101
       6 <- 15        -0.00094
       6 <- 22         0.00049
       6 <- 25        -0.00171
       6 <- 29        -0.00184
       6 <- 31        -0.00078
       6 <- 38        -0.00037
       6 <- 40         0.00025
       6 <- 43        -0.00024
       6 <- 53        -0.00011
       7 <- 11         0.00034
       7 <- 15        -0.00114
       7 <- 19        -0.00050
       7 <- 22        -0.00045
       7 <- 25        -0.00147
       7 <- 31        -0.00021
       7 <- 38         0.00029
       7 <- 40        -0.00014
       7 <- 46        -0.00051
       7 <- 50        -0.00033
       7 <- 53         0.00015
       8 <-  9        -0.00743
       8 <- 12         0.00054
       8 <- 13         0.01310
       8 <- 16         0.00435
       8 <- 17        -0.00259
       8 <- 20        -0.00328
       8 <- 21         0.00311
       8 <- 24         0.00047
       8 <- 30        -0.00258
       8 <- 32         0.00023
       8 <- 33         0.00044
       8 <- 37        -0.00082
       8 <- 39         0.00117
       8 <- 42         0.00085
       8 <- 44        -0.00012
       8 <- 47        -0.00013

 Excited State   4:      Singlet-A1     5.7870 eV  214.25 nm  f=0.0004  <S**2>=0.000
       3 ->  9         0.00194
       3 -> 12        -0.00011
       3 -> 16        -0.00152
       3 -> 17        -0.00189
       3 -> 21         0.00110
       3 -> 24        -0.00151
       3 -> 26         0.00036
       3 -> 30         0.00069
       3 -> 32         0.00028
       3 -> 33        -0.00102
       3 -> 37         0.00067
       3 -> 39         0.00033
       3 -> 44        -0.00022
       3 -> 54         0.00019
       4 -> 11        -0.00501
       4 -> 15        -0.00414
       4 -> 19        -0.00478
       4 -> 22        -0.00277
       4 -> 25        -0.00309
       4 -> 29        -0.00138
       4 -> 38        -0.00071
       4 -> 40         0.00013
       4 -> 43         0.00013
       4 -> 46        -0.00013
       5 -> 10        -0.00167
       5 -> 14        -0.00365
       5 -> 18         0.00059
       5 -> 23         0.00384
       5 -> 28         0.00034
       5 -> 34        -0.00052
       5 -> 36        -0.00051
       6 ->  9        -0.00880
       6 -> 12        -0.00968
       6 -> 13         0.00246
       6 -> 16         0.00817
       6 -> 17         0.00228
       6 -> 20        -0.00389
       6 -> 21        -0.00379
       6 -> 24         0.00420
       6 -> 26         0.00307
       6 -> 30         0.00037
       6 -> 32        -0.00330
       6 -> 33        -0.00233
       6 -> 37        -0.00213
       6 -> 39         0.00108
       6 -> 42         0.00045
       6 -> 44        -0.00104
       6 -> 47         0.00023
       6 -> 48         0.00040
       6 -> 51         0.00019
       7 ->  9         0.01777
       7 -> 12        -0.01097
       7 -> 13        -0.00376
       7 -> 16         0.00423
       7 -> 17        -0.01288
       7 -> 20        -0.00224
       7 -> 21        -0.00263
       7 -> 24        -0.00173
       7 -> 26         0.00390
       7 -> 30        -0.00123
       7 -> 32         0.00076
       7 -> 33        -0.00071
       7 -> 37        -0.00088
       7 -> 54        -0.00016
       8 -> 11         0.70411
       8 -> 15         0.05747
       8 -> 19        -0.02541
       8 -> 22        -0.00181
       8 -> 25         0.01134
       8 -> 29        -0.00149
       8 -> 31         0.00239
       8 -> 38        -0.00371
       8 -> 40         0.00142
       8 -> 43         0.00185
       8 -> 46        -0.00126
       8 -> 50         0.00023
       3 <-  9         0.00130
       3 <- 16        -0.00106
       3 <- 17        -0.00122
       3 <- 21         0.00086
       3 <- 24        -0.00113
       3 <- 26         0.00029
       3 <- 30         0.00057
       3 <- 32         0.00023
       3 <- 33        -0.00080
       3 <- 37         0.00056
       3 <- 39         0.00028
       3 <- 44        -0.00018
       3 <- 54         0.00017
       4 <- 11        -0.00241
       4 <- 15        -0.00185
       4 <- 19        -0.00298
       4 <- 22        -0.00193
       4 <- 25        -0.00187
       4 <- 29        -0.00102
       4 <- 38        -0.00059
       4 <- 40         0.00013
       4 <- 43         0.00014
       4 <- 46        -0.00010
       5 <- 10        -0.00107
       5 <- 14        -0.00240
       5 <- 18         0.00040
       5 <- 23         0.00285
       5 <- 28         0.00028
       5 <- 34        -0.00044
       5 <- 36        -0.00044
       6 <-  9        -0.00777
       6 <- 12        -0.00467
       6 <- 13         0.00249
       6 <- 16         0.00564
       6 <- 17         0.00089
       6 <- 20        -0.00175
       6 <- 21        -0.00357
       6 <- 24         0.00292
       6 <- 26         0.00225
       6 <- 32        -0.00245
       6 <- 33        -0.00184
       6 <- 37        -0.00193
       6 <- 39         0.00072
       6 <- 42         0.00040
       6 <- 44        -0.00098
       6 <- 47         0.00018
       6 <- 48         0.00036
       6 <- 51         0.00018
       7 <-  9         0.00372
       7 <- 12        -0.00386
       7 <- 13        -0.00083
       7 <- 16         0.00268
       7 <- 17        -0.00594
       7 <- 20        -0.00076
       7 <- 21        -0.00182
       7 <- 24        -0.00096
       7 <- 26         0.00269
       7 <- 30        -0.00093
       7 <- 32         0.00055
       7 <- 33        -0.00052
       7 <- 37        -0.00073
       7 <- 39        -0.00013
       7 <- 54        -0.00014
       8 <- 11        -0.01698
       8 <- 15         0.00458
       8 <- 19        -0.01760
       8 <- 22        -0.00478
       8 <- 25         0.00672
       8 <- 29        -0.00138
       8 <- 31         0.00219
       8 <- 38        -0.00306
       8 <- 40         0.00092
       8 <- 43         0.00153
       8 <- 46        -0.00114
       8 <- 50         0.00024

 Excited State   5:      Singlet-A2     8.6036 eV  144.11 nm  f=0.0000  <S**2>=0.000
       3 -> 27         0.00138
       3 -> 35         0.00063
       3 -> 45         0.00010
       4 -> 10        -0.00117
       4 -> 14        -0.00312
       4 -> 18         0.00133
       4 -> 23         0.00208
       4 -> 34         0.00017
       4 -> 36         0.00096
       4 -> 41        -0.00037
       5 -> 15         0.00013
       5 -> 19        -0.00031
       5 -> 22         0.00055
       5 -> 25        -0.00050
       5 -> 29        -0.00017
       5 -> 38         0.00020
       5 -> 43         0.00028
       5 -> 46         0.00016
       6 -> 27        -0.00159
       6 -> 35         0.00048
       7 -> 27        -0.00087
       7 -> 35        -0.00013
       8 -> 10        -0.00054
       8 -> 14         0.70434
       8 -> 18        -0.06084
       8 -> 23        -0.01403
       8 -> 28        -0.00059
       8 -> 34        -0.00178
       8 -> 36         0.00193
       8 -> 41        -0.00027
       8 -> 52        -0.00018
       3 <- 27         0.00103
       3 <- 35         0.00047
       3 <- 45         0.00011
       4 <- 10         0.00021
       4 <- 18         0.00050
       4 <- 23         0.00015
       4 <- 28         0.00024
       4 <- 34        -0.00031
       4 <- 36         0.00039
       5 <- 11         0.00044
       5 <- 19         0.00019
       5 <- 22         0.00054
       5 <- 25        -0.00072
       5 <- 31        -0.00024
       5 <- 38         0.00041
       5 <- 40        -0.00010
       5 <- 43         0.00028
       6 <- 27        -0.00154
       6 <- 35         0.00047
       7 <- 27        -0.00045
       7 <- 35        -0.00024
       7 <- 45        -0.00010
       8 <- 10         0.00135
       8 <- 14         0.00183
       8 <- 18         0.00380
       8 <- 23         0.00083
       8 <- 28         0.00012
       8 <- 34        -0.00198
       8 <- 36         0.00071
       8 <- 41        -0.00020

 Excited State   6:      Singlet-B2     8.7467 eV  141.75 nm  f=0.1777  <S**2>=0.000
       3 -> 11         0.00093
       3 -> 15        -0.00178
       3 -> 19         0.00195
       3 -> 22        -0.00144
       3 -> 25        -0.00065
       3 -> 29         0.00123
       3 -> 31         0.00075
       3 -> 40        -0.00080
       3 -> 43        -0.00033
       4 ->  9         0.00196
       4 -> 12        -0.00199
       4 -> 13        -0.00505
       4 -> 16        -0.00053
       4 -> 17        -0.00079
       4 -> 20        -0.00409
       4 -> 21        -0.00490
       4 -> 24        -0.00070
       4 -> 26        -0.00050
       4 -> 30        -0.00294
       4 -> 32         0.00019
       4 -> 33         0.00014
       4 -> 37        -0.00102
       4 -> 39         0.00011
       4 -> 42         0.00024

 The electronic state is 1-A1.
 Alpha  occ. eigenvalues --  -19.43849 -10.66674  -1.18438  -1.00070  -0.97750
 Alpha  occ. eigenvalues --   -0.56783  -0.46096  -0.19448
 Alpha virt. eigenvalues --   -0.00396   0.02169   0.04437   0.04662   0.13827
 Alpha virt. eigenvalues --    0.16743   0.16838   0.18421   0.21174   0.22375
 Alpha virt. eigenvalues --    0.29503   0.36775   0.50407   0.56997   0.63720

 Mulliken charges:
               1
     1  C    0.125538
     2  H   -0.143784
     3  H   -0.143784
     4  O    0.162029
 Sum of Mulliken charges =   0.00000

 Dipole moment (field-independent basis, Debye):
    X=              0.0000    Y=              0.0000    Z=              1.7891  Tot=              1.7891
 Quadrupole moment (field-independent basis, Debye-Ang):
   XX=             -9.9081   YY=            -14.5916   ZZ=            -13.8183
   XY=             -0.0000   XZ=             -0.0000   YZ=              0.0000

 Normal termination of Gaussian 16 at Fri Sep 17 10:52:18 2021.
