 Gaussian 16, Revision A.03,
 Gaussian 16:  ES64L-G16RevA.03 25-Dec-2016

 --------------------------------------------------------------------
 #p B3LYP/6-311+G** #p TD=(singlets,nstates=30)IOp(6/8=3) IOp(9/40=4)
 --------------------------------------------------------------------

 -------------------------------
 Scan Step 57, Bond Length 0.785
 -------------------------------
 Symbolic Z-matrix:
 Charge =  0 Multiplicity = 1

                         Standard orientation:
 ---------------------------------------------------------------------
 Center     Atomic      Atomic             Coordinates (Angstroms)
 Number     Number       Type             X           Y           Z
 ---------------------------------------------------------------------
      1          6           0        0.000000    0.000000   -0.318581
      2          1           0        0.000000    0.937260   -0.909931
      3          1           0       -0.000000   -0.937260   -0.909931
      4          8           0        0.000000   -0.000000    0.466419
 ---------------------------------------------------------------------

 SCF Done:  E(RB3LYP) =  -113.751308848     A.U. after    9 cycles

 Excitation energies and oscillator strengths:

 Excited State   1:      Singlet-B2     5.3858 eV  230.21 nm  f=0.1042  <S**2>=0.000
       3 -> 11        -0.00079
       3 -> 16        -0.00042
       3 -> 18        -0.00086
       3 -> 23        -0.00018
       3 -> 24        -0.00103
       3 -> 29         0.00022
       3 -> 40        -0.00011
       3 -> 42        -0.00018
       3 -> 50         0.00014
       3 -> 53        -0.00012
       4 ->  9         0.00268
       4 -> 12        -0.00478
       4 -> 14        -0.00437
       4 -> 15        -0.00164
       4 -> 19        -0.00349
       4 -> 20        -0.00169
       4 -> 21        -0.00217
       4 -> 25        -0.00148
       4 -> 26         0.00087
       4 -> 30         0.00143
       4 -> 31        -0.00111
       4 -> 34        -0.00046
       4 -> 38         0.00079
       4 -> 41        -0.00052
       4 -> 44         0.00038
       4 -> 46         0.00068
       4 -> 48        -0.00033
       5 -> 28        -0.00140
       5 -> 35        -0.00053
       5 -> 45        -0.00086
       6 -> 11         0.00706
       6 -> 16        -0.00174
       6 -> 18        -0.00052
       6 -> 23         0.00181
       6 -> 24        -0.00428
       6 -> 29         0.00086
       6 -> 32         0.00106
       6 -> 36        -0.00075
       6 -> 42        -0.00038
       7 -> 11        -0.00378
       7 -> 16        -0.00402
       7 -> 18        -0.00302
       7 -> 23         0.00126
       7 -> 24        -0.00235
       7 -> 29        -0.00040
       7 -> 32        -0.00023
       7 -> 36         0.00042
       7 -> 42         0.00038
       7 -> 47        -0.00045
       7 -> 50        -0.00046
       7 -> 53         0.00011
       8 ->  9         0.70598
       8 -> 12        -0.00190
       8 -> 14         0.03317
       8 -> 15        -0.00998
       8 -> 19        -0.02131
       8 -> 20         0.00648
       8 -> 21         0.00910
       8 -> 25        -0.00043
       8 -> 26         0.00018
       8 -> 30        -0.00070
       8 -> 31        -0.00324
       8 -> 34        -0.00130
       8 -> 38        -0.00104
       8 -> 39         0.00038
       8 -> 41         0.00063
       8 -> 44         0.00012
       8 -> 46         0.00097
       8 -> 48        -0.00035
       8 -> 54         0.00011
       3 <- 11        -0.00029
       3 <- 18        -0.00055
       3 <- 24        -0.00078
       3 <- 29         0.00020
       3 <- 32         0.00011
       3 <- 40        -0.00012
       3 <- 42        -0.00016
       3 <- 53        -0.00013
       4 <-  9         0.00170
       4 <- 12         0.00022
       4 <- 14        -0.00354
       4 <- 15        -0.00188
       4 <- 19        -0.00085
       4 <- 20        -0.00080
       4 <- 21        -0.00150
       4 <- 25        -0.00153
       4 <- 26         0.00126
       4 <- 30         0.00051
       4 <- 31        -0.00035
       4 <- 34        -0.00027
       4 <- 38         0.00050
       4 <- 39        -0.00017
       4 <- 41        -0.00045
       4 <- 44         0.00029
       4 <- 46         0.00061
       4 <- 48        -0.00027
       5 <- 28        -0.00112
       5 <- 35        -0.00042
       5 <- 45        -0.00073
       6 <- 11         0.00061
       6 <- 16        -0.00187
       6 <- 18        -0.00169
       6 <- 23         0.00091
       6 <- 24        -0.00332
       6 <- 29         0.00066
       6 <- 32         0.00084
       6 <- 36        -0.00061
       6 <- 40         0.00012
       6 <- 42        -0.00021
       7 <- 11        -0.00085
       7 <- 16        -0.00234
       7 <- 18        -0.00072
       7 <- 23         0.00049
       7 <- 24        -0.00108
       7 <- 29        -0.00101
       7 <- 32        -0.00012
       7 <- 36         0.00014
       7 <- 42         0.00030
       7 <- 47        -0.00045
       7 <- 50        -0.00054
       8 <-  9        -0.00592
       8 <- 12        -0.00343
       8 <- 14         0.01606
       8 <- 15         0.00392
       8 <- 19         0.00136
       8 <- 21         0.00466
       8 <- 25         0.00316
       8 <- 26         0.00054
       8 <- 30        -0.00065
       8 <- 31        -0.00189
       8 <- 34        -0.00149
       8 <- 38        -0.00100
       8 <- 39         0.00032
       8 <- 41         0.00047
       8 <- 46         0.00076
       8 <- 48        -0.00029
 This state for optimization and/or second-order correction.
 Total Energy, E(TD-HF/TD-DFT) =  -113.553383981
 Copying the excited state density for this state as the 1-particle RhoCI density.

 Excited State   2:      Singlet-A2     5.5115 eV  224.96 nm  f=0.0000  <S**2>=0.000
       3 -> 28         0.00227
       3 -> 35         0.00162
       3 -> 45         0.00072
       4 -> 10         0.00247
       4 -> 13         0.00473
       4 -> 17         0.00514
       4 -> 22        -0.00288
       4 -> 27         0.00257
       4 -> 33         0.00069
       4 -> 37         0.00240
       4 -> 43         0.00031
       4 -> 49         0.00011
       4 -> 52         0.00046
       5 -> 11        -0.00043
       5 -> 16        -0.00019
       5 -> 18        -0.00038
       5 -> 23         0.00135
       5 -> 32         0.00018
       5 -> 36         0.00042
       5 -> 42         0.00045
       5 -> 47         0.00051
       5 -> 50        -0.00019
       5 -> 53         0.00016
       6 -> 28         0.00368
       6 -> 35        -0.00059
       6 -> 45        -0.00036
       7 -> 28         0.00057
       7 -> 45         0.00073
       8 -> 10         0.70246
       8 -> 13         0.07514
       8 -> 17         0.03029
       8 -> 22        -0.00094
       8 -> 27         0.00336
       8 -> 33         0.00321
       8 -> 37        -0.00231
       8 -> 52         0.00059
       3 <- 28         0.00178
       3 <- 35         0.00140
       3 <- 45         0.00072
       4 <- 10         0.00019
       4 <- 13         0.00104
       4 <- 17         0.00051
       4 <- 27         0.00018
       4 <- 33        -0.00092
       4 <- 37         0.00119
       4 <- 43         0.00036
       4 <- 52         0.00011
       5 <- 11        -0.00080
       5 <- 16         0.00087
       5 <- 18        -0.00232
       5 <- 23         0.00265
       5 <- 24        -0.00163
       5 <- 29         0.00146
       5 <- 32        -0.00049
       5 <- 36         0.00124
       5 <- 42         0.00060
       5 <- 47         0.00044
       5 <- 53         0.00044
       6 <- 28         0.00382
       6 <- 35        -0.00062
       6 <- 45        -0.00037
       7 <- 28         0.00050
       7 <- 45         0.00064
       8 <- 10        -0.00236
       8 <- 13        -0.00777
       8 <- 17        -0.00491
       8 <- 22         0.00027
       8 <- 27        -0.00039
       8 <- 33         0.00301
       8 <- 37        -0.00195
       8 <- 43         0.00011
       8 <- 52         0.00019

 Excited State   3:      Singlet-B2     6.2178 eV  199.40 nm  f=0.0271  <S**2>=0.000
       3 -> 11         0.00011
       3 -> 16        -0.00055
       3 -> 18         0.00019
       3 -> 23        -0.00023
       3 -> 24        -0.00044
       3 -> 29        -0.00068
       3 -> 32        -0.00013
       3 -> 36         0.00026
       3 -> 42         0.00027
       3 -> 47        -0.00018
       3 -> 50        -0.00017
       3 -> 53         0.00013
       4 ->  9        -0.00335
       4 -> 12        -0.00029
       4 -> 14        -0.00197
       4 -> 15        -0.00354
       4 -> 19         0.00234
       4 -> 21        -0.00142
       4 -> 25        -0.00082
       4 -> 26        -0.00098
       4 -> 30         0.00110
       4 -> 31         0.00208
       4 -> 34         0.00022
       4 -> 39         0.00091
       4 -> 41         0.00046
       4 -> 46        -0.00062
       4 -> 48         0.00028
       4 -> 51         0.00015
       5 -> 28         0.00096
       5 -> 35         0.00132
       5 -> 45         0.00087
       6 -> 11        -0.00166
       6 -> 16        -0.00505
       6 -> 18        -0.00011
       6 -> 23         0.00087
       6 -> 24        -0.00366
       6 -> 29         0.00155
       6 -> 32        -0.00054
       6 -> 36        -0.00015
       6 -> 40         0.00032
       6 -> 42        -0.00012
       7 -> 11         0.00276
       7 -> 16         0.00130
       7 -> 18         0.00227
       7 -> 23        -0.00115
       7 -> 24         0.00125
       7 -> 32         0.00024
       7 -> 36        -0.00100
       7 -> 40         0.00027
       7 -> 42        -0.00049
       7 -> 47         0.00066
       7 -> 50         0.00049
       7 -> 53        -0.00018
       8 ->  9         0.00169
       8 -> 12         0.70597
       8 -> 14         0.02285
       8 -> 15         0.02587
       8 -> 19         0.01322
       8 -> 20         0.01572
       8 -> 21         0.00423
       8 -> 25        -0.00061
       8 -> 26         0.00113
       8 -> 30        -0.00197
       8 -> 31        -0.00073
       8 -> 34        -0.00033
       8 -> 39         0.00117
       8 -> 41         0.00099
       8 -> 46        -0.00065
       8 -> 48         0.00035
       8 -> 54        -0.00015
       3 <- 11        -0.00015
       3 <- 16        -0.00056
       3 <- 24        -0.00048
       3 <- 29        -0.00046
       3 <- 32        -0.00015
       3 <- 36         0.00027
       3 <- 42         0.00023
       3 <- 47        -0.00014
       3 <- 53         0.00021
       4 <-  9         0.00133
       4 <- 14        -0.00159
       4 <- 15        -0.00067
       4 <- 19        -0.00064
       4 <- 20         0.00040
       4 <- 21        -0.00098
       4 <- 25        -0.00093
       4 <- 26        -0.00089
       4 <- 30         0.00103
       4 <- 31         0.00091
       4 <- 34         0.00075
       4 <- 39         0.00070
       4 <- 41         0.00046
       4 <- 46        -0.00061
       4 <- 48         0.00017
       4 <- 51         0.00014
       5 <- 28         0.00051
       5 <- 35         0.00111
       5 <- 45         0.00076
       6 <- 16        -0.00116
       6 <- 18        -0.00089
       6 <- 23         0.00108
       6 <- 24        -0.00212
       6 <- 29         0.00083
       6 <- 32        -0.00061
       6 <- 36        -0.00037
       6 <- 40         0.00031
       7 <- 11         0.00035
       7 <- 16         0.00065
       7 <- 18         0.00028
       7 <- 23        -0.00030
       7 <- 24         0.00042
       7 <- 29         0.00047
       7 <- 36        -0.00064
       7 <- 40         0.00021
       7 <- 42        -0.00034
       7 <- 47         0.00058
       7 <- 50         0.00050
       8 <-  9        -0.00316
       8 <- 12         0.00136
       8 <- 14         0.00863
       8 <- 15         0.00271
       8 <- 19        -0.00144
       8 <- 20        -0.00250
       8 <- 21         0.00309
       8 <- 25         0.00059
       8 <- 26        -0.00044
       8 <- 30        -0.00163
       8 <- 31        -0.00100
       8 <- 38         0.00019
       8 <- 39         0.00093
       8 <- 41         0.00085
       8 <- 46        -0.00054
       8 <- 48         0.00019

 Excited State   4:      Singlet-A1     6.3631 eV  194.85 nm  f=0.0267  <S**2>=0.000
       3 ->  9        -0.00122
       3 -> 12         0.00065
       3 -> 15         0.00063
       3 -> 19         0.00137
       3 -> 21        -0.00053
       3 -> 25         0.00039
       3 -> 26         0.00015
       3 -> 30        -0.00100
       3 -> 34        -0.00028
       3 -> 38        -0.00031
       3 -> 39        -0.00030
       3 -> 51        -0.00023
       3 -> 54         0.00018
       4 -> 11         0.00688
       4 -> 16         0.00784
       4 -> 18         0.00507
       4 -> 23         0.00166
       4 -> 24         0.00360
       4 -> 29         0.00071
       4 -> 32        -0.00013
       4 -> 36         0.00102
       4 -> 42        -0.00027
       4 -> 50        -0.00031
       5 -> 10         0.00544
       5 -> 13        -0.00265
       5 -> 17         0.00459
       5 -> 22         0.00354
       5 -> 27         0.00098
       5 -> 33         0.00093
       5 -> 37         0.00056
       5 -> 43         0.00032
       5 -> 49        -0.00033
       6 ->  9        -0.00691
       6 -> 12        -0.01080
       6 -> 14         0.00590
       6 -> 15         0.00366
       6 -> 19         0.00259
       6 -> 20        -0.00686
       6 -> 21         0.00084
       6 -> 25         0.00668
       6 -> 26        -0.00119
       6 -> 30         0.00091
       6 -> 31        -0.00113
       6 -> 34        -0.00137
       6 -> 38        -0.00069
       6 -> 39         0.00117
       6 -> 44        -0.00039
       6 -> 46        -0.00018
       6 -> 48        -0.00038
       7 ->  9        -0.01188
       7 -> 12         0.00687
       7 -> 14         0.00116
       7 -> 15        -0.00141
       7 -> 19         0.00878
       7 -> 20        -0.00060
       7 -> 25         0.00106
       7 -> 26         0.00094
       7 -> 30        -0.00037
       7 -> 31         0.00098
       7 -> 34        -0.00090
       7 -> 38        -0.00010
       7 -> 39         0.00012
       7 -> 48        -0.00021
       7 -> 51         0.00030
       8 -> 11         0.70520
       8 -> 16         0.04637
       8 -> 18        -0.01240
       8 -> 23         0.00146
       8 -> 24         0.00292
       8 -> 29         0.00406
       8 -> 32         0.00168
       8 -> 36        -0.00285
       8 -> 40         0.00022
       8 -> 42         0.00165
       8 -> 47        -0.00061
       3 <-  9        -0.00058
       3 <- 12         0.00029
       3 <- 15         0.00035
       3 <- 19         0.00082
       3 <- 21        -0.00028
       3 <- 25         0.00036
       3 <- 26         0.00015
       3 <- 30        -0.00064
       3 <- 34        -0.00025
       3 <- 38        -0.00022
       3 <- 39        -0.00026
       3 <- 46         0.00013
       3 <- 48        -0.00011
       3 <- 51        -0.00020
       3 <- 54         0.00016
       4 <- 11         0.00253
       4 <- 16         0.00283
       4 <- 18         0.00273
       4 <- 23         0.00131
       4 <- 24         0.00192
       4 <- 29         0.00032
       4 <- 32        -0.00024
       4 <- 36         0.00086
       4 <- 42        -0.00024
       4 <- 50        -0.00026
       5 <- 10         0.00247
       5 <- 13        -0.00127
       5 <- 17         0.00243
       5 <- 22         0.00227
       5 <- 27         0.00067
       5 <- 33         0.00074
       5 <- 37         0.00047
       5 <- 43         0.00027
       5 <- 49        -0.00030
       6 <-  9        -0.00671
       6 <- 12        -0.00447
       6 <- 14         0.00455
       6 <- 15         0.00313
       6 <- 19         0.00160
       6 <- 20        -0.00386
       6 <- 21        -0.00027
       6 <- 25         0.00427
       6 <- 26        -0.00062
       6 <- 30         0.00025
       6 <- 31        -0.00117
       6 <- 34        -0.00102
       6 <- 38        -0.00077
       6 <- 39         0.00093
       6 <- 44        -0.00043
       6 <- 46        -0.00017
       6 <- 48        -0.00031
       7 <-  9        -0.00398
       7 <- 12         0.00219
       7 <- 14         0.00036
       7 <- 15        -0.00078
       7 <- 19         0.00407
       7 <- 20        -0.00053
       7 <- 25         0.00066
       7 <- 26         0.00052
       7 <- 30        -0.00033
       7 <- 31         0.00073
       7 <- 34        -0.00061
       7 <- 38        -0.00014
       7 <- 39         0.00020
       7 <- 46        -0.00013
       7 <- 48        -0.00013
       7 <- 51         0.00028
       8 <- 11        -0.00583
       8 <- 16         0.00469
       8 <- 18        -0.01318
       8 <- 23        -0.00242
       8 <- 24        -0.00062
       8 <- 29         0.00247
       8 <- 32         0.00142
       8 <- 36        -0.00216
       8 <- 42         0.00132
       8 <- 47        -0.00065

 Excited State   5:      Singlet-A2     7.7098 eV  160.81 nm  f=0.0000  <S**2>=0.000
       3 -> 28         0.00249
       3 -> 35         0.00188
       3 -> 45         0.00078
       4 -> 10         0.00425
       4 -> 13         0.01006
       4 -> 17         0.00014
       4 -> 22        -0.00306
       4 -> 27         0.00071
       4 -> 33         0.00193
       4 -> 37         0.00309
       4 -> 43         0.00026
       4 -> 52         0.00049
       5 -> 16        -0.00143
       5 -> 18        -0.00034
       5 -> 23         0.00170
       5 -> 24        -0.00020
       5 -> 29        -0.00032
       5 -> 32         0.00012
       5 -> 36         0.00050
       5 -> 42         0.00057
       5 -> 47         0.00052
       5 -> 53         0.00019
       6 -> 28         0.00233
       6 -> 35        -0.00086
       6 -> 45        -0.00018
       7 -> 28         0.00038
       7 -> 45         0.00084
       8 -> 10        -0.07633
       8 -> 13         0.70199
       8 -> 17         0.02745
       8 -> 22        -0.02362
       8 -> 27         0.00300
       8 -> 33         0.00236
       8 -> 37        -0.00226
       8 -> 43        -0.00013
       8 -> 52         0.00053
       3 <- 28         0.00165
       3 <- 35         0.00155
       3 <- 45         0.00087
       4 <- 10         0.00034
       4 <- 13         0.00074
       4 <- 33        -0.00057
       4 <- 37         0.00111
       4 <- 43         0.00035
       4 <- 52         0.00015
       5 <- 11         0.00029
       5 <- 16        -0.00039
       5 <- 18        -0.00098
       5 <- 23         0.00279
       5 <- 24        -0.00137
       5 <- 29         0.00034
       5 <- 32        -0.00078
       5 <- 36         0.00152
       5 <- 42         0.00085
       5 <- 47         0.00025
       5 <- 53         0.00044
       6 <- 28         0.00282
       6 <- 35        -0.00033
       6 <- 45        -0.00030
       7 <- 28         0.00045
       7 <- 35        -0.00022
       7 <- 45         0.00049
       8 <- 10        -0.00718
       8 <- 13        -0.00395
       8 <- 17        -0.00237
       8 <- 22         0.00069
       8 <- 27        -0.00040
       8 <- 33         0.00233
       8 <- 37        -0.00162
       8 <- 43         0.00012
       8 <- 52         0.00021

 Excited State   6:      Singlet-B2     9.4833 eV  130.74 nm  f=0.1234  <S**2>=0.000
       3 -> 11        -0.00037
       3 -> 16         0.00082
       3 -> 18        -0.00076
       3 -> 23         0.00045
       3 -> 24         0.00029
       3 -> 29         0.00072
       3 -> 32        -0.00059
       3 -> 40         0.00040
       3 -> 42         0.00034
       3 -> 47         0.00024
       4 ->  9        -0.00490
       4 -> 12         0.00551
       4 -> 14         0.01213
       4 -> 15         0.00035
       4 -> 19         0.00240
       4 -> 20         0.00747
       4 -> 21         0.00896
       4 -> 25         0.00369
       4 -> 26         0.00025
       4 -> 30         0.00215

 The electronic state is 1-A1.
 Alpha  occ. eigenvalues --  -19.14922 -10.24840  -1.32004  -0.68233  -0.64346
 Alpha  occ. eigenvalues --   -0.58103  -0.54282  -0.22274
 Alpha virt. eigenvalues --    0.01263   0.02622   0.04438   0.04530   0.11675
 Alpha virt. eigenvalues --    0.14409   0.17644   0.19647   0.21732   0.24956
 Alpha virt. eigenvalues --    0.24984   0.36533   0.50531   0.54729   0.55886

 Mulliken charges:
               1
     1  C    0.316126
     2  H   -0.046954
     3  H   -0.046954
     4  O   -0.222219
 Sum of Mulliken charges =  -0.00000

 Dipole moment (field-independent basis, Debye):
    X=              0.0000    Y=              0.0000    Z=              0.2909  Tot=              0.2909
 Quadrupole moment (field-independent basis, Debye-Ang):
   XX=            -10.4953   YY=            -12.8795   ZZ=            -13.4443
   XY=             -0.0000   XZ=             -0.0000   YZ=              0.0000

 Normal termination of Gaussian 16 at Fri Sep 17 10:52:25 2021.
