 Gaussian 16, Revision A.03,
 Gaussian 16:  ES64L-G16RevA.03 25-Dec-2016

 --------------------------------------------------------------------
 #p B3LYP/6-311+G** #p TD=(singlets,nstates=30)IOp(6/8=3) IOp(9/40=4)
 --------------------------------------------------------------------

 --------------------------------
 Scan Step 189, Bond Length 1.445
 --------------------------------
 Symbolic Z-matrix:
 Charge =  0 Multiplicity = 1

                         Standard orientation:
 ---------------------------------------------------------------------
 Center     Atomic      Atomic             Coordinates (Angstroms)
 Number     Number       Type             X           Y           Z
 ---------------------------------------------------------------------
      1          6           0        0.000000    0.000000   -0.648581
      2          1           0        0.000000    0.937260   -1.239931
      3          1           0       -0.000000   -0.937260   -1.239931
      4          8           0        0.000000   -0.000000    0.796419
 ---------------------------------------------------------------------

 SCF Done:  E(RB3LYP) =  -114.485366988     A.U. after    9 cycles

 Excitation energies and oscillator strengths:

 Excited State   1:      Singlet-A2     2.6413 eV  469.41 nm  f=0.0000  <S**2>=0.000
       3 -> 27         0.00164
       3 -> 38         0.00131
       3 -> 46         0.00309
       4 -> 27         0.00106
       4 -> 38        -0.00026
       4 -> 46        -0.00141
       5 ->  9         0.01323
       5 -> 13         0.00020
       5 -> 18         0.00396
       5 -> 23         0.00140
       5 -> 28         0.00353
       5 -> 31        -0.00061
       5 -> 37         0.00208
       5 -> 44         0.00044
       5 -> 52         0.00050
       6 -> 27        -0.00055
       6 -> 38        -0.00087
       6 -> 46         0.00159
       7 -> 12        -0.00072
       7 -> 15         0.00414
       7 -> 19        -0.00360
       7 -> 22        -0.00033
       7 -> 25         0.00121
       7 -> 30        -0.00127
       7 -> 33         0.00043
       7 -> 42        -0.00011
       7 -> 49         0.00015
       7 -> 50         0.00024
       7 -> 53         0.00047
       8 ->  9         0.70738
       8 -> 13        -0.02068
       8 -> 18         0.02207
       8 -> 23        -0.00593
       8 -> 28         0.01092
       8 -> 37         0.00061
       8 -> 48        -0.00029
       8 -> 52         0.00191
       3 <- 27         0.00091
       3 <- 38         0.00101
       3 <- 46         0.00315
       4 <- 27         0.00172
       4 <- 38         0.00021
       4 <- 46        -0.00115
       5 <-  9        -0.00052
       5 <- 13        -0.00066
       5 <- 18        -0.00089
       5 <- 23         0.00038
       5 <- 28        -0.00063
       5 <- 31         0.00050
       5 <- 37         0.00110
       5 <- 44         0.00015
       5 <- 52         0.00013
       6 <- 38        -0.00073
       6 <- 46         0.00124
       7 <- 15        -0.00922
       7 <- 19         0.00239
       7 <- 22         0.00737
       7 <- 25         0.00037
       7 <- 30         0.00475
       7 <- 33        -0.00083
       7 <- 35         0.00149
       7 <- 40         0.00072
       7 <- 49        -0.00023
       7 <- 50         0.00015
       7 <- 53         0.00143
       8 <-  9        -0.03866
       8 <- 13         0.00127
       8 <- 18        -0.00569
       8 <- 23         0.00051
       8 <- 28        -0.00190
       8 <- 31        -0.00053
       8 <- 37        -0.00076
       8 <- 52         0.00053
 This state for optimization and/or second-order correction.
 Total Energy, E(TD-HF/TD-DFT) =  -114.388302157
 Copying the excited state density for this state as the 1-particle RhoCI density.

 Excited State   2:      Singlet-A1     6.5925 eV  188.07 nm  f=0.1185  <S**2>=0.000
       3 -> 10         0.00755
       3 -> 11        -0.01617
       3 -> 14         0.00999
       3 -> 16         0.02097
       3 -> 17        -0.00606
       3 -> 20        -0.00189
       3 -> 21        -0.00393
       3 -> 24         0.00487
       3 -> 26         0.00685
       3 -> 32         0.00289
       3 -> 34         0.00375
       3 -> 36         0.00092
       3 -> 39         0.00121
       3 -> 41         0.00013
       3 -> 43         0.00051
       3 -> 45         0.00153
       3 -> 47         0.00144
       3 -> 51         0.00049
       3 -> 54         0.00030
       4 -> 10         0.02221
       4 -> 11         0.01041
       4 -> 14         0.01354
       4 -> 16        -0.00626
       4 -> 17         0.00380
       4 -> 20         0.00854
       4 -> 21         0.00019
       4 -> 24        -0.00675
       4 -> 26         0.00602
       4 -> 29         0.00111
       4 -> 32        -0.00121
       4 -> 34        -0.00274
       4 -> 36        -0.00041
       4 -> 39        -0.00020
       4 -> 41         0.00013
       4 -> 43        -0.00021
       4 -> 45        -0.00027
       4 -> 47        -0.00168
       4 -> 51        -0.00020
       5 -> 12         0.02611
       5 -> 15         0.02326
       5 -> 19         0.00185
       5 -> 22         0.00483
       5 -> 25         0.01174
       5 -> 30        -0.00188
       5 -> 33        -0.00336
       5 -> 35         0.00225
       5 -> 40         0.00164
       5 -> 42         0.00066
       5 -> 49         0.00061
       5 -> 50        -0.00052
       5 -> 53        -0.00026
       6 -> 10        -0.05156
       6 -> 11         0.08251
       6 -> 14        -0.04474
       6 -> 16        -0.12142
       6 -> 17        -0.00882
       6 -> 20        -0.02680
       6 -> 21         0.02408
       6 -> 24        -0.02145
       6 -> 26        -0.01104
       6 -> 29        -0.01019
       6 -> 34         0.00248
       6 -> 36        -0.00176
       6 -> 39         0.00036
       6 -> 41        -0.00078
       6 -> 43         0.00056
       6 -> 45         0.00024
       6 -> 47         0.00178
       6 -> 51         0.00080
       6 -> 54        -0.00037
       7 ->  9         0.68586
       7 -> 13         0.01428
       7 -> 18        -0.02516
       7 -> 23         0.00426
       7 -> 28        -0.00405
       7 -> 31        -0.00223
       7 -> 37         0.00033
       7 -> 44        -0.00099
       7 -> 48         0.00059
       7 -> 52         0.00102
       8 -> 12        -0.00044
       8 -> 15         0.11076
       8 -> 19        -0.02694
       8 -> 22        -0.04111
       8 -> 25         0.00228
       8 -> 30        -0.01470
       8 -> 33         0.00441
       8 -> 35        -0.00555
       8 -> 40        -0.00235
       8 -> 42        -0.00035
       8 -> 49         0.00070
       8 -> 50         0.00033
       8 -> 53        -0.00092
       3 <- 10         0.00430
       3 <- 11        -0.01001
       3 <- 14         0.00698
       3 <- 16         0.01391
       3 <- 17        -0.00332
       3 <- 20        -0.00106
       3 <- 21        -0.00354
       3 <- 24         0.00330
       3 <- 26         0.00438
       3 <- 29         0.00012
       3 <- 32         0.00263
       3 <- 34         0.00247
       3 <- 36         0.00058
       3 <- 39         0.00095
       3 <- 41         0.00014
       3 <- 43         0.00054
       3 <- 45         0.00149
       3 <- 47         0.00169
       3 <- 51         0.00047
       3 <- 54         0.00035
       4 <- 10         0.00971
       4 <- 11         0.00541
       4 <- 14         0.00615
       4 <- 16        -0.00380
       4 <- 17         0.00171
       4 <- 20         0.00566
       4 <- 21         0.00024
       4 <- 24        -0.00415
       4 <- 26         0.00433
       4 <- 29         0.00021
       4 <- 32        -0.00159
       4 <- 34        -0.00229
       4 <- 36        -0.00017
       4 <- 39        -0.00024
       4 <- 43        -0.00021
       4 <- 45         0.00016
       4 <- 47        -0.00144
       5 <- 12         0.00881
       5 <- 15         0.00961
       5 <- 19         0.00114
       5 <- 22         0.00260
       5 <- 25         0.00702
       5 <- 30        -0.00107
       5 <- 33        -0.00245
       5 <- 35         0.00178
       5 <- 40         0.00138
       5 <- 42         0.00052
       5 <- 49         0.00052
       5 <- 50        -0.00047
       5 <- 53        -0.00023
       6 <- 10        -0.01186
       6 <- 11         0.02041
       6 <- 14        -0.01450
       6 <- 16        -0.04546
       6 <- 17        -0.00358
       6 <- 20        -0.01296
       6 <- 21         0.01221
       6 <- 24        -0.01193
       6 <- 26        -0.00646
       6 <- 29        -0.00649
       6 <- 32         0.00037
       6 <- 34         0.00246
       6 <- 36        -0.00123
       6 <- 39         0.00052
       6 <- 41        -0.00052
       6 <- 43         0.00049
       6 <- 47         0.00137
       6 <- 51         0.00061
       6 <- 54        -0.00028
       7 <-  9        -0.10931
       7 <- 13         0.01091
       7 <- 18        -0.01480
       7 <- 23         0.00614
       7 <- 28        -0.00547
       7 <- 31        -0.00068
       7 <- 44        -0.00046
       7 <- 52         0.00085
       8 <- 12        -0.00014
       8 <- 15         0.02707
       8 <- 19        -0.00847
       8 <- 22        -0.01845
       8 <- 25         0.00073
       8 <- 30        -0.00959
       8 <- 33         0.00306
       8 <- 35        -0.00397
       8 <- 40        -0.00184
       8 <- 42        -0.00028
       8 <- 49         0.00048
       8 <- 50         0.00026
       8 <- 53        -0.00082

 Excited State   3:      Singlet-B1     6.6426 eV  186.65 nm  f=0.0015  <S**2>=0.000
       3 ->  9        -0.03235
       3 -> 13         0.00288
       3 -> 18        -0.00580
       3 -> 23         0.00264
       3 -> 28        -0.00156
       3 -> 31        -0.00050
       3 -> 44         0.00039
       3 -> 48         0.00066
       3 -> 52         0.00107
       4 ->  9         0.01546
       4 -> 13        -0.00271
       4 -> 18         0.00059
       4 -> 23        -0.00248
       4 -> 28         0.00019
       4 -> 31        -0.00188
       4 -> 37        -0.00046
       4 -> 48        -0.00139
       4 -> 52        -0.00079
       5 -> 27        -0.00092
       5 -> 38         0.00198
       5 -> 46         0.00164
       6 ->  9         0.70595
       6 -> 13        -0.02483
       6 -> 18         0.01933
       6 -> 23        -0.01173
       6 -> 28         0.00564
       6 -> 31         0.00387
       6 -> 37        -0.00249
       6 -> 44        -0.00334
       6 -> 48         0.00483
       6 -> 52         0.00172
       7 -> 10        -0.00453
       7 -> 11         0.00655
       7 -> 14        -0.00456
       7 -> 16        -0.00605
       7 -> 17        -0.01000
       7 -> 20         0.00208
       7 -> 21        -0.00127
       7 -> 24         0.00051
       7 -> 26        -0.00042
       7 -> 29        -0.00446
       7 -> 32        -0.00108
       7 -> 34        -0.00017
       7 -> 36         0.00172
       7 -> 39         0.00012
       7 -> 41        -0.00117
       7 -> 43         0.00075
       7 -> 45         0.00359
       7 -> 47         0.00337
       7 -> 51         0.00114
       7 -> 54         0.00055
       8 -> 27         0.00135
       8 -> 38         0.00043
       8 -> 46         0.00621
       3 <-  9        -0.01050
       3 <- 18        -0.00321
       3 <- 23        -0.00018
       3 <- 28        -0.00103
       3 <- 31        -0.00052
       3 <- 44        -0.00024
       3 <- 48         0.00089
       3 <- 52         0.00085
       4 <-  9         0.00635
       4 <- 18         0.00231
       4 <- 23        -0.00035
       4 <- 28         0.00205
       4 <- 31        -0.00146
       4 <- 44         0.00018
       4 <- 48        -0.00121
       4 <- 52        -0.00044
       5 <- 27        -0.00126
       5 <- 38         0.00154
       5 <- 46         0.00146
       6 <-  9        -0.02260
       6 <- 13         0.00202
       6 <- 18        -0.00302
       6 <- 28        -0.00291
       6 <- 31         0.00208
       6 <- 37        -0.00231
       6 <- 44        -0.00200
       6 <- 48         0.00428
       6 <- 52         0.00063
       7 <- 10         0.00406
       7 <- 11        -0.00675
       7 <- 14         0.00438
       7 <- 16         0.01632
       7 <- 17        -0.00142
       7 <- 20         0.00633
       7 <- 21        -0.00573
       7 <- 24         0.00520
       7 <- 26         0.00246
       7 <- 29         0.00061
       7 <- 32        -0.00086
       7 <- 34        -0.00106
       7 <- 36         0.00274
       7 <- 39         0.00038
       7 <- 41        -0.00074
       7 <- 43         0.00068
       7 <- 45         0.00335
       7 <- 47         0.00292
       7 <- 51         0.00087
       7 <- 54         0.00109
       8 <- 27         0.00160
       8 <- 38         0.00057
       8 <- 46         0.00564

 Excited State   4:      Singlet-B2     6.9095 eV  179.44 nm  f=0.0133  <S**2>=0.000
       3 -> 12         0.00187
       3 -> 19         0.00203
       3 -> 22        -0.00032
       3 -> 25         0.00087
       3 -> 30         0.00071
       3 -> 33         0.00034
       3 -> 35        -0.00097
       3 -> 40        -0.00064
       3 -> 42        -0.00011
       3 -> 49         0.00069
       3 -> 50        -0.00011
       3 -> 53        -0.00015
       4 -> 12        -0.00146
       4 -> 15         0.00244
       4 -> 19         0.00137
       4 -> 22        -0.00326
       4 -> 25         0.00286
       4 -> 40         0.00043
       4 -> 42        -0.00012
       4 -> 49        -0.00012
       5 -> 10        -0.00763
       5 -> 11         0.00151
       5 -> 14         0.00994
       5 -> 16         0.00529
       5 -> 17        -0.00183
       5 -> 20         0.00064
       5 -> 21        -0.00564
       5 -> 24        -0.00141
       5 -> 26         0.00183
       5 -> 29         0.00115
       5 -> 32        -0.00074
       5 -> 34         0.00106
       5 -> 36         0.00037
       5 -> 39         0.00011
       5 -> 41        -0.00069
       5 -> 43        -0.00028
       5 -> 45         0.00011
       5 -> 47         0.00023
       5 -> 51        -0.00015
       5 -> 54         0.00014
       6 -> 12        -0.00252
       6 -> 15         0.00100
       6 -> 19        -0.00038
       6 -> 22        -0.00142
       6 -> 25         0.00071
       6 -> 30        -0.00018
       6 -> 33        -0.00041
       6 -> 35         0.00129
       6 -> 40         0.00059
       7 -> 38        -0.00088
       7 -> 46        -0.00087
       8 -> 10         0.70496
       8 -> 11        -0.00199
       8 -> 14         0.04004
       8 -> 16         0.03168
       8 -> 17        -0.00319
       8 -> 20         0.01403
       8 -> 21         0.00069
       8 -> 24         0.00110
       8 -> 26         0.00409
       8 -> 29         0.00305
       8 -> 32         0.00093
       8 -> 39         0.00029
       8 -> 41        -0.00041
       8 -> 43         0.00063
       8 -> 45         0.00082
       8 -> 47         0.00057
       8 -> 51        -0.00067
       8 -> 54         0.00044
       3 <- 12         0.00044
       3 <- 15         0.00029
       3 <- 19         0.00085
       3 <- 22        -0.00066
       3 <- 25         0.00041
       3 <- 30         0.00019
       3 <- 33         0.00030
       3 <- 35        -0.00083
       3 <- 40        -0.00060
       3 <- 49         0.00074
       3 <- 53        -0.00026
       4 <- 12         0.00073
       4 <- 15         0.00215
       4 <- 19         0.00131
       4 <- 22        -0.00225
       4 <- 25         0.00184
       4 <- 33         0.00018
       4 <- 35        -0.00015
       4 <- 42        -0.00021
       4 <- 50        -0.00012
       5 <- 10         0.00205
       5 <- 11         0.00042
       5 <- 14         0.00434
       5 <- 16        -0.00058
       5 <- 17        -0.00028
       5 <- 20         0.00021
       5 <- 21        -0.00139
       5 <- 24        -0.00251
       5 <- 26         0.00115
       5 <- 29         0.00022
       5 <- 32        -0.00081
       5 <- 34         0.00072
       5 <- 36         0.00016
       5 <- 41        -0.00055
       5 <- 43        -0.00027
       5 <- 45         0.00017
       6 <- 12        -0.00025
       6 <- 15        -0.00138
       6 <- 19         0.00096
       6 <- 22         0.00062
       6 <- 25         0.00024
       6 <- 30         0.00124
       6 <- 33        -0.00049
       6 <- 35         0.00124
       6 <- 40         0.00054
       6 <- 49        -0.00013
       6 <- 50        -0.00014
       6 <- 53         0.00033
       7 <- 27         0.00014
       7 <- 38        -0.00066
       7 <- 46        -0.00067
       8 <- 10        -0.00197
       8 <- 11         0.00263
       8 <- 14        -0.00432
       8 <- 16        -0.00303
       8 <- 17        -0.00019
       8 <- 20        -0.00020
       8 <- 21         0.00153
       8 <- 24         0.00066
       8 <- 26        -0.00122
       8 <- 32         0.00014
       8 <- 34        -0.00013
       8 <- 36        -0.00040
       8 <- 39        -0.00024
       8 <- 41        -0.00024
       8 <- 43         0.00024
       8 <- 45         0.00089
       8 <- 47         0.00013
       8 <- 51        -0.00030
       8 <- 54         0.00012

 Excited State   5:      Singlet-B2     7.4310 eV  166.85 nm  f=0.0234  <S**2>=0.000
       3 -> 12         0.00047
       3 -> 15         0.00182
       3 -> 19        -0.00213
       3 -> 22        -0.00052
       3 -> 25         0.00050
       3 -> 30        -0.00353
       3 -> 33        -0.00019
       3 -> 35         0.00121
       3 -> 40         0.00097
       3 -> 49        -0.00120
       3 -> 50         0.00016
       4 -> 12        -0.00175
       4 -> 15        -0.00095
       4 -> 19        -0.00028
       4 -> 22         0.00129
       4 -> 25        -0.00174
       4 -> 30         0.00184
       4 -> 33        -0.00048
       4 -> 35         0.00066
       4 -> 40        -0.00013
       4 -> 50        -0.00011
       5 -> 10        -0.00225
       5 -> 11         0.00153
       5 -> 14        -0.01060
       5 -> 16         0.00309
       5 -> 17         0.00396
       5 -> 20         0.00353
       5 -> 21         0.00400
       5 -> 24         0.00058
       5 -> 26        -0.00190
       5 -> 29        -0.00145
       5 -> 32        -0.00095
       5 -> 34        -0.00047
       5 -> 36        -0.00077
       5 -> 39        -0.00082
       5 -> 41         0.00047
       5 -> 43        -0.00033
       5 -> 45        -0.00088
       5 -> 47        -0.00046
       5 -> 51         0.00052
       6 -> 12         0.00177
       6 -> 15         0.00028
       6 -> 19         0.00108
       6 -> 22        -0.00089
       6 -> 25        -0.00013
       6 -> 30        -0.00132
       6 -> 33         0.00043
       6 -> 35        -0.00147
       6 -> 40        -0.00144
       6 -> 42        -0.00019
       6 -> 49         0.00174
       6 -> 50        -0.00015
       6 -> 53        -0.00018
       7 -> 27        -0.00071
       7 -> 38         0.00056
       7 -> 46         0.00292
       8 -> 10         0.00616
       8 -> 11         0.70327
       8 -> 14        -0.02257
       8 -> 16        -0.06804
       8 -> 17         0.00136
       8 -> 20         0.01197
       8 -> 21         0.00166
       8 -> 24        -0.00374
       8 -> 26        -0.00089
       8 -> 29        -0.00501
       8 -> 32        -0.00042
       8 -> 34        -0.00057
       8 -> 36        -0.00093
       8 -> 39         0.00017
       8 -> 41         0.00066
       8 -> 43        -0.00034
       8 -> 45        -0.00350
       8 -> 47        -0.00124
       8 -> 51         0.00168
       8 -> 54        -0.00040
       3 <- 12        -0.00030
       3 <- 15         0.00065
       3 <- 19        -0.00138
       3 <- 25         0.00016
       3 <- 30        -0.00172
       3 <- 33        -0.00027
       3 <- 35         0.00105
       3 <- 40         0.00088
       3 <- 49        -0.00118
       3 <- 50         0.00012

 The electronic state is 1-A1.
 Alpha  occ. eigenvalues --  -19.16548 -10.31212  -0.97134  -0.67945  -0.48899
 Alpha  occ. eigenvalues --   -0.43453  -0.35490  -0.28992
 Alpha virt. eigenvalues --   -0.11948  -0.00050   0.02884   0.04139   0.06188
 Alpha virt. eigenvalues --    0.11531   0.15526   0.17784   0.18956   0.21676
 Alpha virt. eigenvalues --    0.23815   0.30070   0.40349   0.42771   0.50975

 Mulliken charges:
               1
     1  C   -0.031170
     2  H    0.160993
     3  H    0.160993
     4  O   -0.290816
 Sum of Mulliken charges =  -0.00000

 Dipole moment (field-independent basis, Debye):
    X=             -0.0000    Y=              0.0000    Z=             -3.3736  Tot=              3.3736
 Quadrupole moment (field-independent basis, Debye-Ang):
   XX=            -12.4109   YY=            -11.7883   ZZ=            -11.7670
   XY=              0.0000   XZ=              0.0000   YZ=             -0.0000

 Normal termination of Gaussian 16 at Fri Sep 17 10:52:52 2021.
