 Gaussian 16, Revision C.01,
 Gaussian 16:  ES64L-G16RevC.01  3-Jul-2019

 ----------------------------------------
 #P wB97XD/6-311+G* NoSymm #P Field=X+194
 ----------------------------------------

 -------
 TitleMe
 -------
 Symbolic Z-matrix:
 Charge =  1 Multiplicity = 1

                          Input orientation:
 ---------------------------------------------------------------------
 Center     Atomic      Atomic             Coordinates (Angstroms)
 Number     Number       Type             X           Y           Z
 ---------------------------------------------------------------------
      1          6           0        0.519300    1.233000   -0.031900
      2          6           0        1.944500    1.269200   -0.036700
      3          6           0        2.620400    0.092800   -0.025000
      4          6           0       -0.196000    0.030100    0.001000
      5          1           0       -0.020700    2.174200   -0.043400
      6          1           0        2.482800    2.208900   -0.036100
      7          1           0       -1.277700    0.039900    0.011700
      8          7           0        4.092100    0.095900    0.036600
      9          8           0        4.639300   -1.021700    0.144600
     10          8           0        4.664900    1.198400   -0.023300
     11          6           0        0.494300   -1.167100    0.021000
     12          1           0       -0.032500   -2.114900    0.054500
     13          6           0        1.962900   -1.216500   -0.021100
     14          1           0        2.443600   -1.963100    0.615100
     15         35           0        2.173000   -1.949100   -1.906200
 ---------------------------------------------------------------------

 SCF Done:  E(RwB97XD) =  -3010.53177313     A.U. after   19 cycles

 Alpha  occ. eigenvalues -- -483.37943 -62.92977 -56.72657 -56.72105 -56.72097
 Alpha  occ. eigenvalues --  -19.58377 -19.58264 -14.97434 -10.66258 -10.64984
 Alpha  occ. eigenvalues --  -10.62730 -10.61966 -10.61112 -10.57148  -9.08792
 Alpha  occ. eigenvalues --   -6.91435  -6.89621  -6.89596  -3.01348  -3.00869
 Alpha  occ. eigenvalues --   -3.00847  -2.99396  -2.99395  -1.61938  -1.45020
 Alpha  occ. eigenvalues --   -1.29252  -1.19899  -1.19019  -1.11679  -1.07902
 Alpha  occ. eigenvalues --   -1.01486  -0.97899  -0.94642  -0.91896  -0.90314
 Alpha  occ. eigenvalues --   -0.87441  -0.85000  -0.83334  -0.82306  -0.78318
 Alpha  occ. eigenvalues --   -0.73414  -0.73151  -0.69871  -0.69629  -0.68883
 Alpha  occ. eigenvalues --   -0.68290  -0.66125  -0.63283  -0.61539
 Alpha virt. eigenvalues --   -0.36896  -0.30035  -0.22528  -0.20099  -0.17949
 Alpha virt. eigenvalues --   -0.14937  -0.13942  -0.13395  -0.11982  -0.09696
 Alpha virt. eigenvalues --   -0.09024  -0.08850  -0.08474  -0.07213  -0.06300

 Mulliken charges:
               1
     1  C   -0.137176
     2  C    0.173612
     3  C   -0.169954
     4  C   -0.304906
     5  H    0.393400
     6  H    0.327348
     7  H    0.416667
     8  N   -0.236652
     9  O    0.012274
    10  O   -0.024273
    11  C   -0.147347
    12  H    0.403988
    13  C   -0.242900
    14  H    0.388030
    15  Br   0.147888
 Sum of Mulliken charges =   1.00000

 Dipole moment (field-independent basis, Debye):
    X=             -2.7777    Y=             -0.6349    Z=             -0.4927  Tot=              2.8916
 Quadrupole moment (field-independent basis, Debye-Ang):
   XX=            -90.2964   YY=            -51.5644   ZZ=            -62.7996
   XY=             -1.5576   XZ=             -1.0496   YZ=              1.8432

 Normal termination of Gaussian 16 at Thu May  2 14:18:33 2024.
