 Gaussian 16, Revision A.03,
 Gaussian 16:  ES64L-G16RevA.03 25-Dec-2016

 --------------------------------------------------------------------
 #p B3LYP/6-311+G** #p TD=(singlets,nstates=30)IOp(6/8=3) IOp(9/40=4)
 --------------------------------------------------------------------

 ---------------------------------------------
 Scan Step 107, Bond Length 1.0350000000000001
 ---------------------------------------------
 Symbolic Z-matrix:
 Charge =  0 Multiplicity = 1

                         Standard orientation:
 ---------------------------------------------------------------------
 Center     Atomic      Atomic             Coordinates (Angstroms)
 Number     Number       Type             X           Y           Z
 ---------------------------------------------------------------------
      1          6           0        0.000000    0.000000   -0.443581
      2          1           0        0.000000    0.937260   -1.034931
      3          1           0       -0.000000   -0.937260   -1.034931
      4          8           0        0.000000   -0.000000    0.591419
 ---------------------------------------------------------------------

 SCF Done:  E(RB3LYP) =  -114.477597626     A.U. after    9 cycles

 Excitation energies and oscillator strengths:

 Excited State   1:      Singlet-A2     4.9237 eV  251.81 nm  f=0.0000  <S**2>=0.000
       3 -> 27         0.00295
       3 -> 37         0.00246
       3 -> 45         0.00184
       4 -> 27         0.00282
       4 -> 37        -0.00074
       4 -> 45        -0.00101
       5 ->  9         0.01805
       5 -> 13        -0.00786
       5 -> 17         0.00620
       5 -> 23        -0.00241
       5 -> 28         0.00374
       5 -> 31         0.00288
       5 -> 36         0.00402
       5 -> 44         0.00068
       5 -> 47         0.00012
       5 -> 52         0.00085
       6 -> 27         0.00053
       6 -> 37        -0.00060
       6 -> 45         0.00160
       7 -> 12        -0.00062
       7 -> 16         0.00182
       7 -> 18         0.00169
       7 -> 22         0.00154
       7 -> 24         0.00115
       7 -> 29        -0.00070
       7 -> 34         0.00035
       7 -> 35         0.00050
       7 -> 40        -0.00035
       7 -> 42        -0.00027
       7 -> 48         0.00061
       7 -> 51        -0.00019
       7 -> 53         0.00039
       8 ->  9         0.70107
       8 -> 13        -0.08691
       8 -> 17         0.02584
       8 -> 23        -0.01177
       8 -> 28         0.00688
       8 -> 31         0.00349
       8 -> 36        -0.00143
       8 -> 44        -0.00025
       8 -> 47        -0.00016
       8 -> 52         0.00132
       3 <- 27         0.00206
       3 <- 37         0.00209
       3 <- 45         0.00192
       4 <- 27         0.00357
       4 <- 37        -0.00022
       4 <- 45        -0.00092
       5 <- 13        -0.00098
       5 <- 17        -0.00059
       5 <- 23         0.00049
       5 <- 28        -0.00039
       5 <- 31        -0.00111
       5 <- 36         0.00180
       5 <- 44         0.00039
       5 <- 47         0.00017
       5 <- 52         0.00022
       6 <- 27         0.00091
       6 <- 37        -0.00058
       6 <- 45         0.00124
       7 <- 12        -0.00096
       7 <- 16        -0.00494
       7 <- 18         0.00169
       7 <- 22         0.00634
       7 <- 24        -0.00092
       7 <- 29         0.00229
       7 <- 34        -0.00125
       7 <- 35         0.00249
       7 <- 40        -0.00068
       7 <- 42        -0.00081
       7 <- 48         0.00044
       7 <- 53         0.00104
       8 <-  9        -0.01618
       8 <- 13         0.00578
       8 <- 17        -0.00385
       8 <- 23         0.00070
       8 <- 28        -0.00050
       8 <- 31         0.00190
       8 <- 36        -0.00208
       8 <- 52         0.00039
 This state for optimization and/or second-order correction.
 Total Energy, E(TD-HF/TD-DFT) =  -114.296654467
 Copying the excited state density for this state as the 1-particle RhoCI density.

 Excited State   2:      Singlet-B2     6.4771 eV  191.42 nm  f=0.0597  <S**2>=0.000
       3 -> 12         0.00114
       3 -> 16         0.00050
       3 -> 18        -0.00112
       3 -> 22        -0.00020
       3 -> 24         0.00128
       3 -> 29        -0.00013
       3 -> 35        -0.00022
       3 -> 51        -0.00011
       4 -> 12        -0.00476
       4 -> 16         0.00067
       4 -> 18        -0.00236
       4 -> 22        -0.00322
       4 -> 24         0.00388
       4 -> 34        -0.00084
       4 -> 35         0.00085
       4 -> 40        -0.00042
       4 -> 42        -0.00028
       5 -> 10        -0.00186
       5 -> 11        -0.00893
       5 -> 14         0.00653
       5 -> 15        -0.00135
       5 -> 19         0.00315
       5 -> 20        -0.00017
       5 -> 21         0.00426
       5 -> 25         0.00046
       5 -> 26        -0.00209
       5 -> 30         0.00241
       5 -> 32        -0.00032
       5 -> 33        -0.00053
       5 -> 38        -0.00048
       5 -> 39        -0.00027
       5 -> 43        -0.00053
       5 -> 46        -0.00056
       5 -> 49         0.00023
       6 -> 12         0.00147
       6 -> 16         0.00053
       6 -> 18        -0.00396
       6 -> 22        -0.00269
       6 -> 24         0.00183
       6 -> 29        -0.00025
       6 -> 34        -0.00011
       6 -> 42         0.00036
       6 -> 48         0.00036
       6 -> 51         0.00051
       7 -> 27         0.00057
       7 -> 37        -0.00019
       7 -> 45         0.00074
       8 -> 10         0.70533
       8 -> 11        -0.04312
       8 -> 14        -0.00223
       8 -> 15        -0.01010
       8 -> 19         0.01804
       8 -> 20         0.01010
       8 -> 21        -0.00554
       8 -> 25         0.00082
       8 -> 26        -0.00115
       8 -> 30         0.00047
       8 -> 32         0.00154
       8 -> 33         0.00204
       8 -> 38         0.00058
       8 -> 39         0.00055
       8 -> 41        -0.00017
       8 -> 43         0.00069
       8 -> 46        -0.00090
       8 -> 54         0.00017
       3 <- 12         0.00033
       3 <- 16         0.00045
       3 <- 18        -0.00051
       3 <- 22        -0.00029
       3 <- 24         0.00085
       3 <- 29        -0.00012
       3 <- 35        -0.00022
       4 <- 12         0.00046
       4 <- 16         0.00117
       4 <- 18        -0.00261
       4 <- 22        -0.00196
       4 <- 24         0.00280
       4 <- 34        -0.00058
       4 <- 35         0.00058
       4 <- 40        -0.00028
       5 <- 10         0.00241
       5 <- 11        -0.00014
       5 <- 14         0.00484
       5 <- 15        -0.00129
       5 <- 19         0.00077
       5 <- 20         0.00019
       5 <- 21         0.00221
       5 <- 25         0.00167
       5 <- 26        -0.00144
       5 <- 30         0.00077
       5 <- 32        -0.00055
       5 <- 33        -0.00053
       5 <- 38        -0.00042
       5 <- 39        -0.00017
       5 <- 41         0.00016
       5 <- 43        -0.00037
       5 <- 46        -0.00047
       5 <- 49         0.00021
       6 <- 12         0.00042
       6 <- 16        -0.00043
       6 <- 18        -0.00178
       6 <- 22        -0.00098
       6 <- 24         0.00073
       6 <- 29         0.00044
       6 <- 34        -0.00018
       6 <- 35         0.00023
       6 <- 42         0.00034
       6 <- 48         0.00031
       6 <- 51         0.00052
       7 <- 27         0.00044
       7 <- 37        -0.00014
       7 <- 45         0.00063
       8 <- 10        -0.00299
       8 <- 11        -0.00094
       8 <- 14        -0.00913
       8 <- 15         0.00042
       8 <- 19        -0.00058
       8 <- 20        -0.00037
       8 <- 21        -0.00331
       8 <- 25        -0.00290
       8 <- 26        -0.00023
       8 <- 30        -0.00067
       8 <- 32         0.00038
       8 <- 33         0.00162
       8 <- 38         0.00059
       8 <- 39         0.00045
       8 <- 43         0.00054
       8 <- 46        -0.00061
       8 <- 49         0.00014
       8 <- 50         0.00013

 Excited State   3:      Singlet-B2     7.2687 eV  170.57 nm  f=0.0207  <S**2>=0.000
       3 -> 12        -0.00019
       3 -> 16        -0.00066
       3 -> 18        -0.00047
       3 -> 22         0.00023
       3 -> 24         0.00034
       3 -> 29         0.00141
       3 -> 34         0.00014
       3 -> 35        -0.00033
       3 -> 40         0.00018
       3 -> 42         0.00030
       3 -> 48         0.00024
       3 -> 51         0.00026
       4 -> 12         0.00313
       4 -> 16        -0.00148
       4 -> 18        -0.00336
       4 -> 22        -0.00156
       4 -> 24         0.00338
       4 -> 29        -0.00106
       4 -> 34         0.00054
       4 -> 35        -0.00036
       4 -> 40        -0.00013
       4 -> 42         0.00016
       4 -> 48         0.00018
       4 -> 51         0.00016
       5 -> 10        -0.00716
       5 -> 11         0.00034
       5 -> 14         0.00519
       5 -> 15        -0.00624
       5 -> 19        -0.00387
       5 -> 20        -0.00241
       5 -> 21         0.00105
       5 -> 25         0.00135
       5 -> 26         0.00091
       5 -> 30         0.00121
       5 -> 32        -0.00151
       5 -> 33        -0.00106
       5 -> 39         0.00051
       5 -> 41        -0.00086
       5 -> 46         0.00074
       5 -> 49        -0.00037
       5 -> 50        -0.00031
       6 -> 12        -0.00321
       6 -> 16        -0.00170
       6 -> 18         0.00173
       6 -> 22         0.00147
       6 -> 29         0.00042
       6 -> 34        -0.00040
       6 -> 35         0.00141
       6 -> 40        -0.00066
       6 -> 42        -0.00060
       6 -> 48        -0.00075
       6 -> 51        -0.00068
       6 -> 53         0.00013
       7 -> 27        -0.00055
       7 -> 37        -0.00120
       7 -> 45        -0.00136
       8 -> 10         0.04376
       8 -> 11         0.70480
       8 -> 14        -0.01282
       8 -> 15         0.01824
       8 -> 19        -0.02296
       8 -> 20         0.01283
       8 -> 21        -0.00205
       8 -> 25         0.00041
       8 -> 26         0.00117
       8 -> 30        -0.00116
       8 -> 32        -0.00020
       8 -> 33         0.00036
       8 -> 39         0.00010
       8 -> 41        -0.00142
       8 -> 46         0.00109
       8 -> 49        -0.00071
       8 -> 50        -0.00044
       8 -> 54        -0.00017
       3 <- 12         0.00031
       3 <- 16        -0.00034
       3 <- 18        -0.00070
       3 <- 24         0.00043
       3 <- 29         0.00088
       3 <- 34         0.00020
       3 <- 35        -0.00038
       3 <- 40         0.00016
       3 <- 42         0.00025
       3 <- 48         0.00020
       3 <- 51         0.00016
       3 <- 53        -0.00022
       4 <- 12         0.00035
       4 <- 16         0.00034
       4 <- 18        -0.00105
       4 <- 22        -0.00122
       4 <- 24         0.00143
       4 <- 29        -0.00044
       4 <- 34         0.00051
       4 <- 42         0.00020
       4 <- 48         0.00011
       4 <- 51         0.00022
       5 <- 10         0.00132
       5 <- 11        -0.00070
       5 <- 14         0.00214
       5 <- 15        -0.00046
       5 <- 19         0.00072
       5 <- 21         0.00093
       5 <- 25         0.00107
       5 <- 26         0.00070
       5 <- 30         0.00076
       5 <- 33        -0.00126
       5 <- 38         0.00016
       5 <- 39         0.00027
       5 <- 41        -0.00088
       5 <- 46         0.00069
       5 <- 49        -0.00024
       5 <- 50        -0.00030
       6 <- 12        -0.00035
       6 <- 16        -0.00012
       6 <- 18         0.00026
       6 <- 22         0.00042
       6 <- 34        -0.00019
       6 <- 35         0.00104
       6 <- 40        -0.00049
       6 <- 42        -0.00042
       6 <- 48        -0.00063
       6 <- 51        -0.00059
       7 <- 27        -0.00015
       7 <- 37        -0.00097
       7 <- 45        -0.00116
       8 <- 10        -0.00097
       8 <- 11         0.00056
       8 <- 14        -0.00470
       8 <- 15         0.00073
       8 <- 19         0.00272
       8 <- 20        -0.00150
       8 <- 21        -0.00221
       8 <- 26         0.00142
       8 <- 30        -0.00067
       8 <- 32         0.00124
       8 <- 38        -0.00020
       8 <- 39        -0.00013
       8 <- 41        -0.00120
       8 <- 46         0.00089
       8 <- 49        -0.00044
       8 <- 50        -0.00038

 Excited State   4:      Singlet-A1     7.4125 eV  167.26 nm  f=0.0534  <S**2>=0.000
       3 -> 10         0.00156
       3 -> 11        -0.00100
       3 -> 14         0.00044
       3 -> 15        -0.00042
       3 -> 19         0.00103
       3 -> 20         0.00091
       3 -> 21         0.00019
       3 -> 25        -0.00011
       3 -> 26        -0.00058
       3 -> 30         0.00121
       3 -> 32        -0.00033
       3 -> 33        -0.00026
       3 -> 38        -0.00032
       3 -> 39         0.00015
       3 -> 41        -0.00020
       3 -> 50        -0.00036
       3 -> 54        -0.00021
       4 -> 10         0.00543
       4 -> 11         0.00844
       4 -> 14         0.00591
       4 -> 15        -0.00043
       4 -> 19         0.00056
       4 -> 20         0.00575
       4 -> 21         0.00245
       4 -> 25         0.00711
       4 -> 26        -0.00089
       4 -> 30        -0.00053
       4 -> 33        -0.00084
       4 -> 39        -0.00039
       4 -> 41         0.00021
       4 -> 43         0.00013
       4 -> 46        -0.00026
       4 -> 49        -0.00022
       5 -> 12         0.00768
       5 -> 16        -0.00146
       5 -> 18        -0.01152
       5 -> 22        -0.00080
       5 -> 24         0.00494
       5 -> 29         0.00026
       5 -> 34        -0.00016
       5 -> 35         0.00085
       5 -> 42         0.00014
       5 -> 51        -0.00034
       5 -> 53        -0.00015
       6 -> 10         0.01336
       6 -> 11        -0.00432
       6 -> 14         0.00403
       6 -> 15         0.00151
       6 -> 19         0.00543
       6 -> 20         0.00433
       6 -> 21         0.00178
       6 -> 25         0.00238
       6 -> 26        -0.00058
       6 -> 30        -0.00075
       6 -> 32         0.00056
       6 -> 33        -0.00066
       6 -> 43         0.00011
       6 -> 49        -0.00023
       6 -> 50         0.00055
       7 ->  9         0.01099
       7 -> 13         0.00683
       7 -> 17         0.00469
       7 -> 23         0.00495
       7 -> 31         0.00085
       7 -> 36         0.00055
       7 -> 44         0.00063
       7 -> 47        -0.00036
       7 -> 52        -0.00010
       8 -> 12         0.70567
       8 -> 16        -0.02562
       8 -> 18        -0.02549
       8 -> 22         0.00516
       8 -> 24         0.00197
       8 -> 29         0.00185
       8 -> 34         0.00151
       8 -> 35        -0.00221
       8 -> 40        -0.00044
       8 -> 42        -0.00094
       8 -> 48        -0.00036
       8 -> 51        -0.00027
       8 -> 53        -0.00018
       3 <- 10         0.00058
       3 <- 11        -0.00025
       3 <- 14         0.00028
       3 <- 15        -0.00013
       3 <- 19         0.00047
       3 <- 20         0.00042
       3 <- 21         0.00023
       3 <- 25         0.00015
       3 <- 26        -0.00030
       3 <- 30         0.00075
       3 <- 32        -0.00027
       3 <- 33        -0.00012
       3 <- 38        -0.00025
       3 <- 39         0.00013
       3 <- 41        -0.00017
       3 <- 46         0.00015
       3 <- 49        -0.00010
       3 <- 50        -0.00032
       3 <- 54        -0.00019
       4 <- 10         0.00510
       4 <- 11         0.00247
       4 <- 14         0.00433
       4 <- 15        -0.00080
       4 <- 19         0.00042
       4 <- 20         0.00325
       4 <- 21         0.00100
       4 <- 25         0.00407
       4 <- 26        -0.00049
       4 <- 32        -0.00035
       4 <- 33        -0.00101
       4 <- 38        -0.00013
       4 <- 39        -0.00040
       4 <- 46        -0.00025
       4 <- 49        -0.00019
       5 <- 12         0.00277
       5 <- 16         0.00096
       5 <- 18        -0.00437
       5 <- 24         0.00267
       5 <- 34        -0.00033
       5 <- 35         0.00077
       5 <- 42         0.00012
       5 <- 51        -0.00024
       5 <- 53        -0.00014
       6 <- 10         0.00391
       6 <- 11        -0.00065
       6 <- 14         0.00175
       6 <- 15         0.00050
       6 <- 19         0.00201
       6 <- 20         0.00224
       6 <- 21         0.00070
       6 <- 25         0.00130
       6 <- 26        -0.00058
       6 <- 30        -0.00037
       6 <- 32         0.00032
       6 <- 33        -0.00055
       6 <- 39        -0.00018
       6 <- 41         0.00014
       6 <- 49        -0.00012
       6 <- 50         0.00051
       7 <-  9         0.00218
       7 <- 13         0.00208
       7 <- 17         0.00170
       7 <- 23         0.00268
       7 <- 31         0.00061
       7 <- 36         0.00044
       7 <- 44         0.00053
       7 <- 47        -0.00031
       8 <- 12        -0.00208
       8 <- 16        -0.00819
       8 <- 18         0.00415
       8 <- 22         0.00058
       8 <- 24        -0.00233
       8 <- 29         0.00047
       8 <- 34         0.00090
       8 <- 35        -0.00131
       8 <- 40        -0.00041
       8 <- 42        -0.00079
       8 <- 48        -0.00042
       8 <- 51        -0.00022
       8 <- 53        -0.00020

 Excited State   5:      Singlet-A2     7.9349 eV  156.25 nm  f=0.0000  <S**2>=0.000
       3 -> 27        -0.00085
       3 -> 37        -0.00075
       3 -> 45        -0.00043
       4 -> 37         0.00059
       4 -> 45         0.00013
       5 ->  9        -0.00975
       5 -> 13         0.00082
       5 -> 17         0.00523
       5 -> 23        -0.00085
       5 -> 31        -0.00191
       5 -> 36        -0.00148
       5 -> 44        -0.00026
       5 -> 52        -0.00019
       6 -> 27         0.00016
       6 -> 37         0.00028
       6 -> 45        -0.00045
       7 -> 12        -0.00050
       7 -> 16        -0.00185
       7 -> 18        -0.00162
       7 -> 22        -0.00079
       7 -> 24        -0.00022
       7 -> 29         0.00019
       7 -> 35        -0.00021
       7 -> 40         0.00012
       7 -> 42         0.00013
       7 -> 48        -0.00016
       7 -> 53        -0.00011
       8 ->  9         0.08704
       8 -> 13         0.70129
       8 -> 17         0.01042
       8 -> 23         0.01983
       8 -> 28        -0.00036
       8 -> 31        -0.00126
       8 -> 47         0.00018
       8 -> 52        -0.00025
       3 <- 27        -0.00039
       3 <- 37        -0.00057
       3 <- 45        -0.00053
       4 <- 27        -0.00043
       4 <- 45         0.00014
       5 <-  9        -0.00025
       5 <- 13        -0.00021
       5 <- 17         0.00063
       5 <- 36        -0.00037
       6 <- 27        -0.00012
       6 <- 37         0.00023
       6 <- 45        -0.00016
       7 <- 12        -0.00065
       7 <- 16        -0.00067
       7 <- 18        -0.00062
       7 <- 22        -0.00154
       7 <- 24        -0.00025
       7 <- 29         0.00015
       7 <- 34         0.00051
       7 <- 35        -0.00087
       7 <- 40         0.00028
       7 <- 42         0.00041
       7 <- 53        -0.00020
       8 <-  9         0.00387
       8 <- 13         0.00125
       8 <- 17         0.00027
       8 <- 23        -0.00032
       8 <- 28         0.00011
       8 <- 31        -0.00027
       8 <- 36         0.00036
       8 <- 52        -0.00011

 Excited State   6:      Singlet-B2    10.2324 eV  121.17 nm  f=0.2181  <S**2>=0.000
       3 -> 12        -0.00037
       3 -> 16        -0.00197
       3 -> 18        -0.00041
       3 -> 22         0.00145
       3 -> 24         0.00091
       3 -> 29         0.00138

 The electronic state is 1-A1.
 Alpha  occ. eigenvalues --  -19.14101 -10.25131  -1.17755  -0.61878  -0.54637
 Alpha  occ. eigenvalues --   -0.49123  -0.47964  -0.26478
 Alpha virt. eigenvalues --   -0.01805   0.01226   0.04221   0.04362   0.07151
 Alpha virt. eigenvalues --    0.13680   0.18119   0.19763   0.22005   0.22601
 Alpha virt. eigenvalues --    0.27019   0.35497   0.48930   0.50101   0.51367

 Mulliken charges:
               1
     1  C    0.088669
     2  H    0.059255
     3  H    0.059255
     4  O   -0.207180
 Sum of Mulliken charges =  -0.00000

 Dipole moment (field-independent basis, Debye):
    X=             -0.0000    Y=              0.0000    Z=             -1.5544  Tot=              1.5544
 Quadrupole moment (field-independent basis, Debye-Ang):
   XX=            -11.2302   YY=            -11.9220   ZZ=            -12.8675
   XY=              0.0000   XZ=              0.0000   YZ=             -0.0000

 Normal termination of Gaussian 16 at Fri Sep 17 10:52:36 2021.
