 Gaussian 16, Revision A.03,
 Gaussian 16:  ES64L-G16RevA.03 25-Dec-2016

 --------------------------------------------------------------------
 #p B3LYP/6-311+G** #p TD=(singlets,nstates=30)IOp(6/8=3) IOp(9/40=4)
 --------------------------------------------------------------------

 --------------------------------
 Scan Step 285, Bond Length 1.925
 --------------------------------
 Symbolic Z-matrix:
 Charge =  0 Multiplicity = 1

                         Standard orientation:
 ---------------------------------------------------------------------
 Center     Atomic      Atomic             Coordinates (Angstroms)
 Number     Number       Type             X           Y           Z
 ---------------------------------------------------------------------
      1          6           0        0.000000    0.000000   -0.888581
      2          1           0        0.000000    0.937260   -1.479931
      3          1           0       -0.000000   -0.937260   -1.479931
      4          8           0        0.000000   -0.000000    1.036419
 ---------------------------------------------------------------------

 SCF Done:  E(RB3LYP) =  -114.317505413     A.U. after   13 cycles

 Excitation energies and oscillator strengths:

 Excited State   1:      Singlet-A2     1.0995 eV 1127.60 nm  f=0.0000  <S**2>=0.000
       3 -> 27         0.00060
       3 -> 38         0.00035
       3 -> 47         0.00329
       4 -> 27         0.00030
       4 -> 47        -0.00082
       5 ->  9         0.00034
       5 -> 13         0.00105
       5 -> 18         0.00137
       5 -> 23         0.00121
       5 -> 28         0.00100
       5 -> 37         0.00059
       5 -> 44         0.00017
       5 -> 52         0.00014
       6 -> 27        -0.00053
       6 -> 38        -0.00049
       6 -> 47         0.00081
       7 -> 12        -0.00142
       7 -> 16         0.00539
       7 -> 19        -0.00491
       7 -> 22        -0.00114
       7 -> 25        -0.00045
       7 -> 30        -0.00203
       7 -> 33         0.00025
       7 -> 49         0.00013
       7 -> 53         0.00036
       8 ->  9         0.71186
       8 -> 13        -0.00526
       8 -> 18         0.02037
       8 -> 23        -0.00041
       8 -> 28         0.00984
       8 -> 31         0.00159
       8 -> 37         0.00046
       8 -> 46        -0.00027
       8 -> 52         0.00180
       3 <- 27         0.00012
       3 <- 38         0.00014
       3 <- 47         0.00331
       4 <- 27         0.00058
       4 <- 38         0.00016
       4 <- 47        -0.00062
       5 <-  9         0.00057
       5 <- 13        -0.00028
       5 <- 18        -0.00029
       5 <- 23         0.00013
       5 <- 28        -0.00023
       5 <- 31         0.00019
       5 <- 37         0.00034
       6 <- 38        -0.00036
       6 <- 47         0.00058
       7 <- 12         0.00219
       7 <- 16        -0.01048
       7 <- 19         0.00615
       7 <- 22         0.00517
       7 <- 25        -0.00063
       7 <- 30         0.00566
       7 <- 33        -0.00033
       7 <- 49        -0.00047
       7 <- 53         0.00143
       8 <-  9        -0.08407
       8 <- 13        -0.00070
       8 <- 18        -0.00800
       8 <- 23        -0.00045
       8 <- 28        -0.00281
       8 <- 31        -0.00085
       8 <- 37        -0.00015
       8 <- 46         0.00013
       8 <- 52         0.00041
 This state for optimization and/or second-order correction.
 Total Energy, E(TD-HF/TD-DFT) =  -114.277098209
 Copying the excited state density for this state as the 1-particle RhoCI density.

 Excited State   2:      Singlet-A1     2.8778 eV  430.83 nm  f=0.0216  <S**2>=0.000
       3 -> 10        -0.01197
       3 -> 11        -0.00206
       3 -> 14         0.00016
       3 -> 17        -0.00286
       3 -> 20        -0.00317
       3 -> 21         0.00068
       3 -> 26         0.00072
       3 -> 32         0.00259
       3 -> 34         0.00092
       3 -> 36        -0.00088
       3 -> 39        -0.00029
       3 -> 43         0.00044
       3 -> 45        -0.00126
       3 -> 48         0.00231
       3 -> 50         0.00166
       3 -> 54        -0.00014
       4 -> 11         0.00901
       4 -> 14         0.00129
       4 -> 15        -0.00692
       4 -> 17         0.00191
       4 -> 20         0.00145
       4 -> 21         0.00019
       4 -> 24        -0.00354
       4 -> 26         0.00267
       4 -> 32        -0.00102
       4 -> 34        -0.00063
       4 -> 39        -0.00028
       4 -> 43        -0.00040
       4 -> 45         0.00074
       4 -> 48        -0.00066
       4 -> 50        -0.00022
       4 -> 54         0.00013
       5 -> 12         0.00776
       5 -> 16         0.00117
       5 -> 19         0.00096
       5 -> 22         0.00617
       5 -> 25        -0.00359
       5 -> 30         0.00032
       5 -> 33        -0.00222
       5 -> 35         0.00269
       5 -> 40        -0.00086
       5 -> 42        -0.00098
       5 -> 51        -0.00090
       6 -> 10         0.26406
       6 -> 11         0.02813
       6 -> 14        -0.03019
       6 -> 15        -0.01811
       6 -> 17        -0.01428
       6 -> 21         0.00369
       6 -> 24        -0.00643
       6 -> 26        -0.00229
       6 -> 29        -0.00208
       6 -> 32         0.00478
       6 -> 34         0.00136
       6 -> 36         0.00075
       6 -> 39        -0.00153
       6 -> 43         0.00076
       6 -> 45        -0.00097
       6 -> 48         0.00068
       6 -> 50         0.00044
       6 -> 54        -0.00099
       7 ->  9         0.67307
       7 -> 13        -0.00809
       7 -> 18        -0.00830
       7 -> 23        -0.00307
       7 -> 28         0.00174
       7 -> 31        -0.00330
       7 -> 37         0.00136
       7 -> 44        -0.00095
       7 -> 52         0.00105
       8 -> 12        -0.00694
       8 -> 16         0.02924
       8 -> 19        -0.01654
       8 -> 22        -0.00942
       8 -> 30        -0.00686
       8 -> 33         0.00076
       8 -> 35        -0.00041
       8 -> 40         0.00012
       8 -> 42         0.00016
       8 -> 51         0.00012
       8 -> 53        -0.00047
       3 <- 10        -0.00993
       3 <- 11        -0.00204
       3 <- 15        -0.00036
       3 <- 17        -0.00170
       3 <- 20        -0.00289
       3 <- 21         0.00026
       3 <- 24        -0.00032
       3 <- 29         0.00037
       3 <- 32         0.00218
       3 <- 34         0.00047
       3 <- 36        -0.00095
       3 <- 39        -0.00022
       3 <- 43         0.00047
       3 <- 45        -0.00135
       3 <- 48         0.00231
       3 <- 50         0.00167
       4 <- 10         0.00109
       4 <- 11         0.00697
       4 <- 14         0.00119
       4 <- 15        -0.00499
       4 <- 17         0.00121
       4 <- 20         0.00207
       4 <- 24        -0.00280
       4 <- 26         0.00245
       4 <- 29        -0.00042
       4 <- 32        -0.00098
       4 <- 34        -0.00054
       4 <- 36         0.00024
       4 <- 39        -0.00032
       4 <- 43        -0.00036
       4 <- 45         0.00065
       4 <- 48        -0.00039
       4 <- 50        -0.00010
       4 <- 54         0.00011
       5 <- 12         0.00508
       5 <- 16         0.00087
       5 <- 19         0.00082
       5 <- 22         0.00465
       5 <- 25        -0.00292
       5 <- 30         0.00033
       5 <- 33        -0.00190
       5 <- 35         0.00237
       5 <- 40        -0.00080
       5 <- 42        -0.00089
       5 <- 51        -0.00086
       6 <- 10         0.09330
       6 <- 11         0.01282
       6 <- 14        -0.01581
       6 <- 15        -0.01043
       6 <- 17        -0.00921
       6 <- 20        -0.00139
       6 <- 21         0.00280
       6 <- 24        -0.00438
       6 <- 26        -0.00100
       6 <- 29        -0.00098
       6 <- 32         0.00445
       6 <- 34         0.00151
       6 <- 36         0.00027
       6 <- 39        -0.00137
       6 <- 43         0.00065
       6 <- 45        -0.00070
       6 <- 48         0.00038
       6 <- 50         0.00030
       6 <- 54        -0.00092
       7 <-  9        -0.12954
       7 <- 13         0.00216
       7 <- 18        -0.01034
       7 <- 28        -0.00113
       7 <- 31        -0.00157
       7 <- 37         0.00066
       7 <- 44        -0.00085
       7 <- 46        -0.00046
       7 <- 52         0.00098
       8 <- 12        -0.00332
       8 <- 16         0.01624
       8 <- 19        -0.01041
       8 <- 22        -0.00663
       8 <- 25         0.00013
       8 <- 30        -0.00568
       8 <- 33         0.00062
       8 <- 35        -0.00032
       8 <- 42         0.00012
       8 <- 49        -0.00017
       8 <- 51         0.00010
       8 <- 53        -0.00044

 Excited State   3:      Singlet-B2     2.9455 eV  420.93 nm  f=0.0014  <S**2>=0.000
       3 -> 12        -0.00106
       3 -> 16         0.00093
       3 -> 19        -0.00346
       3 -> 22         0.00112
       3 -> 25        -0.00088
       3 -> 30        -0.00225
       3 -> 33         0.00033
       3 -> 35         0.00109
       3 -> 40        -0.00109
       3 -> 42        -0.00034
       3 -> 49        -0.00404
       3 -> 51         0.00014
       3 -> 53         0.00024
       4 -> 12         0.00032
       4 -> 16        -0.00118
       4 -> 19         0.00028
       4 -> 22         0.00147
       4 -> 25         0.00045
       4 -> 30         0.00069
       4 -> 33        -0.00028
       4 -> 35         0.00039
       4 -> 40         0.00021
       4 -> 49         0.00072
       5 -> 10         0.00898
       5 -> 11         0.00089
       5 -> 14        -0.00229
       5 -> 15         0.00256
       5 -> 17        -0.00053
       5 -> 20         0.00182
       5 -> 21         0.00240
       5 -> 24         0.00126
       5 -> 26        -0.00026
       5 -> 29        -0.00206
       5 -> 32        -0.00071
       5 -> 34        -0.00013
       5 -> 39         0.00053
       5 -> 41         0.00034
       5 -> 48        -0.00029
       5 -> 50         0.00019
       5 -> 54        -0.00016
       6 -> 12         0.00236
       6 -> 16        -0.00288
       6 -> 19         0.00431
       6 -> 22        -0.00069
       6 -> 25         0.00115
       6 -> 30         0.00041
       6 -> 33        -0.00021
       6 -> 35        -0.00102
       6 -> 40         0.00062
       6 -> 42         0.00055
       6 -> 49         0.00099
       6 -> 53        -0.00045
       7 -> 27        -0.00045
       7 -> 38         0.00025
       7 -> 47         0.00269
       8 -> 10         0.70614
       8 -> 11         0.04398
       8 -> 14        -0.04187
       8 -> 15        -0.01796
       8 -> 17        -0.01645
       8 -> 20         0.00665
       8 -> 21         0.00485
       8 -> 24        -0.00506
       8 -> 26        -0.00375
       8 -> 29        -0.01359
       8 -> 32         0.00125
       8 -> 34        -0.00094
       8 -> 36         0.00178
       8 -> 39         0.00028
       8 -> 41        -0.00017
       8 -> 45        -0.00075
       8 -> 48        -0.00330
       8 -> 50         0.00113
       8 -> 54        -0.00250
       3 <- 12        -0.00037
       3 <- 16         0.00035
       3 <- 19        -0.00175
       3 <- 22         0.00088
       3 <- 25        -0.00079
       3 <- 30        -0.00093
       3 <- 33         0.00031
       3 <- 35         0.00067
       3 <- 40        -0.00094
       3 <- 42        -0.00018
       3 <- 49        -0.00408
       3 <- 51         0.00014
       3 <- 53         0.00065
       4 <- 12         0.00012
       4 <- 16        -0.00151
       4 <- 19         0.00019
       4 <- 22         0.00187
       4 <- 25         0.00021
       4 <- 30         0.00098
       4 <- 33        -0.00028
       4 <- 35         0.00056
       4 <- 49         0.00050
       5 <- 10        -0.00096
       5 <- 11        -0.00046
       5 <- 14        -0.00036
       5 <- 15         0.00209
       5 <- 17         0.00019
       5 <- 20         0.00076
       5 <- 21         0.00143
       5 <- 24         0.00138
       5 <- 29        -0.00045
       5 <- 32        -0.00022
       5 <- 39         0.00027
       5 <- 41         0.00037
       5 <- 45        -0.00018
       5 <- 48        -0.00031
       6 <- 12        -0.00108
       6 <- 16         0.00826
       6 <- 19        -0.00476
       6 <- 22        -0.00521
       6 <- 25         0.00136
       6 <- 30        -0.00626
       6 <- 33         0.00015
       6 <- 35        -0.00080
       6 <- 40         0.00060
       6 <- 42         0.00052
       6 <- 49         0.00153
       6 <- 53        -0.00145
       7 <- 27        -0.00046
       7 <- 38         0.00021
       7 <- 47         0.00235
       8 <- 10        -0.05534
       8 <- 11        -0.00696
       8 <- 14         0.00678
       8 <- 15         0.00221
       8 <- 17         0.00266
       8 <- 20        -0.00359
       8 <- 21        -0.00100
       8 <- 24         0.00139
       8 <- 26         0.00092
       8 <- 29         0.00279
       8 <- 32         0.00213
       8 <- 34         0.00075
       8 <- 36        -0.00092
       8 <- 39        -0.00082
       8 <- 41         0.00015
       8 <- 43         0.00030
       8 <- 45        -0.00142
       8 <- 48        -0.00278
       8 <- 50         0.00107
       8 <- 54        -0.00066

 Excited State   4:      Singlet-B1     3.2189 eV  385.18 nm  f=0.0001  <S**2>=0.000
       3 ->  9        -0.01885
       3 -> 13         0.00056
       3 -> 18        -0.00347
       3 -> 23         0.00109
       3 -> 28        -0.00139
       3 -> 31        -0.00109
       3 -> 37         0.00017
       3 -> 44         0.00023
       3 -> 46        -0.00111
       3 -> 52         0.00051
       4 ->  9        -0.00264
       4 -> 13         0.00028
       4 -> 18         0.00025
       4 -> 23         0.00016
       4 -> 28         0.00067
       4 -> 31        -0.00085
       4 -> 52        -0.00016
       5 -> 27        -0.00179
       5 -> 38         0.00023
       5 -> 47         0.00033
       6 ->  9         0.49926
       6 -> 13        -0.01315
       6 -> 18         0.01195
       6 -> 23        -0.00807
       6 -> 28         0.00381
       6 -> 31         0.00062
       6 -> 37        -0.00040
       6 -> 44        -0.00101
       6 -> 46         0.00240
       6 -> 52         0.00043
       7 -> 10         0.50580
       7 -> 11         0.03270
       7 -> 14        -0.03239
       7 -> 15        -0.01509
       7 -> 17        -0.01258
       7 -> 20         0.00441
       7 -> 21         0.00251
       7 -> 24        -0.00566
       7 -> 26        -0.00431
       7 -> 29        -0.00778
       7 -> 32         0.00145
       7 -> 34        -0.00061
       7 -> 36         0.00102
       7 -> 41        -0.00013
       7 -> 43         0.00047
       7 -> 45        -0.00104
       7 -> 48         0.00305
       7 -> 50         0.00098
       7 -> 54        -0.00101
       8 -> 27         0.00013
       8 -> 47         0.00370
       3 <-  9        -0.00626
       3 <- 13        -0.00053
       3 <- 18        -0.00223
       3 <- 23        -0.00020
       3 <- 28        -0.00087
       3 <- 31        -0.00070
       3 <- 46        -0.00106
       3 <- 52         0.00064
       4 <-  9        -0.00061
       4 <- 13         0.00057
       4 <- 18         0.00113
       4 <- 23         0.00035
       4 <- 28         0.00140
       4 <- 31        -0.00064
       4 <- 44        -0.00034
       5 <- 27        -0.00178
       5 <- 38         0.00025
       5 <- 47         0.00031
       6 <-  9        -0.05996
       6 <- 13         0.00233
       6 <- 18        -0.00659
       6 <- 23         0.00076
       6 <- 28        -0.00419
       6 <- 31        -0.00191
       6 <- 37        -0.00010
       6 <- 44         0.00026
       6 <- 46         0.00233
       6 <- 52        -0.00065
       7 <- 10        -0.06729
       7 <- 11        -0.00859
       7 <- 14         0.01136
       7 <- 15         0.00576
       7 <- 17         0.00375
       7 <- 21        -0.00286
       7 <- 24         0.00290
       7 <- 26         0.00167
       7 <- 29         0.00240
       7 <- 34         0.00015
       7 <- 39        -0.00042
       7 <- 41         0.00025
       7 <- 43         0.00025
       7 <- 45        -0.00073
       7 <- 48         0.00280
       7 <- 50         0.00122
       7 <- 54         0.00032
       8 <- 27         0.00044
       8 <- 47         0.00339

 Excited State   5:      Singlet-B1     3.7526 eV  330.39 nm  f=0.0057  <S**2>=0.000
       3 ->  9        -0.00519
       3 -> 13         0.00025
       3 -> 18         0.00038
       3 -> 23         0.00012
       3 -> 28         0.00174
       3 -> 31         0.00090
       3 -> 44         0.00030
       3 -> 46         0.00324
       3 -> 52         0.00041
       4 ->  9         0.02884
       4 -> 13        -0.00584
       4 -> 18        -0.00059
       4 -> 23        -0.00466
       4 -> 28        -0.00042
       4 -> 31        -0.00080
       4 -> 37        -0.00036
       4 -> 44         0.00038
       4 -> 46        -0.00093
       4 -> 52        -0.00021
       5 -> 27         0.00561
       5 -> 38         0.00377
       6 ->  9         0.50356
       6 -> 13        -0.00910
       6 -> 18         0.00429
       6 -> 23        -0.00599
       6 -> 28        -0.00142
       6 -> 31         0.00440
       6 -> 37        -0.00281
       6 -> 44        -0.00135
       6 -> 46         0.00171
       6 -> 52         0.00107
       7 -> 10        -0.49411
       7 -> 11        -0.02460
       7 -> 14         0.02560
       7 -> 15         0.01925
       7 -> 17         0.00466
       7 -> 20         0.00225
       7 -> 21        -0.00149
       7 -> 24         0.00646
       7 -> 26         0.00331
       7 -> 29         0.00566
       7 -> 32         0.00015
       7 -> 34         0.00321
       7 -> 36         0.00146
       7 -> 39        -0.00061
       7 -> 43        -0.00027
       7 -> 45         0.00055
       7 -> 48         0.00070
       7 -> 50         0.00037
       7 -> 54         0.00150
       8 -> 27        -0.00043
       8 -> 38        -0.00017
       8 -> 47         0.00081
       3 <-  9        -0.00187
       3 <- 13        -0.00094
       3 <- 18        -0.00023
       3 <- 23        -0.00068
       3 <- 28         0.00133
       3 <- 31        -0.00020
       3 <- 37         0.00032
       3 <- 44         0.00032
       3 <- 46         0.00334
       4 <-  9         0.01525
       4 <- 13        -0.00298
       4 <- 18         0.00029
       4 <- 23        -0.00302
       4 <- 28        -0.00023
       4 <- 31        -0.00058
       4 <- 37        -0.00033
       4 <- 44         0.00046
       4 <- 46        -0.00058
       4 <- 52        -0.00015
       5 <- 27         0.00411
       5 <- 38         0.00322
       6 <-  9         0.01217
       6 <- 13         0.00127
       6 <- 18         0.00127
       6 <- 23        -0.00044
       6 <- 28        -0.00140
       6 <- 31         0.00464
       6 <- 37        -0.00267
       6 <- 44        -0.00093
       6 <- 46         0.00098
       6 <- 52         0.00118
       7 <- 10        -0.00420
       7 <- 11        -0.00124
       7 <- 14         0.00325
       7 <- 15         0.00731
       7 <- 17         0.00061
       7 <- 20         0.00502
       7 <- 21        -0.00010
       7 <- 24         0.00369
       7 <- 26         0.00089
       7 <- 29         0.00076
       7 <- 32        -0.00115
       7 <- 34         0.00215
       7 <- 36         0.00239
       7 <- 39        -0.00023
       7 <- 43        -0.00035
       7 <- 45         0.00064
       7 <- 48         0.00080
       7 <- 50         0.00064
       7 <- 54         0.00110
       8 <- 47         0.00102

 Excited State   6:      Singlet-A2     6.7415 eV  183.91 nm  f=0.0000  <S**2>=0.000
       3 -> 27        -0.00096
       3 -> 38        -0.00026
       3 -> 47         0.00011
       4 -> 27        -0.00603

 The electronic state is 1-A1.
 Alpha  occ. eigenvalues --  -19.17813 -10.34277  -0.88308  -0.71949  -0.49439
 Alpha  occ. eigenvalues --   -0.37836  -0.30028  -0.28570
 Alpha virt. eigenvalues --   -0.17972  -0.09807  -0.00266   0.04029   0.06083
 Alpha virt. eigenvalues --    0.06128   0.11529   0.12958   0.18606   0.20865
 Alpha virt. eigenvalues --    0.23885   0.30421   0.38473   0.39166   0.50436

 Mulliken charges:
               1
     1  C   -0.108482
     2  H    0.194623
     3  H    0.194623
     4  O   -0.280765
 Sum of Mulliken charges =  -0.00000

 Dipole moment (field-independent basis, Debye):
    X=             -0.0000    Y=             -0.0000    Z=             -4.3321  Tot=              4.3321
 Quadrupole moment (field-independent basis, Debye-Ang):
   XX=            -13.1120   YY=            -12.0986   ZZ=            -10.3586
   XY=              0.0000   XZ=              0.0000   YZ=             -0.0000

 Normal termination of Gaussian 16 at Fri Sep 17 10:53:14 2021.
