 Gaussian 16, Revision A.03,
 Gaussian 16:  ES64L-G16RevA.03 25-Dec-2016

 --------------------------------------------------------------------
 #p B3LYP/6-311+G** #p TD=(singlets,nstates=30)IOp(6/8=3) IOp(9/40=4)
 --------------------------------------------------------------------

 ------------------------------
 Scan Step 220, Bond Length 1.6
 ------------------------------
 Symbolic Z-matrix:
 Charge =  0 Multiplicity = 1

                         Standard orientation:
 ---------------------------------------------------------------------
 Center     Atomic      Atomic             Coordinates (Angstroms)
 Number     Number       Type             X           Y           Z
 ---------------------------------------------------------------------
      1          6           0        0.000000   -0.000000   -0.726081
      2          1           0        0.000000    0.937260   -1.317431
      3          1           0       -0.000000   -0.937260   -1.317431
      4          8           0        0.000000    0.000000    0.873919
 ---------------------------------------------------------------------

 SCF Done:  E(RB3LYP) =  -114.427834992     A.U. after   10 cycles

 Excitation energies and oscillator strengths:

 Excited State   1:      Singlet-A2     1.9834 eV  625.10 nm  f=0.0000  <S**2>=0.000
       3 -> 27         0.00118
       3 -> 38         0.00087
       3 -> 46         0.00329
       4 -> 27         0.00070
       4 -> 38        -0.00013
       4 -> 46        -0.00129
       5 ->  9         0.00741
       5 -> 13         0.00093
       5 -> 18         0.00288
       5 -> 23         0.00161
       5 -> 28         0.00250
       5 -> 31        -0.00017
       5 -> 37         0.00138
       5 -> 44         0.00033
       5 -> 52         0.00034
       6 -> 27        -0.00063
       6 -> 38        -0.00077
       6 -> 46         0.00134
       7 -> 12        -0.00091
       7 -> 16         0.00475
       7 -> 19        -0.00404
       7 -> 22        -0.00078
       7 -> 25         0.00094
       7 -> 30        -0.00154
       7 -> 33         0.00036
       7 -> 49         0.00013
       7 -> 50         0.00016
       7 -> 53         0.00044
       8 ->  9         0.70854
       8 -> 13        -0.01321
       8 -> 18         0.02163
       8 -> 23        -0.00342
       8 -> 28         0.01103
       8 -> 31         0.00106
       8 -> 37         0.00063
       8 -> 48        -0.00031
       8 -> 52         0.00193
       3 <- 27         0.00054
       3 <- 38         0.00060
       3 <- 46         0.00334
       4 <- 27         0.00122
       4 <- 38         0.00023
       4 <- 46        -0.00104
       5 <-  9        -0.00024
       5 <- 13        -0.00052
       5 <- 18        -0.00068
       5 <- 23         0.00027
       5 <- 28        -0.00047
       5 <- 31         0.00035
       5 <- 37         0.00077
       5 <- 44         0.00011
       6 <- 38        -0.00063
       6 <- 46         0.00103
       7 <- 12         0.00065
       7 <- 16        -0.01005
       7 <- 19         0.00375
       7 <- 22         0.00690
       7 <- 25         0.00053
       7 <- 30         0.00527
       7 <- 33        -0.00052
       7 <- 36         0.00082
       7 <- 40         0.00049
       7 <- 42         0.00014
       7 <- 49        -0.00039
       7 <- 53         0.00146
       8 <-  9        -0.05176
       8 <- 13         0.00047
       8 <- 18        -0.00660
       8 <- 23         0.00016
       8 <- 28        -0.00237
       8 <- 31        -0.00063
       8 <- 37        -0.00046
       8 <- 52         0.00051
 This state for optimization and/or second-order correction.
 Total Energy, E(TD-HF/TD-DFT) =  -114.354945753
 Copying the excited state density for this state as the 1-particle RhoCI density.

 Excited State   2:      Singlet-A1     5.0955 eV  243.32 nm  f=0.0756  <S**2>=0.000
       3 -> 10        -0.01546
       3 -> 11        -0.01396
       3 -> 14         0.01140
       3 -> 15         0.00667
       3 -> 17        -0.00352
       3 -> 20        -0.00389
       3 -> 21        -0.00120
       3 -> 24         0.00251
       3 -> 26         0.00400
       3 -> 29        -0.00115
       3 -> 32         0.00277
       3 -> 34         0.00250
       3 -> 35        -0.00099
       3 -> 39         0.00083
       3 -> 43         0.00044
       3 -> 47         0.00226
       3 -> 51         0.00103
       3 -> 54         0.00019
       4 -> 10        -0.01221
       4 -> 11         0.01233
       4 -> 14         0.00607
       4 -> 15        -0.00977
       4 -> 17         0.00313
       4 -> 20         0.00534
       4 -> 21         0.00041
       4 -> 24        -0.00509
       4 -> 26         0.00507
       4 -> 29         0.00110
       4 -> 32        -0.00133
       4 -> 34        -0.00176
       4 -> 35         0.00039
       4 -> 41         0.00013
       4 -> 43        -0.00044
       4 -> 45        -0.00078
       4 -> 47        -0.00126
       4 -> 51        -0.00032
       4 -> 54         0.00010
       5 -> 12         0.01745
       5 -> 16         0.01129
       5 -> 19         0.00149
       5 -> 22         0.00735
       5 -> 25         0.00834
       5 -> 30        -0.00030
       5 -> 33        -0.00307
       5 -> 36         0.00274
       5 -> 40         0.00149
       5 -> 42         0.00064
       5 -> 49         0.00047
       5 -> 50        -0.00067
       5 -> 53        -0.00014
       6 -> 10         0.13868
       6 -> 11         0.10838
       6 -> 14        -0.09601
       6 -> 15        -0.06860
       6 -> 17        -0.02011
       6 -> 20        -0.01148
       6 -> 21         0.01395
       6 -> 24        -0.01426
       6 -> 26        -0.00693
       6 -> 29        -0.00807
       6 -> 32         0.00079
       6 -> 34         0.00148
       6 -> 35        -0.00076
       6 -> 39         0.00083
       6 -> 41        -0.00042
       6 -> 43         0.00081
       6 -> 45         0.00079
       6 -> 47         0.00128
       6 -> 51         0.00083
       6 -> 54        -0.00066
       7 ->  9         0.68418
       7 -> 13         0.00110
       7 -> 18        -0.01858
       7 -> 23         0.00019
       7 -> 28        -0.00146
       7 -> 31        -0.00300
       7 -> 37         0.00087
       7 -> 44        -0.00105
       7 -> 48         0.00041
       7 -> 52         0.00105
       8 -> 12        -0.00723
       8 -> 16         0.07067
       8 -> 19        -0.02435
       8 -> 22        -0.02693
       8 -> 25         0.00067
       8 -> 30        -0.01212
       8 -> 33         0.00232
       8 -> 36        -0.00279
       8 -> 40        -0.00134
       8 -> 42        -0.00035
       8 -> 49         0.00058
       8 -> 50         0.00024
       8 -> 53        -0.00071
       3 <- 10        -0.01035
       3 <- 11        -0.00982
       3 <- 14         0.00843
       3 <- 15         0.00446
       3 <- 17        -0.00181
       3 <- 20        -0.00280
       3 <- 21        -0.00150
       3 <- 24         0.00157
       3 <- 26         0.00239
       3 <- 29        -0.00069
       3 <- 32         0.00253
       3 <- 34         0.00161
       3 <- 35        -0.00085
       3 <- 39         0.00073
       3 <- 43         0.00053
       3 <- 45         0.00023
       3 <- 47         0.00237
       3 <- 51         0.00100
       3 <- 54         0.00029
       4 <- 10        -0.00602
       4 <- 11         0.00774
       4 <- 14         0.00308
       4 <- 15        -0.00581
       4 <- 17         0.00158
       4 <- 20         0.00446
       4 <- 21         0.00030
       4 <- 24        -0.00346
       4 <- 26         0.00399
       4 <- 29         0.00029
       4 <- 32        -0.00163
       4 <- 34        -0.00154
       4 <- 35         0.00061
       4 <- 39        -0.00015
       4 <- 43        -0.00043
       4 <- 45        -0.00090
       4 <- 47        -0.00086
       4 <- 51        -0.00016
       5 <- 12         0.00777
       5 <- 16         0.00575
       5 <- 19         0.00103
       5 <- 22         0.00453
       5 <- 25         0.00565
       5 <- 33        -0.00238
       5 <- 36         0.00223
       5 <- 40         0.00130
       5 <- 42         0.00053
       5 <- 49         0.00041
       5 <- 50        -0.00062
       5 <- 53        -0.00013
       6 <- 10         0.04079
       6 <- 11         0.03413
       6 <- 14        -0.03736
       6 <- 15        -0.02906
       6 <- 17        -0.00970
       6 <- 20        -0.00717
       6 <- 21         0.00806
       6 <- 24        -0.00864
       6 <- 26        -0.00405
       6 <- 29        -0.00551
       6 <- 32         0.00125
       6 <- 34         0.00181
       6 <- 35        -0.00090
       6 <- 39         0.00090
       6 <- 41        -0.00029
       6 <- 43         0.00069
       6 <- 45         0.00072
       6 <- 47         0.00081
       6 <- 51         0.00065
       6 <- 54        -0.00056
       7 <-  9        -0.12384
       7 <- 13         0.00754
       7 <- 18        -0.01388
       7 <- 23         0.00358
       7 <- 28        -0.00391
       7 <- 31        -0.00137
       7 <- 37         0.00030
       7 <- 44        -0.00062
       7 <- 48        -0.00017
       7 <- 52         0.00091
       8 <- 12        -0.00166
       8 <- 16         0.02472
       8 <- 19        -0.01035
       8 <- 22        -0.01452
       8 <- 25         0.00016
       8 <- 30        -0.00872
       8 <- 33         0.00172
       8 <- 36        -0.00212
       8 <- 40        -0.00108
       8 <- 42        -0.00028
       8 <- 49         0.00039
       8 <- 50         0.00019
       8 <- 53        -0.00065

 Excited State   3:      Singlet-B1     5.4088 eV  229.23 nm  f=0.0014  <S**2>=0.000
       3 ->  9        -0.02895
       3 -> 13         0.00176
       3 -> 18        -0.00470
       3 -> 23         0.00181
       3 -> 28        -0.00096
       3 -> 31        -0.00048
       3 -> 44         0.00024
       3 -> 48         0.00096
       3 -> 52         0.00096
       4 ->  9         0.01364
       4 -> 13        -0.00267
       4 -> 18         0.00027
       4 -> 23        -0.00242
       4 -> 28         0.00023
       4 -> 31        -0.00155
       4 -> 37        -0.00041
       4 -> 44         0.00013
       4 -> 48        -0.00111
       4 -> 52        -0.00059
       5 -> 27        -0.00014
       5 -> 38         0.00201
       5 -> 46         0.00094
       6 ->  9         0.70522
       6 -> 13        -0.02031
       6 -> 18         0.01690
       6 -> 23        -0.01100
       6 -> 28         0.00432
       6 -> 31         0.00330
       6 -> 37        -0.00219
       6 -> 44        -0.00286
       6 -> 48         0.00418
       6 -> 52         0.00146
       7 -> 10         0.03622
       7 -> 11         0.02515
       7 -> 14        -0.01708
       7 -> 15        -0.00716
       7 -> 17        -0.00919
       7 -> 20         0.00290
       7 -> 21         0.00012
       7 -> 24        -0.00056
       7 -> 26        -0.00148
       7 -> 29        -0.00393
       7 -> 32        -0.00063
       7 -> 34         0.00071
       7 -> 35         0.00180
       7 -> 39         0.00014
       7 -> 41        -0.00057
       7 -> 43         0.00056
       7 -> 45        -0.00048
       7 -> 47         0.00426
       7 -> 51         0.00118
       7 -> 54         0.00042
       8 -> 27         0.00054
       8 -> 38         0.00011
       8 -> 46         0.00537
       3 <-  9        -0.00970
       3 <- 13        -0.00061
       3 <- 18        -0.00292
       3 <- 23        -0.00054
       3 <- 28        -0.00062
       3 <- 31        -0.00067
       3 <- 44        -0.00025
       3 <- 48         0.00113
       3 <- 52         0.00077
       4 <-  9         0.00674
       4 <- 13        -0.00026
       4 <- 18         0.00195
       4 <- 23        -0.00060
       4 <- 28         0.00165
       4 <- 31        -0.00105
       4 <- 37        -0.00021
       4 <- 48        -0.00096
       4 <- 52        -0.00034
       5 <- 27        -0.00069
       5 <- 38         0.00163
       5 <- 46         0.00084
       6 <-  9        -0.02525
       6 <- 13         0.00171
       6 <- 18        -0.00326
       6 <- 23        -0.00028
       6 <- 28        -0.00336
       6 <- 31         0.00126
       6 <- 37        -0.00190
       6 <- 44        -0.00155
       6 <- 48         0.00373
       6 <- 52         0.00049
       7 <- 10        -0.01531
       7 <- 11        -0.01267
       7 <- 14         0.01458
       7 <- 15         0.01293
       7 <- 17         0.00145
       7 <- 20         0.00504
       7 <- 21        -0.00438
       7 <- 24         0.00450
       7 <- 26         0.00177
       7 <- 29         0.00109
       7 <- 32        -0.00018
       7 <- 34         0.00063
       7 <- 35         0.00271
       7 <- 39         0.00044
       7 <- 41        -0.00022
       7 <- 43         0.00042
       7 <- 45        -0.00061
       7 <- 47         0.00389
       7 <- 51         0.00104
       7 <- 54         0.00107
       8 <- 27         0.00099
       8 <- 38         0.00029
       8 <- 46         0.00499

 Excited State   4:      Singlet-B2     6.0815 eV  203.87 nm  f=0.0141  <S**2>=0.000
       3 -> 12        -0.00156
       3 -> 16         0.00195
       3 -> 19        -0.00449
       3 -> 22         0.00048
       3 -> 25         0.00037
       3 -> 30        -0.00336
       3 -> 33        -0.00028
       3 -> 36         0.00216
       3 -> 40         0.00177
       3 -> 42         0.00022
       3 -> 49        -0.00264
       3 -> 50         0.00022
       3 -> 53         0.00029
       4 -> 12         0.00044
       4 -> 16        -0.00274
       4 -> 22         0.00315
       4 -> 25        -0.00203
       4 -> 30         0.00146
       4 -> 33        -0.00048
       4 -> 36         0.00053
       4 -> 40        -0.00050
       4 -> 49         0.00041
       4 -> 50        -0.00011
       5 -> 10         0.00616
       5 -> 11         0.00586
       5 -> 14        -0.01261
       5 -> 15         0.00323
       5 -> 17         0.00074
       5 -> 20         0.00206
       5 -> 21         0.00626
       5 -> 24         0.00189
       5 -> 26        -0.00185
       5 -> 29        -0.00200
       5 -> 32        -0.00153
       5 -> 34        -0.00125
       5 -> 35        -0.00050
       5 -> 39        -0.00101
       5 -> 41         0.00075
       5 -> 45         0.00019
       5 -> 47        -0.00084
       5 -> 51         0.00050
       5 -> 54        -0.00024
       6 -> 12         0.00328
       6 -> 16        -0.00164
       6 -> 19         0.00296
       6 -> 25        -0.00081
       6 -> 30        -0.00055
       6 -> 33         0.00035
       6 -> 36        -0.00216
       6 -> 40        -0.00174
       6 -> 42        -0.00037
       6 -> 49         0.00160
       6 -> 53        -0.00035
       7 -> 27        -0.00066
       7 -> 38         0.00087
       7 -> 46         0.00366
       8 -> 10         0.63385
       8 -> 11         0.27991
       8 -> 14        -0.12443
       8 -> 15        -0.06512
       8 -> 17        -0.01303
       8 -> 20        -0.00178
       8 -> 21         0.00666
       8 -> 24        -0.00649
       8 -> 26        -0.00561
       8 -> 29        -0.00978
       8 -> 32        -0.00286
       8 -> 34        -0.00186
       8 -> 35        -0.00044
       8 -> 39        -0.00061
       8 -> 41         0.00028
       8 -> 43        -0.00046
       8 -> 45         0.00186
       8 -> 47        -0.00426
       8 -> 51         0.00220
       8 -> 54        -0.00159
       3 <- 12        -0.00056
       3 <- 16         0.00051
       3 <- 19        -0.00212
       3 <- 22         0.00089
       3 <- 25         0.00037
       3 <- 30        -0.00134
       3 <- 33        -0.00024
       3 <- 36         0.00168
       3 <- 40         0.00157
       3 <- 42         0.00019
       3 <- 49        -0.00271
       3 <- 50         0.00019
       3 <- 53         0.00083
       4 <- 12        -0.00022
       4 <- 16        -0.00237
       4 <- 19        -0.00024
       4 <- 22         0.00277
       4 <- 25        -0.00125
       4 <- 30         0.00127
       4 <- 33        -0.00055
       4 <- 36         0.00074
       4 <- 40        -0.00016
       4 <- 42         0.00012
       4 <- 49         0.00031
       5 <- 10         0.00042
       5 <- 11        -0.00160
       5 <- 14        -0.00185
       5 <- 15         0.00388
       5 <- 17         0.00023
       5 <- 20         0.00052
       5 <- 21         0.00212
       5 <- 24         0.00260
       5 <- 26        -0.00057
       5 <- 29        -0.00050
       5 <- 34        -0.00032
       5 <- 39        -0.00034
       5 <- 41         0.00075
       5 <- 43         0.00012
       5 <- 45         0.00049
       5 <- 47        -0.00068
       5 <- 51         0.00027
       6 <- 16         0.00530
       6 <- 19        -0.00238
       6 <- 22        -0.00384
       6 <- 25        -0.00048
       6 <- 30        -0.00456
       6 <- 33         0.00063
       6 <- 36        -0.00215
       6 <- 40        -0.00173
       6 <- 42        -0.00043
       6 <- 49         0.00172
       6 <- 53        -0.00101
       7 <- 27        -0.00065
       7 <- 38         0.00068
       7 <- 46         0.00302
       8 <- 10        -0.01372
       8 <- 11        -0.01195
       8 <- 14         0.01159
       8 <- 15         0.00490
       8 <- 17         0.00033
       8 <- 20        -0.00237
       8 <- 21        -0.00234
       8 <- 24         0.00127
       8 <- 26         0.00201
       8 <- 29        -0.00083
       8 <- 32         0.00231
       8 <- 34         0.00141
       8 <- 35        -0.00020
       8 <- 39         0.00146
       8 <- 41         0.00057
       8 <- 43         0.00027
       8 <- 45         0.00244
       8 <- 47        -0.00313
       8 <- 51         0.00133
       8 <- 54        -0.00039

 Excited State   5:      Singlet-B2     7.0432 eV  176.03 nm  f=0.0020  <S**2>=0.000
       3 -> 12         0.00150
       3 -> 16         0.00143
       3 -> 19        -0.00077
       3 -> 22        -0.00036
       3 -> 25         0.00093
       3 -> 30        -0.00224
       3 -> 33         0.00012
       3 -> 36         0.00043
       3 -> 40         0.00041
       3 -> 49        -0.00064
       4 -> 12        -0.00125
       4 -> 16         0.00070
       4 -> 19         0.00095
       4 -> 22        -0.00098
       4 -> 25         0.00076
       4 -> 30         0.00118
       4 -> 33        -0.00013
       4 -> 36         0.00031
       4 -> 50        -0.00011
       5 -> 10         0.00696
       5 -> 11        -0.00377
       5 -> 14         0.00290
       5 -> 15         0.00529
       5 -> 17         0.00082
       5 -> 20         0.00162
       5 -> 24        -0.00041
       5 -> 26        -0.00029
       5 -> 29        -0.00039
       5 -> 32        -0.00147
       5 -> 34         0.00036
       5 -> 35        -0.00033
       5 -> 39        -0.00054
       5 -> 41        -0.00017
       5 -> 43        -0.00031
       5 -> 45         0.00029
       5 -> 47        -0.00034
       5 -> 51         0.00024
       6 -> 12        -0.00181
       6 -> 16        -0.00039
       6 -> 19         0.00027
       6 -> 22        -0.00091
       6 -> 25         0.00014
       6 -> 30        -0.00074
       6 -> 40        -0.00050
       6 -> 42        -0.00019
       6 -> 49         0.00116
       6 -> 50        -0.00010
       7 -> 27        -0.00060
       7 -> 38        -0.00025
       7 -> 46         0.00161
       8 -> 10        -0.28845
       8 -> 11         0.64447
       8 -> 14        -0.00268
       8 -> 15        -0.03316
       8 -> 17        -0.00513
       8 -> 20         0.01488
       8 -> 21         0.00378
       8 -> 24        -0.00332
       8 -> 26         0.00168
       8 -> 29        -0.00265
       8 -> 32        -0.00053
       8 -> 34        -0.00074
       8 -> 35        -0.00062
       8 -> 39         0.00013
       8 -> 43         0.00026
       8 -> 45         0.00114
       8 -> 47        -0.00185
       8 -> 51         0.00090

 The electronic state is 1-A1.
 Alpha  occ. eigenvalues --  -19.17203 -10.32624  -0.92912  -0.69641  -0.48850
 Alpha  occ. eigenvalues --   -0.41604  -0.33089  -0.28967
 Alpha virt. eigenvalues --   -0.14498  -0.01308   0.01244   0.04091   0.06128
 Alpha virt. eigenvalues --    0.08983   0.13035   0.14467   0.18936   0.21407
 Alpha virt. eigenvalues --    0.23965   0.30161   0.39131   0.41150   0.50940

 Mulliken charges:
               1
     1  C   -0.060768
     2  H    0.178976
     3  H    0.178976
     4  O   -0.297185
 Sum of Mulliken charges =  -0.00000

 Dipole moment (field-independent basis, Debye):
    X=             -0.0000    Y=              0.0000    Z=             -3.7537  Tot=              3.7537
 Quadrupole moment (field-independent basis, Debye-Ang):
   XX=            -12.7308   YY=            -11.8872   ZZ=            -11.3135
   XY=              0.0000   XZ=              0.0000   YZ=             -0.0000

 Normal termination of Gaussian 16 at Fri Sep 17 10:53:00 2021.
