 Gaussian 16, Revision C.01,
 Gaussian 16:  ES64L-G16RevC.01  3-Jul-2019

 ----------------------------------------
 #P wB97XD/6-311+G* NoSymm #P Field=Z-214
 ----------------------------------------

 -------
 TitleMe
 -------
 Symbolic Z-matrix:
 Charge =  1 Multiplicity = 1

                          Input orientation:
 ---------------------------------------------------------------------
 Center     Atomic      Atomic             Coordinates (Angstroms)
 Number     Number       Type             X           Y           Z
 ---------------------------------------------------------------------
      1          6           0        0.029500    1.339700    0.068200
      2          6           0        1.434800    1.286700    0.006400
      3          6           0        2.111800    0.051100   -0.005400
      4          6           0        1.445100   -1.137200    0.031200
      5          6           0       -0.687900    0.168200    0.110000
      6          1           0       -0.471300    2.298400    0.078100
      7          1           0        2.027300    2.196500   -0.032200
      8          1           0        1.989700   -2.076400    0.023200
      9          1           0       -1.771600    0.180400    0.158200
     10          7           0        3.586400    0.051000   -0.067500
     11          8           0        4.147100   -1.059700   -0.088100
     12          8           0        4.145000    1.163900   -0.090100
     13          6           0       -0.023600   -1.145800    0.083500
     14          1           0       -0.436700   -1.872500    0.788900
     15         35           0       -0.535900   -1.869700   -1.740800
 ---------------------------------------------------------------------

 SCF Done:  E(RwB97XD) =  -3010.55077497     A.U. after   21 cycles

 Alpha  occ. eigenvalues -- -483.34697 -62.89766 -56.69394 -56.68913 -56.68913
 Alpha  occ. eigenvalues --  -19.46648 -19.46555 -14.86135 -10.59982 -10.58610
 Alpha  occ. eigenvalues --  -10.58126 -10.57946 -10.57628 -10.53758  -9.05603
 Alpha  occ. eigenvalues --   -6.88103  -6.86508  -6.86499  -2.98050  -2.97621
 Alpha  occ. eigenvalues --   -2.97612  -2.96335  -2.96335  -1.50379  -1.33350
 Alpha  occ. eigenvalues --   -1.23766  -1.15721  -1.12761  -1.07011  -1.01874
 Alpha  occ. eigenvalues --   -0.96550  -0.91858  -0.86027  -0.81635  -0.81423
 Alpha  occ. eigenvalues --   -0.80761  -0.79078  -0.76892  -0.76785  -0.74053
 Alpha  occ. eigenvalues --   -0.70280  -0.68488  -0.65272  -0.62550  -0.60441
 Alpha  occ. eigenvalues --   -0.57911  -0.57623  -0.56803  -0.56326
 Alpha virt. eigenvalues --   -0.31120  -0.22133  -0.19094  -0.16754  -0.14708
 Alpha virt. eigenvalues --   -0.12788  -0.11478  -0.09033  -0.07646  -0.07351
 Alpha virt. eigenvalues --   -0.05216  -0.04405  -0.03474  -0.02477  -0.02133

 Mulliken charges:
               1
     1  C   -0.621805
     2  C    0.581026
     3  C   -0.732787
     4  C    0.307964
     5  C    0.066686
     6  H    0.344144
     7  H    0.370654
     8  H    0.382080
     9  H    0.361566
    10  N   -0.108534
    11  O    0.035334
    12  O    0.030901
    13  C   -0.469291
    14  H    0.477370
    15  Br  -0.025310
 Sum of Mulliken charges =   1.00000

 Dipole moment (field-independent basis, Debye):
    X=             -0.3085    Y=              0.2001    Z=              3.6940  Tot=              3.7123
 Quadrupole moment (field-independent basis, Debye-Ang):
   XX=            -70.5519   YY=            -53.1326   ZZ=            -67.0353
   XY=              0.7341   XZ=              2.8107   YZ=             -1.5171

 Normal termination of Gaussian 16 at Wed May  1 15:19:34 2024.
