 Gaussian 16, Revision A.03,
 Gaussian 16:  ES64L-G16RevA.03 25-Dec-2016

 --------------------------------------------------------------------
 #p B3LYP/6-311+G** #p TD=(singlets,nstates=30)IOp(6/8=3) IOp(9/40=4)
 --------------------------------------------------------------------

 ---------------------------------------------
 Scan Step 153, Bond Length 1.2650000000000001
 ---------------------------------------------
 Symbolic Z-matrix:
 Charge =  0 Multiplicity = 1

                         Standard orientation:
 ---------------------------------------------------------------------
 Center     Atomic      Atomic             Coordinates (Angstroms)
 Number     Number       Type             X           Y           Z
 ---------------------------------------------------------------------
      1          6           0        0.000000   -0.000000   -0.558581
      2          1           0        0.000000    0.937260   -1.149931
      3          1           0       -0.000000   -0.937260   -1.149931
      4          8           0        0.000000    0.000000    0.706419
 ---------------------------------------------------------------------

 SCF Done:  E(RB3LYP) =  -114.536230176     A.U. after    9 cycles

 Excitation energies and oscillator strengths:

 Excited State   1:      Singlet-A2     3.5944 eV  344.93 nm  f=0.0000  <S**2>=0.000
       3 -> 27         0.00228
       3 -> 38         0.00192
       3 -> 45         0.00265
       4 -> 27         0.00168
       4 -> 38        -0.00048
       4 -> 45        -0.00135
       5 ->  9         0.01993
       5 -> 13        -0.00210
       5 -> 17         0.00531
       5 -> 23         0.00031
       5 -> 29         0.00435
       5 -> 31        -0.00185
       5 -> 37         0.00312
       5 -> 44         0.00058
       5 -> 48         0.00014
       5 -> 52         0.00072
       6 -> 27        -0.00025
       6 -> 38        -0.00087
       6 -> 45         0.00177
       7 -> 12        -0.00062
       7 -> 15         0.00315
       7 -> 18        -0.00300
       7 -> 22         0.00045
       7 -> 25         0.00142
       7 -> 30        -0.00099
       7 -> 33         0.00044
       7 -> 35         0.00021
       7 -> 40         0.00019
       7 -> 42        -0.00011
       7 -> 49         0.00028
       7 -> 50         0.00032
       7 -> 53         0.00047
       8 ->  9         0.70597
       8 -> 13        -0.03632
       8 -> 17         0.02275
       8 -> 23        -0.00937
       8 -> 29         0.00968
       8 -> 31        -0.00202
       8 -> 37         0.00013
       8 -> 48        -0.00026
       8 -> 52         0.00175
       3 <- 27         0.00144
       3 <- 38         0.00157
       3 <- 45         0.00274
       4 <- 27         0.00248
       4 <- 45        -0.00114
       5 <-  9        -0.00051
       5 <- 13        -0.00079
       5 <- 17        -0.00101
       5 <- 23         0.00052
       5 <- 29        -0.00070
       5 <- 31         0.00080
       5 <- 37         0.00152
       5 <- 44         0.00023
       5 <- 48         0.00015
       5 <- 52         0.00019
       6 <- 27         0.00034
       6 <- 38        -0.00076
       6 <- 45         0.00138
       7 <- 12        -0.00068
       7 <- 15        -0.00773
       7 <- 18         0.00074
       7 <- 22         0.00743
       7 <- 30         0.00375
       7 <- 33        -0.00125
       7 <- 35         0.00224
       7 <- 40         0.00093
       7 <- 50         0.00022
       7 <- 53         0.00133
       8 <-  9        -0.02695
       8 <- 13         0.00257
       8 <- 17        -0.00461
       8 <- 23         0.00078
       8 <- 29        -0.00116
       8 <- 31        -0.00069
       8 <- 37        -0.00127
       8 <- 52         0.00050
 This state for optimization and/or second-order correction.
 Total Energy, E(TD-HF/TD-DFT) =  -114.404136779
 Copying the excited state density for this state as the 1-particle RhoCI density.

 Excited State   2:      Singlet-B2     6.9192 eV  179.19 nm  f=0.0231  <S**2>=0.000
       3 -> 12         0.00160
       3 -> 15         0.00069
       3 -> 18         0.00123
       3 -> 22        -0.00033
       3 -> 25         0.00124
       3 -> 33         0.00023
       3 -> 35        -0.00046
       3 -> 40        -0.00016
       4 -> 12        -0.00277
       4 -> 15         0.00196
       4 -> 18         0.00194
       4 -> 22        -0.00326
       4 -> 25         0.00320
       4 -> 30         0.00034
       4 -> 33        -0.00039
       4 -> 35         0.00051
       4 -> 40         0.00045
       4 -> 42        -0.00013
       5 -> 10        -0.00770
       5 -> 11        -0.00776
       5 -> 14         0.00702
       5 -> 16        -0.00072
       5 -> 19        -0.00136
       5 -> 20         0.00275
       5 -> 21         0.00585
       5 -> 24        -0.00038
       5 -> 26         0.00226
       5 -> 28         0.00105
       5 -> 32        -0.00102
       5 -> 34        -0.00099
       5 -> 36        -0.00018
       5 -> 39        -0.00027
       5 -> 41        -0.00043
       5 -> 43        -0.00051
       5 -> 46        -0.00026
       5 -> 54         0.00012
       6 -> 12        -0.00044
       6 -> 15         0.00148
       6 -> 18         0.00157
       6 -> 22        -0.00237
       6 -> 25         0.00104
       6 -> 30        -0.00053
       6 -> 33        -0.00026
       6 -> 35         0.00050
       6 -> 42        -0.00018
       6 -> 49         0.00046
       6 -> 50        -0.00025
       7 -> 27         0.00011
       7 -> 38        -0.00063
       7 -> 45         0.00029
       8 -> 10         0.70265
       8 -> 11        -0.07374
       8 -> 14         0.01736
       8 -> 16        -0.00491
       8 -> 19         0.00563
       8 -> 20         0.01677
       8 -> 21        -0.00256
       8 -> 26         0.00276
       8 -> 28         0.00091
       8 -> 32         0.00098
       8 -> 34         0.00092
       8 -> 36         0.00034
       8 -> 39         0.00034
       8 -> 41        -0.00022
       8 -> 43         0.00060
       8 -> 46        -0.00047
       8 -> 47         0.00015
       8 -> 51        -0.00012
       8 -> 54         0.00020
       3 <- 12         0.00037
       3 <- 15         0.00053
       3 <- 18         0.00046
       3 <- 22        -0.00049
       3 <- 25         0.00070
       3 <- 30        -0.00011
       3 <- 33         0.00020
       3 <- 35        -0.00042
       3 <- 40        -0.00017
       3 <- 49         0.00014
       4 <- 12         0.00077
       4 <- 15         0.00195
       4 <- 18         0.00185
       4 <- 22        -0.00203
       4 <- 25         0.00217
       4 <- 30         0.00024
       4 <- 33        -0.00020
       4 <- 35         0.00026
       4 <- 40         0.00012
       4 <- 42        -0.00023
       4 <- 50        -0.00013
       5 <- 10         0.00231
       5 <- 11        -0.00024
       5 <- 14         0.00471
       5 <- 16        -0.00061
       5 <- 19        -0.00023
       5 <- 20         0.00082
       5 <- 21         0.00187
       5 <- 24        -0.00205
       5 <- 26         0.00147
       5 <- 28         0.00013
       5 <- 32        -0.00074
       5 <- 34        -0.00092
       5 <- 36        -0.00025
       5 <- 39        -0.00015
       5 <- 41        -0.00025
       5 <- 43        -0.00039
       5 <- 46        -0.00023
       6 <- 15        -0.00018
       6 <- 18         0.00104
       6 <- 22        -0.00057
       6 <- 25         0.00035
       6 <- 30         0.00032
       6 <- 33        -0.00031
       6 <- 35         0.00056
       6 <- 42        -0.00016
       6 <- 49         0.00038
       6 <- 50        -0.00027
       6 <- 53         0.00016
       7 <- 27         0.00011
       7 <- 38        -0.00047
       7 <- 45         0.00027
       8 <- 10        -0.00154
       8 <- 11        -0.00055
       8 <- 14        -0.00470
       8 <- 16        -0.00051
       8 <- 19         0.00014
       8 <- 20        -0.00068
       8 <- 21        -0.00159
       8 <- 24         0.00199
       8 <- 26        -0.00081
       8 <- 28        -0.00047
       8 <- 32         0.00099
       8 <- 36         0.00032
       8 <- 39         0.00024
       8 <- 43         0.00038
       8 <- 46        -0.00028

 Excited State   3:      Singlet-B2     7.6793 eV  161.45 nm  f=0.0273  <S**2>=0.000
       3 -> 12        -0.00034
       3 -> 15        -0.00094
       3 -> 18         0.00105
       3 -> 22         0.00049
       3 -> 30         0.00242
       3 -> 33         0.00015
       3 -> 35        -0.00059
       3 -> 40        -0.00051
       3 -> 49         0.00057
       3 -> 50        -0.00019
       4 -> 12         0.00251
       4 -> 15         0.00034
       4 -> 18         0.00197
       4 -> 22        -0.00149
       4 -> 25         0.00284
       4 -> 30        -0.00136
       4 -> 33         0.00049
       4 -> 35        -0.00057
       4 -> 42        -0.00010
       4 -> 49         0.00024
       5 -> 10        -0.00602
       5 -> 11        -0.00021
       5 -> 14         0.00963
       5 -> 16        -0.00693
       5 -> 19        -0.00095
       5 -> 20        -0.00480
       5 -> 21         0.00225
       5 -> 24        -0.00086
       5 -> 26         0.00148
       5 -> 28         0.00156
       5 -> 32        -0.00014
       5 -> 34        -0.00090
       5 -> 36        -0.00036
       5 -> 39         0.00044
       5 -> 41        -0.00068
       5 -> 43         0.00018
       5 -> 46         0.00091
       5 -> 51        -0.00042
       6 -> 12        -0.00289
       6 -> 15        -0.00151
       6 -> 18        -0.00076
       6 -> 22         0.00114
       6 -> 25         0.00017
       6 -> 30         0.00114
       6 -> 33        -0.00055
       6 -> 35         0.00149
       6 -> 40         0.00111
       6 -> 49        -0.00126
       6 -> 50         0.00032
       6 -> 53         0.00012
       7 -> 27         0.00018
       7 -> 38        -0.00084
       7 -> 45        -0.00196
       8 -> 10         0.07394
       8 -> 11         0.70221
       8 -> 14        -0.00250
       8 -> 16         0.00903
       8 -> 19        -0.03396
       8 -> 20         0.00104
       8 -> 21        -0.00290
       8 -> 24         0.00019
       8 -> 26        -0.00079
       8 -> 28         0.00192
       8 -> 32         0.00013
       8 -> 34        -0.00021
       8 -> 36        -0.00020
       8 -> 39        -0.00026
       8 -> 41        -0.00112
       8 -> 43         0.00037
       8 -> 46         0.00228
       8 -> 47        -0.00012
       8 -> 51        -0.00106
       3 <- 12         0.00034
       3 <- 15        -0.00030
       3 <- 18         0.00099
       3 <- 25         0.00024
       3 <- 30         0.00132
       3 <- 33         0.00026
       3 <- 35        -0.00062
       3 <- 40        -0.00047
       3 <- 49         0.00051
       3 <- 50        -0.00013
       3 <- 53        -0.00032
       4 <- 12         0.00031
       4 <- 15         0.00083
       4 <- 18         0.00044
       4 <- 22        -0.00116
       4 <- 25         0.00121
       4 <- 30        -0.00070
       4 <- 33         0.00045
       4 <- 35        -0.00027
       4 <- 42        -0.00011
       4 <- 49         0.00018
       5 <- 10         0.00121
       5 <- 11        -0.00133
       5 <- 14         0.00271
       5 <- 16        -0.00043
       5 <- 19         0.00138
       5 <- 20        -0.00043
       5 <- 21         0.00079
       5 <- 24        -0.00141
       5 <- 28         0.00066
       5 <- 32        -0.00092
       5 <- 36         0.00013
       5 <- 39         0.00011
       5 <- 41        -0.00072
       5 <- 46         0.00086
       5 <- 47        -0.00012
       5 <- 51        -0.00030
       6 <- 12        -0.00028
       6 <- 15        -0.00099
       6 <- 18         0.00031
       6 <- 22         0.00087
       6 <- 25        -0.00014
       6 <- 30         0.00105
       6 <- 33        -0.00046
       6 <- 35         0.00128
       6 <- 40         0.00087
       6 <- 49        -0.00103
       6 <- 50         0.00025
       7 <- 27         0.00033
       7 <- 38        -0.00067
       7 <- 45        -0.00164
       8 <- 10        -0.00078
       8 <- 11        -0.00163
       8 <- 14        -0.00362
       8 <- 16         0.00042
       8 <- 19         0.00511
       8 <- 20        -0.00014
       8 <- 21        -0.00196
       8 <- 24        -0.00045
       8 <- 26        -0.00166
       8 <- 28         0.00055
       8 <- 32        -0.00125
       8 <- 34         0.00157
       8 <- 39        -0.00068
       8 <- 41        -0.00103
       8 <- 43         0.00018
       8 <- 46         0.00182
       8 <- 47        -0.00030
       8 <- 51        -0.00071

 Excited State   4:      Singlet-A1     7.9253 eV  156.44 nm  f=0.0409  <S**2>=0.000
       3 -> 10         0.00218
       3 -> 11        -0.00038
       3 -> 14         0.00127
       3 -> 19        -0.00181
       3 -> 20         0.00218
       3 -> 21         0.00106
       3 -> 24         0.00083
       3 -> 26         0.00133
       3 -> 28         0.00084
       3 -> 32         0.00016
       3 -> 34        -0.00084
       3 -> 36        -0.00016
       3 -> 41        -0.00019
       3 -> 46         0.00020
       3 -> 47        -0.00030
       3 -> 51        -0.00015
       3 -> 54        -0.00017
       4 -> 10         0.00490
       4 -> 11         0.00431
       4 -> 14         0.00452
       4 -> 16         0.00065
       4 -> 19         0.00026
       4 -> 20         0.00310
       4 -> 21        -0.00048
       4 -> 24        -0.00685
       4 -> 26         0.00220
       4 -> 28        -0.00028
       4 -> 32        -0.00062
       4 -> 34         0.00024
       4 -> 43         0.00016
       4 -> 46        -0.00020
       4 -> 51        -0.00013
       5 -> 12         0.00562
       5 -> 15         0.00348
       5 -> 18         0.00915
       5 -> 22        -0.00262
       5 -> 25         0.00551
       5 -> 30        -0.00035
       5 -> 33        -0.00022
       5 -> 35         0.00074
       5 -> 50         0.00016
       5 -> 53        -0.00012
       6 -> 10         0.01054
       6 -> 11        -0.00250
       6 -> 14         0.00397
       6 -> 16        -0.00039
       6 -> 19         0.00221
       6 -> 20         0.00188
       6 -> 21        -0.00131
       6 -> 24        -0.00472
       6 -> 26        -0.00051
       6 -> 28        -0.00232
       6 -> 32        -0.00026
       6 -> 34        -0.00014
       6 -> 39         0.00021
       6 -> 43         0.00015
       6 -> 47         0.00071
       6 -> 51         0.00019
       6 -> 54        -0.00012
       7 ->  9         0.03401
       7 -> 13         0.01230
       7 -> 17         0.00050
       7 -> 23         0.00517
       7 -> 29        -0.00090
       7 -> 31        -0.00099
       7 -> 37         0.00058
       7 -> 44         0.00061
       7 -> 48        -0.00031
       8 -> 12         0.70529
       8 -> 15         0.00188
       8 -> 18         0.02934
       8 -> 22         0.00229
       8 -> 25         0.00476
       8 -> 30        -0.00087
       8 -> 33         0.00172
       8 -> 35        -0.00202
       8 -> 40         0.00036
       8 -> 49        -0.00047
       8 -> 50         0.00024
       8 -> 53        -0.00026
       3 <- 10         0.00067
       3 <- 11         0.00039
       3 <- 14         0.00066
       3 <- 16         0.00015
       3 <- 19        -0.00111
       3 <- 20         0.00095
       3 <- 21         0.00072
       3 <- 24         0.00023
       3 <- 26         0.00091
       3 <- 28         0.00056
       3 <- 32         0.00027
       3 <- 34        -0.00057
       3 <- 36        -0.00011
       3 <- 41        -0.00011
       3 <- 46         0.00028
       3 <- 47        -0.00023
       3 <- 51        -0.00012
       3 <- 54        -0.00015
       4 <- 10         0.00398
       4 <- 11         0.00081
       4 <- 14         0.00330
       4 <- 20         0.00179
       4 <- 21        -0.00042
       4 <- 24        -0.00369
       4 <- 26         0.00134
       4 <- 32        -0.00082
       4 <- 34        -0.00017
       4 <- 41        -0.00013
       4 <- 43         0.00012
       4 <- 46        -0.00014
       4 <- 51        -0.00012
       5 <- 12         0.00274
       5 <- 15         0.00301
       5 <- 18         0.00326
       5 <- 22        -0.00101
       5 <- 25         0.00300
       5 <- 30        -0.00018
       5 <- 33        -0.00037
       5 <- 35         0.00066
       5 <- 53        -0.00010
       6 <- 10         0.00248
       6 <- 14         0.00150
       6 <- 16        -0.00018
       6 <- 19         0.00056
       6 <- 20         0.00085
       6 <- 21        -0.00081
       6 <- 24        -0.00228
       6 <- 26        -0.00011
       6 <- 28        -0.00151
       6 <- 32        -0.00033
       6 <- 34        -0.00018
       6 <- 46        -0.00016
       6 <- 47         0.00059
       6 <- 51         0.00022
       6 <- 54        -0.00011
       7 <-  9        -0.00230
       7 <- 13         0.00251
       7 <- 17        -0.00029
       7 <- 23         0.00261
       7 <- 29        -0.00072
       7 <- 31        -0.00065
       7 <- 37         0.00044
       7 <- 44         0.00051
       7 <- 48        -0.00028
       8 <- 12        -0.00040
       8 <- 15        -0.00373
       8 <- 18        -0.00163
       8 <- 22         0.00010
       8 <- 25        -0.00130
       8 <- 30        -0.00118
       8 <- 33         0.00065
       8 <- 35        -0.00076
       8 <- 40         0.00044
       8 <- 42         0.00011
       8 <- 49        -0.00046
       8 <- 50         0.00015
       8 <- 53        -0.00026

 Excited State   5:      Singlet-B1     8.3910 eV  147.76 nm  f=0.0012  <S**2>=0.000
       3 ->  9        -0.03337
       3 -> 13         0.00508
       3 -> 17        -0.00704
       3 -> 23         0.00404
       3 -> 29        -0.00260
       3 -> 31        -0.00023
       3 -> 44         0.00066
       3 -> 48         0.00015
       3 -> 52         0.00113
       4 ->  9         0.01689
       4 -> 13        -0.00277
       4 -> 17         0.00099
       4 -> 23        -0.00249
       4 -> 31        -0.00253
       4 -> 37        -0.00039
       4 -> 48        -0.00162
       4 -> 52        -0.00098
       5 -> 27        -0.00176
       5 -> 38         0.00213
       5 -> 45         0.00292
       6 ->  9         0.70497
       6 -> 13        -0.03544
       6 -> 17         0.02294
       6 -> 23        -0.01245
       6 -> 29         0.00806
       6 -> 31         0.00364
       6 -> 37        -0.00262
       6 -> 44        -0.00351
       6 -> 48         0.00559
       6 -> 52         0.00197
       7 -> 10         0.00324
       7 -> 11         0.00936
       7 -> 14         0.00066
       7 -> 16        -0.01263
       7 -> 19        -0.00390
       7 -> 20         0.00280
       7 -> 21         0.00397
       7 -> 24         0.00302
       7 -> 26         0.00270
       7 -> 28        -0.00463
       7 -> 32        -0.00130
       7 -> 36        -0.00156
       7 -> 39         0.00035
       7 -> 41        -0.00220
       7 -> 43         0.00105
       7 -> 46         0.00501
       7 -> 47         0.00228
       7 -> 51         0.00109
       7 -> 54         0.00054
       8 -> 27         0.00312
       8 -> 38         0.00104
       8 -> 45         0.00685
       3 <-  9        -0.01034
       3 <- 13         0.00086
       3 <- 17        -0.00337
       3 <- 23         0.00057
       3 <- 29        -0.00153
       3 <- 31        -0.00011
       3 <- 37        -0.00017
       3 <- 44        -0.00010
       3 <- 48         0.00044
       3 <- 52         0.00092
       4 <-  9         0.00525
       4 <- 17         0.00250
       4 <- 23        -0.00032
       4 <- 29         0.00223
       4 <- 31        -0.00251
       4 <- 37         0.00023
       4 <- 44         0.00020
       4 <- 48        -0.00140
       4 <- 52        -0.00053
       5 <- 27        -0.00174
       5 <- 38         0.00161
       5 <- 45         0.00256
       6 <-  9        -0.02118

 The electronic state is 1-A1.
 Alpha  occ. eigenvalues --  -19.15511 -10.28882  -1.04441  -0.65496  -0.49904
 Alpha  occ. eigenvalues --   -0.45661  -0.39555  -0.28554
 Alpha virt. eigenvalues --   -0.08046   0.00586   0.03759   0.04226   0.06360
 Alpha virt. eigenvalues --    0.12629   0.17142   0.18708   0.21924   0.23409
 Alpha virt. eigenvalues --    0.25930   0.31509   0.43862   0.45398   0.50920

 Mulliken charges:
               1
     1  C    0.004308
     2  H    0.127208
     3  H    0.127208
     4  O   -0.258724
 Sum of Mulliken charges =   0.00000

 Dipole moment (field-independent basis, Debye):
    X=             -0.0000    Y=              0.0000    Z=             -2.7566  Tot=              2.7566
 Quadrupole moment (field-independent basis, Debye-Ang):
   XX=            -11.9357   YY=            -11.7302   ZZ=            -12.2724
   XY=              0.0000   XZ=              0.0000   YZ=             -0.0000

 Normal termination of Gaussian 16 at Fri Sep 17 10:52:45 2021.
