 Gaussian 16, Revision A.03,
 Gaussian 16:  ES64L-G16RevA.03 25-Dec-2016

 --------------------------------------------------------------------
 #p B3LYP/6-311+G** #p TD=(singlets,nstates=30)IOp(6/8=3) IOp(9/40=4)
 --------------------------------------------------------------------

 -------------------------------
 Scan Step 112, Bond Length 1.06
 -------------------------------
 Symbolic Z-matrix:
 Charge =  0 Multiplicity = 1

                         Standard orientation:
 ---------------------------------------------------------------------
 Center     Atomic      Atomic             Coordinates (Angstroms)
 Number     Number       Type             X           Y           Z
 ---------------------------------------------------------------------
      1          6           0        0.000000    0.000000   -0.456081
      2          1           0        0.000000    0.937260   -1.047431
      3          1           0       -0.000000   -0.937260   -1.047431
      4          8           0        0.000000   -0.000000    0.603919
 ---------------------------------------------------------------------

 SCF Done:  E(RB3LYP) =  -114.498175192     A.U. after    9 cycles

 Excitation energies and oscillator strengths:

 Excited State   1:      Singlet-A2     4.7870 eV  259.00 nm  f=0.0000  <S**2>=0.000
       3 -> 27         0.00291
       3 -> 37         0.00244
       3 -> 45         0.00194
       4 -> 27         0.00268
       4 -> 37        -0.00072
       4 -> 45        -0.00106
       5 ->  9         0.01916
       5 -> 13        -0.00719
       5 -> 17         0.00617
       5 -> 23        -0.00210
       5 -> 28         0.00386
       5 -> 31         0.00291
       5 -> 36         0.00399
       5 -> 44         0.00068
       5 -> 47         0.00012
       5 -> 52         0.00086
       6 -> 27         0.00043
       6 -> 37        -0.00064
       6 -> 45         0.00165
       7 -> 12        -0.00062
       7 -> 16         0.00193
       7 -> 18        -0.00190
       7 -> 22         0.00144
       7 -> 24         0.00122
       7 -> 29        -0.00073
       7 -> 34         0.00037
       7 -> 35         0.00047
       7 -> 40        -0.00039
       7 -> 42        -0.00015
       7 -> 48         0.00059
       7 -> 51        -0.00020
       7 -> 53         0.00041
       8 ->  9         0.70209
       8 -> 13        -0.07849
       8 -> 17         0.02523
       8 -> 23        -0.01184
       8 -> 28         0.00717
       8 -> 31         0.00345
       8 -> 36        -0.00123
       8 -> 44        -0.00024
       8 -> 47        -0.00018
       8 -> 52         0.00138
       3 <- 27         0.00201
       3 <- 37         0.00207
       3 <- 45         0.00202
       4 <- 27         0.00346
       4 <- 37        -0.00018
       4 <- 45        -0.00095
       5 <- 13        -0.00095
       5 <- 17        -0.00068
       5 <- 23         0.00051
       5 <- 28        -0.00044
       5 <- 31        -0.00109
       5 <- 36         0.00180
       5 <- 44         0.00037
       5 <- 47         0.00017
       5 <- 52         0.00022
       6 <- 27         0.00085
       6 <- 37        -0.00061
       6 <- 45         0.00128
       7 <- 12        -0.00096
       7 <- 16        -0.00533
       7 <- 18        -0.00135
       7 <- 22         0.00655
       7 <- 24        -0.00079
       7 <- 29         0.00243
       7 <- 34        -0.00129
       7 <- 35         0.00252
       7 <- 40        -0.00088
       7 <- 42        -0.00060
       7 <- 48         0.00042
       7 <- 53         0.00108
       8 <-  9        -0.01728
       8 <- 13         0.00528
       8 <- 17        -0.00386
       8 <- 23         0.00073
       8 <- 28        -0.00054
       8 <- 31         0.00172
       8 <- 36        -0.00200
       8 <- 52         0.00041
 This state for optimization and/or second-order correction.
 Total Energy, E(TD-HF/TD-DFT) =  -114.322255808
 Copying the excited state density for this state as the 1-particle RhoCI density.

 Excited State   2:      Singlet-B2     6.5534 eV  189.19 nm  f=0.0550  <S**2>=0.000
       3 -> 12         0.00119
       3 -> 16         0.00057
       3 -> 18         0.00111
       3 -> 22        -0.00023
       3 -> 24         0.00129
       3 -> 29        -0.00012
       3 -> 35        -0.00024
       4 -> 12        -0.00452
       4 -> 16         0.00093
       4 -> 18         0.00236
       4 -> 22        -0.00328
       4 -> 24         0.00383
       4 -> 34        -0.00080
       4 -> 35         0.00083
       4 -> 40        -0.00048
       4 -> 42        -0.00015
       5 -> 10        -0.00256
       5 -> 11        -0.00913
       5 -> 14         0.00667
       5 -> 15        -0.00129
       5 -> 19         0.00293
       5 -> 21         0.00452
       5 -> 25         0.00031
       5 -> 26         0.00228
       5 -> 30         0.00227
       5 -> 32        -0.00027
       5 -> 33        -0.00071
       5 -> 38        -0.00042
       5 -> 39        -0.00029
       5 -> 43        -0.00054
       5 -> 46        -0.00054
       5 -> 49         0.00020
       6 -> 12         0.00129
       6 -> 16         0.00086
       6 -> 18         0.00372
       6 -> 22        -0.00271
       6 -> 24         0.00173
       6 -> 29        -0.00029
       6 -> 34        -0.00013
       6 -> 40         0.00015
       6 -> 42         0.00032
       6 -> 48         0.00037
       6 -> 51         0.00050
       7 -> 27         0.00051
       7 -> 37        -0.00025
       7 -> 45         0.00071
       8 -> 10         0.70503
       8 -> 11        -0.04793
       8 -> 14         0.00032
       8 -> 15        -0.00963
       8 -> 19         0.01751
       8 -> 20         0.01049
       8 -> 21        -0.00514
       8 -> 25         0.00078
       8 -> 26         0.00130
       8 -> 30         0.00053
       8 -> 32         0.00113
       8 -> 33         0.00215
       8 -> 38         0.00055
       8 -> 39         0.00053
       8 -> 41        -0.00016
       8 -> 43         0.00069
       8 -> 46        -0.00087
       8 -> 54         0.00017
       3 <- 12         0.00033
       3 <- 16         0.00048
       3 <- 18         0.00049
       3 <- 22        -0.00032
       3 <- 24         0.00085
       3 <- 29        -0.00011
       3 <- 35        -0.00023
       4 <- 12         0.00052
       4 <- 16         0.00139
       4 <- 18         0.00252
       4 <- 22        -0.00200
       4 <- 24         0.00273
       4 <- 34        -0.00055
       4 <- 35         0.00056
       4 <- 40        -0.00026
       4 <- 48        -0.00010
       5 <- 10         0.00244
       5 <- 11        -0.00017
       5 <- 14         0.00490
       5 <- 15        -0.00121
       5 <- 19         0.00071
       5 <- 20         0.00029
       5 <- 21         0.00226
       5 <- 25         0.00168
       5 <- 26         0.00149
       5 <- 30         0.00068
       5 <- 32        -0.00048
       5 <- 33        -0.00069
       5 <- 38        -0.00039
       5 <- 39        -0.00017
       5 <- 41         0.00011
       5 <- 43        -0.00038
       5 <- 46        -0.00046
       5 <- 49         0.00019
       6 <- 12         0.00038
       6 <- 16        -0.00029
       6 <- 18         0.00171
       6 <- 22        -0.00097
       6 <- 24         0.00067
       6 <- 29         0.00041
       6 <- 34        -0.00020
       6 <- 35         0.00025
       6 <- 40         0.00013
       6 <- 42         0.00031
       6 <- 48         0.00031
       6 <- 51         0.00051
       6 <- 53         0.00010
       7 <- 27         0.00039
       7 <- 37        -0.00019
       7 <- 45         0.00061
       8 <- 10        -0.00279
       8 <- 11        -0.00083
       8 <- 14        -0.00854
       8 <- 15         0.00025
       8 <- 19        -0.00051
       8 <- 20        -0.00038
       8 <- 21        -0.00312
       8 <- 25        -0.00284
       8 <- 30        -0.00069
       8 <- 33         0.00158
       8 <- 38         0.00055
       8 <- 39         0.00043
       8 <- 43         0.00053
       8 <- 46        -0.00059
       8 <- 50         0.00014

 Excited State   3:      Singlet-B2     7.3468 eV  168.76 nm  f=0.0211  <S**2>=0.000
       3 -> 12        -0.00020
       3 -> 16        -0.00066
       3 -> 18         0.00053
       3 -> 22         0.00025
       3 -> 24         0.00032
       3 -> 29         0.00150
       3 -> 34         0.00014
       3 -> 35        -0.00034
       3 -> 40         0.00026
       3 -> 42         0.00024
       3 -> 48         0.00026
       3 -> 51         0.00027
       4 -> 12         0.00311
       4 -> 16        -0.00113
       4 -> 18         0.00330
       4 -> 22        -0.00156
       4 -> 24         0.00333
       4 -> 29        -0.00107
       4 -> 34         0.00054
       4 -> 35        -0.00039
       4 -> 42         0.00018
       4 -> 48         0.00019
       4 -> 51         0.00016
       5 -> 10        -0.00739
       5 -> 11         0.00032
       5 -> 14         0.00564
       5 -> 15        -0.00647
       5 -> 19        -0.00382
       5 -> 20        -0.00274
       5 -> 21         0.00101
       5 -> 25         0.00139
       5 -> 26        -0.00070
       5 -> 30         0.00134
       5 -> 32        -0.00126
       5 -> 33        -0.00122
       5 -> 39         0.00048
       5 -> 41        -0.00085
       5 -> 46         0.00077
       5 -> 49        -0.00032
       5 -> 50        -0.00035
       6 -> 12        -0.00323
       6 -> 16        -0.00181
       6 -> 18        -0.00157
       6 -> 22         0.00147
       6 -> 29         0.00051
       6 -> 34        -0.00042
       6 -> 35         0.00144
       6 -> 40        -0.00081
       6 -> 42        -0.00042
       6 -> 48        -0.00078
       6 -> 51        -0.00068
       6 -> 53         0.00013
       7 -> 27        -0.00048
       7 -> 37        -0.00117
       7 -> 45        -0.00142
       8 -> 10         0.04856
       8 -> 11         0.70450
       8 -> 14        -0.01204
       8 -> 15         0.01715
       8 -> 19        -0.02384
       8 -> 20         0.01230
       8 -> 21        -0.00207
       8 -> 25         0.00047
       8 -> 26        -0.00138
       8 -> 30        -0.00090
       8 -> 32        -0.00028
       8 -> 33         0.00029
       8 -> 41        -0.00140
       8 -> 43         0.00010
       8 -> 46         0.00120
       8 -> 49        -0.00064
       8 -> 50        -0.00056
       8 -> 54        -0.00017
       3 <- 12         0.00032
       3 <- 16        -0.00030
       3 <- 18         0.00074
       3 <- 24         0.00041
       3 <- 29         0.00092
       3 <- 34         0.00021
       3 <- 35        -0.00039
       3 <- 40         0.00023
       3 <- 42         0.00020
       3 <- 48         0.00021
       3 <- 51         0.00017
       3 <- 53        -0.00023
       4 <- 12         0.00035
       4 <- 16         0.00044
       4 <- 18         0.00097
       4 <- 22        -0.00120
       4 <- 24         0.00139
       4 <- 29        -0.00045
       4 <- 34         0.00050
       4 <- 42         0.00021
       4 <- 48         0.00012
       4 <- 51         0.00021
       5 <- 10         0.00132
       5 <- 11        -0.00077
       5 <- 14         0.00220
       5 <- 15        -0.00045
       5 <- 19         0.00075
       5 <- 20        -0.00011
       5 <- 21         0.00090
       5 <- 25         0.00111
       5 <- 26        -0.00061
       5 <- 30         0.00077
       5 <- 32         0.00023
       5 <- 33        -0.00123
       5 <- 38         0.00017
       5 <- 39         0.00023
       5 <- 41        -0.00088
       5 <- 46         0.00071
       5 <- 49        -0.00018
       5 <- 50        -0.00033
       6 <- 12        -0.00035
       6 <- 16        -0.00020
       6 <- 18        -0.00022
       6 <- 22         0.00045
       6 <- 29         0.00015
       6 <- 34        -0.00022
       6 <- 35         0.00107
       6 <- 40        -0.00059
       6 <- 42        -0.00029
       6 <- 48        -0.00066
       6 <- 51        -0.00058
       7 <- 37        -0.00094
       7 <- 45        -0.00120
       8 <- 10        -0.00088
       8 <- 11         0.00039
       8 <- 14        -0.00449
       8 <- 15         0.00066
       8 <- 19         0.00288
       8 <- 20        -0.00143
       8 <- 21        -0.00216
       8 <- 26        -0.00151
       8 <- 30        -0.00053
       8 <- 32         0.00129
       8 <- 33         0.00011
       8 <- 38        -0.00017
       8 <- 39        -0.00021
       8 <- 41        -0.00119
       8 <- 46         0.00097
       8 <- 49        -0.00038
       8 <- 50        -0.00045

 Excited State   4:      Singlet-A1     7.4942 eV  165.44 nm  f=0.0539  <S**2>=0.000
       3 -> 10         0.00162
       3 -> 11        -0.00101
       3 -> 14         0.00050
       3 -> 15        -0.00038
       3 -> 19         0.00093
       3 -> 20         0.00104
       3 -> 21         0.00029
       3 -> 25        -0.00020
       3 -> 26         0.00071
       3 -> 30         0.00120
       3 -> 32        -0.00033
       3 -> 33        -0.00031
       3 -> 38        -0.00031
       3 -> 39         0.00014
       3 -> 41        -0.00021
       3 -> 50        -0.00038
       3 -> 54        -0.00021
       4 -> 10         0.00536
       4 -> 11         0.00803
       4 -> 14         0.00577
       4 -> 15        -0.00025
       4 -> 19         0.00051
       4 -> 20         0.00552
       4 -> 21         0.00232
       4 -> 25         0.00715
       4 -> 26         0.00096
       4 -> 30        -0.00050
       4 -> 33        -0.00079
       4 -> 39        -0.00033
       4 -> 41         0.00020
       4 -> 43         0.00014
       4 -> 46        -0.00025
       4 -> 49        -0.00020
       5 -> 12         0.00757
       5 -> 16        -0.00054
       5 -> 18         0.01160
       5 -> 22        -0.00106
       5 -> 24         0.00504
       5 -> 29         0.00018
       5 -> 34        -0.00015
       5 -> 35         0.00084
       5 -> 42         0.00011
       5 -> 51        -0.00033
       5 -> 53        -0.00015
       6 -> 10         0.01330
       6 -> 11        -0.00408
       6 -> 14         0.00415
       6 -> 15         0.00151
       6 -> 19         0.00493
       6 -> 20         0.00443
       6 -> 21         0.00178
       6 -> 25         0.00250
       6 -> 26         0.00054
       6 -> 30        -0.00097
       6 -> 32         0.00058
       6 -> 33        -0.00055
       6 -> 43         0.00012
       6 -> 49        -0.00029
       6 -> 50         0.00054
       7 ->  9         0.01179
       7 -> 13         0.00746
       7 -> 17         0.00446
       7 -> 23         0.00505
       7 -> 31         0.00085
       7 -> 36         0.00055
       7 -> 44         0.00064
       7 -> 47        -0.00036
       7 -> 52        -0.00010
       8 -> 12         0.70570
       8 -> 16        -0.02232
       8 -> 18         0.02728
       8 -> 22         0.00521
       8 -> 24         0.00220
       8 -> 29         0.00158
       8 -> 34         0.00151
       8 -> 35        -0.00216
       8 -> 40        -0.00064
       8 -> 42        -0.00073
       8 -> 48        -0.00036
       8 -> 51        -0.00028
       8 -> 53        -0.00019
       3 <- 10         0.00059
       3 <- 11        -0.00022
       3 <- 14         0.00031
       3 <- 19         0.00040
       3 <- 20         0.00048
       3 <- 21         0.00028
       3 <- 25         0.00011
       3 <- 26         0.00040
       3 <- 30         0.00076
       3 <- 32        -0.00028
       3 <- 33        -0.00015
       3 <- 38        -0.00024
       3 <- 39         0.00012
       3 <- 41        -0.00017
       3 <- 46         0.00016
       3 <- 50        -0.00033
       3 <- 54        -0.00019
       4 <- 10         0.00497
       4 <- 11         0.00227
       4 <- 14         0.00423
       4 <- 15        -0.00067
       4 <- 19         0.00037
       4 <- 20         0.00313
       4 <- 21         0.00095
       4 <- 25         0.00405
       4 <- 26         0.00056
       4 <- 32        -0.00015
       4 <- 33        -0.00103
       4 <- 38        -0.00011
       4 <- 39        -0.00035
       4 <- 46        -0.00023
       4 <- 49        -0.00017
       5 <- 12         0.00277
       5 <- 16         0.00137
       5 <- 18         0.00429
       5 <- 22        -0.00019
       5 <- 24         0.00273
       5 <- 34        -0.00033
       5 <- 35         0.00076
       5 <- 40         0.00010
       5 <- 51        -0.00023
       5 <- 53        -0.00014
       6 <- 10         0.00378
       6 <- 11        -0.00055
       6 <- 14         0.00177
       6 <- 15         0.00049
       6 <- 19         0.00177
       6 <- 20         0.00225
       6 <- 21         0.00069
       6 <- 25         0.00133
       6 <- 26         0.00057
       6 <- 30        -0.00053
       6 <- 32         0.00035
       6 <- 33        -0.00049
       6 <- 39        -0.00015
       6 <- 41         0.00015
       6 <- 49        -0.00018
       6 <- 50         0.00051
       7 <-  9         0.00200
       7 <- 13         0.00216
       7 <- 17         0.00154
       7 <- 23         0.00270
       7 <- 31         0.00061
       7 <- 36         0.00044
       7 <- 44         0.00053
       7 <- 47        -0.00031
       8 <- 12        -0.00186
       8 <- 16        -0.00795
       8 <- 18        -0.00348
       8 <- 22         0.00069
       8 <- 24        -0.00227
       8 <- 29         0.00028
       8 <- 34         0.00086
       8 <- 35        -0.00123
       8 <- 40        -0.00058
       8 <- 42        -0.00061
       8 <- 48        -0.00042
       8 <- 51        -0.00023
       8 <- 53        -0.00020

 Excited State   5:      Singlet-A2     8.0058 eV  154.87 nm  f=0.0000  <S**2>=0.000
       3 -> 27        -0.00076
       3 -> 37        -0.00068
       3 -> 45        -0.00039
       4 -> 37         0.00057
       4 -> 45         0.00012
       5 ->  9        -0.00951
       5 -> 13        -0.00023
       5 -> 17         0.00557
       5 -> 23        -0.00110
       5 -> 31        -0.00184
       5 -> 36        -0.00136
       5 -> 44        -0.00024
       5 -> 52        -0.00016
       6 -> 27         0.00019
       6 -> 37         0.00028
       6 -> 45        -0.00041
       7 -> 12        -0.00052
       7 -> 16        -0.00182
       7 -> 18         0.00174
       7 -> 22        -0.00075
       7 -> 24        -0.00020
       7 -> 29         0.00016
       7 -> 35        -0.00019
       7 -> 40         0.00014
       7 -> 48        -0.00014
       8 ->  9         0.07855
       8 -> 13         0.70227
       8 -> 17         0.01221
       8 -> 23         0.01930
       8 -> 28        -0.00020
       8 -> 31        -0.00128
       8 -> 47         0.00018
       8 -> 52        -0.00022
       3 <- 27        -0.00033
       3 <- 37        -0.00050
       3 <- 45        -0.00049
       4 <- 27        -0.00034
       4 <- 45         0.00011
       5 <-  9        -0.00025
       5 <- 13        -0.00025
       5 <- 17         0.00062
       5 <- 36        -0.00033
       6 <- 37         0.00022
       6 <- 45        -0.00013
       7 <- 12        -0.00066
       7 <- 16        -0.00073
       7 <- 18         0.00064
       7 <- 22        -0.00141
       7 <- 24        -0.00030
       7 <- 29         0.00017
       7 <- 34         0.00048
       7 <- 35        -0.00081
       7 <- 40         0.00036
       7 <- 42         0.00030
       7 <- 53        -0.00017
       8 <-  9         0.00344
       8 <- 13         0.00135
       8 <- 17         0.00025
       8 <- 23        -0.00029
       8 <- 31        -0.00021
       8 <- 36         0.00030
       8 <- 52        -0.00010

 Excited State   6:      Singlet-B2    10.2639 eV  120.80 nm  f=0.2017  <S**2>=0.000
       3 -> 12        -0.00035
       3 -> 16        -0.00196
       3 -> 18         0.00059
       3 -> 22         0.00144
       3 -> 24         0.00096
       3 -> 29         0.00139
       3 -> 34        -0.00075
       3 -> 40        -0.00016
       3 -> 42        -0.00056
       3 -> 48         0.00033

 The electronic state is 1-A1.
 Alpha  occ. eigenvalues --  -19.14229 -10.25527  -1.16138  -0.62283  -0.53841
 Alpha  occ. eigenvalues --   -0.48683  -0.46812  -0.26806
 Alpha virt. eigenvalues --   -0.02501   0.01170   0.04186   0.04348   0.06990
 Alpha virt. eigenvalues --    0.13573   0.18191   0.19481   0.22013   0.22672
 Alpha virt. eigenvalues --    0.27104   0.35241   0.48597   0.49520   0.51248

 Mulliken charges:
               1
     1  C    0.073677
     2  H    0.068087
     3  H    0.068087
     4  O   -0.209851
 Sum of Mulliken charges =   0.00000

 Dipole moment (field-independent basis, Debye):
    X=             -0.0000    Y=              0.0000    Z=             -1.7108  Tot=              1.7108
 Quadrupole moment (field-independent basis, Debye-Ang):
   XX=            -11.3087   YY=            -11.8773   ZZ=            -12.8055
   XY=              0.0000   XZ=              0.0000   YZ=             -0.0000

 Normal termination of Gaussian 16 at Fri Sep 17 10:52:37 2021.
