 Gaussian 16, Revision A.03,
 Gaussian 16:  ES64L-G16RevA.03 25-Dec-2016

 --------------------------------------------------------------------
 #p B3LYP/6-311+G** #p TD=(singlets,nstates=30)IOp(6/8=3) IOp(9/40=4)
 --------------------------------------------------------------------

 --------------------------------
 Scan Step 273, Bond Length 1.865
 --------------------------------
 Symbolic Z-matrix:
 Charge =  0 Multiplicity = 1

                         Standard orientation:
 ---------------------------------------------------------------------
 Center     Atomic      Atomic             Coordinates (Angstroms)
 Number     Number       Type             X           Y           Z
 ---------------------------------------------------------------------
      1          6           0        0.000000   -0.000000   -0.858581
      2          1           0        0.000000    0.937260   -1.449931
      3          1           0       -0.000000   -0.937260   -1.449931
      4          8           0        0.000000    0.000000    1.006419
 ---------------------------------------------------------------------

 SCF Done:  E(RB3LYP) =  -114.335659208     A.U. after   13 cycles

 Excitation energies and oscillator strengths:

 Excited State   1:      Singlet-A2     1.2177 eV 1018.20 nm  f=0.0000  <S**2>=0.000
       3 -> 27         0.00067
       3 -> 38         0.00041
       3 -> 46         0.00333
       4 -> 27         0.00035
       4 -> 46        -0.00091
       5 ->  9         0.00120
       5 -> 13         0.00109
       5 -> 18         0.00158
       5 -> 23         0.00132
       5 -> 28         0.00120
       5 -> 37         0.00069
       5 -> 44         0.00019
       5 -> 52         0.00016
       6 -> 27        -0.00056
       6 -> 38        -0.00054
       6 -> 46         0.00090
       7 -> 12        -0.00133
       7 -> 16         0.00534
       7 -> 19        -0.00476
       7 -> 22        -0.00113
       7 -> 25        -0.00053
       7 -> 29        -0.00196
       7 -> 33         0.00027
       7 -> 49         0.00013
       7 -> 53         0.00037
       8 ->  9         0.71119
       8 -> 13        -0.00625
       8 -> 18         0.02067
       8 -> 23        -0.00076
       8 -> 28         0.01014
       8 -> 31         0.00161
       8 -> 37         0.00048
       8 -> 48        -0.00029
       8 -> 52         0.00184
       3 <- 27         0.00017
       3 <- 38         0.00019
       3 <- 46         0.00335
       4 <- 27         0.00067
       4 <- 38         0.00018
       4 <- 46        -0.00070
       5 <-  9         0.00043
       5 <- 13        -0.00032
       5 <- 18        -0.00035
       5 <- 23         0.00015
       5 <- 28        -0.00026
       5 <- 31         0.00021
       5 <- 37         0.00040
       6 <- 38        -0.00040
       6 <- 46         0.00065
       7 <- 12         0.00194
       7 <- 16        -0.01054
       7 <- 19         0.00578
       7 <- 22         0.00554
       7 <- 25        -0.00064
       7 <- 29         0.00564
       7 <- 33        -0.00034
       7 <- 35         0.00011
       7 <- 49        -0.00048
       7 <- 53         0.00145
       8 <-  9        -0.07841
       8 <- 13        -0.00053
       8 <- 18        -0.00783
       8 <- 23        -0.00038
       8 <- 28        -0.00278
       8 <- 31        -0.00083
       8 <- 37        -0.00018
       8 <- 48         0.00013
       8 <- 52         0.00043
 This state for optimization and/or second-order correction.
 Total Energy, E(TD-HF/TD-DFT) =  -114.290910416
 Copying the excited state density for this state as the 1-particle RhoCI density.

 Excited State   2:      Singlet-A1     3.2027 eV  387.12 nm  f=0.0275  <S**2>=0.000
       3 -> 10        -0.01372
       3 -> 11        -0.00270
       3 -> 14         0.00092
       3 -> 15         0.00029
       3 -> 17        -0.00300
       3 -> 20        -0.00342
       3 -> 21         0.00054
       3 -> 24         0.00038
       3 -> 26         0.00112
       3 -> 30        -0.00034
       3 -> 32         0.00273
       3 -> 34         0.00102
       3 -> 36        -0.00095
       3 -> 39        -0.00038
       3 -> 43         0.00050
       3 -> 45        -0.00108
       3 -> 47         0.00231
       3 -> 50         0.00159
       3 -> 54        -0.00010
       4 -> 10        -0.00107
       4 -> 11         0.00996
       4 -> 14         0.00167
       4 -> 15        -0.00748
       4 -> 17         0.00212
       4 -> 20         0.00190
       4 -> 21         0.00025
       4 -> 24        -0.00371
       4 -> 26         0.00310
       4 -> 30         0.00022
       4 -> 32        -0.00117
       4 -> 34        -0.00073
       4 -> 39        -0.00023
       4 -> 43        -0.00044
       4 -> 45         0.00076
       4 -> 47        -0.00073
       4 -> 50        -0.00026
       4 -> 54         0.00014
       5 -> 12         0.00902
       5 -> 16         0.00217
       5 -> 19         0.00110
       5 -> 22         0.00662
       5 -> 25        -0.00427
       5 -> 29         0.00034
       5 -> 33        -0.00235
       5 -> 35         0.00272
       5 -> 40        -0.00094
       5 -> 42        -0.00099
       5 -> 49         0.00011
       5 -> 51        -0.00087
       6 -> 10         0.25543
       6 -> 11         0.03409
       6 -> 14        -0.03800
       6 -> 15        -0.02136
       6 -> 17        -0.01527
       6 -> 20        -0.00104
       6 -> 21         0.00487
       6 -> 24        -0.00744
       6 -> 26        -0.00289
       6 -> 30        -0.00343
       6 -> 32         0.00438
       6 -> 34         0.00137
       6 -> 36         0.00058
       6 -> 39        -0.00141
       6 -> 43         0.00080
       6 -> 45        -0.00091
       6 -> 47         0.00075
       6 -> 50         0.00052
       6 -> 54        -0.00097
       7 ->  9         0.67500
       7 -> 13        -0.00733
       7 -> 18        -0.00969
       7 -> 23        -0.00278
       7 -> 28         0.00142
       7 -> 31        -0.00329
       7 -> 37         0.00134
       7 -> 44        -0.00096
       7 -> 52         0.00105
       8 -> 12        -0.00734
       8 -> 16         0.03410
       8 -> 19        -0.01786
       8 -> 22        -0.01152
       8 -> 29        -0.00761
       8 -> 33         0.00089
       8 -> 35        -0.00061
       8 -> 40         0.00022
       8 -> 42         0.00022
       8 -> 51         0.00014
       8 -> 53        -0.00049
       3 <- 10        -0.01099
       3 <- 11        -0.00251
       3 <- 14         0.00077
       3 <- 15        -0.00017
       3 <- 17        -0.00174
       3 <- 20        -0.00300
       3 <- 26         0.00025
       3 <- 32         0.00235
       3 <- 34         0.00052
       3 <- 36        -0.00098
       3 <- 39        -0.00033
       3 <- 43         0.00054
       3 <- 45        -0.00120
       3 <- 47         0.00232
       3 <- 50         0.00160
       4 <- 10         0.00043
       4 <- 11         0.00743
       4 <- 14         0.00137
       4 <- 15        -0.00522
       4 <- 17         0.00130
       4 <- 20         0.00242
       4 <- 24        -0.00287
       4 <- 26         0.00278
       4 <- 30        -0.00033
       4 <- 32        -0.00119
       4 <- 34        -0.00062
       4 <- 36         0.00035
       4 <- 39        -0.00026
       4 <- 43        -0.00040
       4 <- 45         0.00069
       4 <- 47        -0.00044
       4 <- 50        -0.00013
       4 <- 54         0.00012
       5 <- 12         0.00559
       5 <- 16         0.00149
       5 <- 19         0.00090
       5 <- 22         0.00484
       5 <- 25        -0.00338
       5 <- 29         0.00035
       5 <- 33        -0.00198
       5 <- 35         0.00237
       5 <- 40        -0.00086
       5 <- 42        -0.00088
       5 <- 49         0.00011
       5 <- 51        -0.00082
       6 <- 10         0.08836
       6 <- 11         0.01466
       6 <- 14        -0.01896
       6 <- 15        -0.01173
       6 <- 17        -0.00944
       6 <- 20        -0.00198
       6 <- 21         0.00349
       6 <- 24        -0.00498
       6 <- 26        -0.00142
       6 <- 30        -0.00212
       6 <- 32         0.00417
       6 <- 34         0.00153
       6 <- 39        -0.00127
       6 <- 43         0.00067
       6 <- 45        -0.00066
       6 <- 47         0.00043
       6 <- 50         0.00038
       6 <- 54        -0.00090
       7 <-  9        -0.13071
       7 <- 13         0.00297
       7 <- 18        -0.01101
       7 <- 23         0.00055
       7 <- 28        -0.00150
       7 <- 31        -0.00159
       7 <- 37         0.00064
       7 <- 44        -0.00081
       7 <- 48        -0.00044
       7 <- 52         0.00097
       8 <- 12        -0.00319
       8 <- 16         0.01775
       8 <- 19        -0.01064
       8 <- 22        -0.00780
       8 <- 25         0.00013
       8 <- 29        -0.00618
       8 <- 33         0.00072
       8 <- 35        -0.00047
       8 <- 40         0.00017
       8 <- 42         0.00017
       8 <- 51         0.00012
       8 <- 53        -0.00046

 Excited State   3:      Singlet-B2     3.4380 eV  360.63 nm  f=0.0021  <S**2>=0.000
       3 -> 12        -0.00117
       3 -> 16         0.00118
       3 -> 19        -0.00379
       3 -> 22         0.00108
       3 -> 25        -0.00087
       3 -> 29        -0.00250
       3 -> 33         0.00026
       3 -> 35         0.00132
       3 -> 40        -0.00123
       3 -> 42        -0.00046
       3 -> 49        -0.00392
       3 -> 51         0.00016
       3 -> 53         0.00026
       4 -> 12         0.00037
       4 -> 16        -0.00139
       4 -> 19         0.00035
       4 -> 22         0.00169
       4 -> 25         0.00058
       4 -> 29         0.00084
       4 -> 33        -0.00032
       4 -> 35         0.00042
       4 -> 40         0.00026
       4 -> 42         0.00011
       4 -> 49         0.00073
       5 -> 10         0.00981
       5 -> 11         0.00117
       5 -> 14        -0.00309
       5 -> 15         0.00302
       5 -> 17        -0.00052
       5 -> 20         0.00193
       5 -> 21         0.00291
       5 -> 24         0.00138
       5 -> 26        -0.00046
       5 -> 30        -0.00212
       5 -> 32        -0.00112
       5 -> 34        -0.00022
       5 -> 39         0.00063
       5 -> 41         0.00040
       5 -> 47        -0.00037
       5 -> 50         0.00024
       5 -> 54        -0.00018
       6 -> 12         0.00244
       6 -> 16        -0.00279
       6 -> 19         0.00419
       6 -> 22        -0.00064
       6 -> 25         0.00114
       6 -> 29         0.00021
       6 -> 33        -0.00015
       6 -> 35        -0.00119
       6 -> 40         0.00077
       6 -> 42         0.00063
       6 -> 49         0.00117
       6 -> 53        -0.00045
       7 -> 27        -0.00052
       7 -> 38         0.00032
       7 -> 46         0.00297
       8 -> 10         0.70398
       8 -> 11         0.05470
       8 -> 14        -0.05156
       8 -> 15        -0.02115
       8 -> 17        -0.01648
       8 -> 20         0.00534
       8 -> 21         0.00572
       8 -> 24        -0.00564
       8 -> 26        -0.00429
       8 -> 30        -0.01325
       8 -> 32        -0.00061
       8 -> 34        -0.00112
       8 -> 36         0.00153
       8 -> 39         0.00046
       8 -> 41        -0.00017
       8 -> 45        -0.00080
       8 -> 47        -0.00366
       8 -> 50         0.00137
       8 -> 54        -0.00246
       3 <- 12        -0.00041
       3 <- 16         0.00042
       3 <- 19        -0.00189
       3 <- 22         0.00092
       3 <- 25        -0.00079
       3 <- 29        -0.00102
       3 <- 33         0.00025
       3 <- 35         0.00087
       3 <- 40        -0.00107
       3 <- 42        -0.00031
       3 <- 49        -0.00397
       3 <- 51         0.00016
       3 <- 53         0.00071
       4 <- 12         0.00011
       4 <- 16        -0.00165
       4 <- 19         0.00019
       4 <- 22         0.00203
       4 <- 25         0.00032
       4 <- 29         0.00109
       4 <- 33        -0.00033
       4 <- 35         0.00061
       4 <- 40         0.00011
       4 <- 49         0.00051
       5 <- 10        -0.00093
       5 <- 11        -0.00060
       5 <- 14        -0.00044
       5 <- 15         0.00239
       5 <- 17         0.00019
       5 <- 20         0.00077
       5 <- 21         0.00159
       5 <- 24         0.00156
       5 <- 26        -0.00010
       5 <- 30        -0.00045
       5 <- 32        -0.00027
       5 <- 39         0.00029
       5 <- 41         0.00042
       5 <- 45        -0.00021
       5 <- 47        -0.00038
       5 <- 50         0.00013
       6 <- 12        -0.00085
       6 <- 16         0.00787
       6 <- 19        -0.00431
       6 <- 22        -0.00518
       6 <- 25         0.00126
       6 <- 29        -0.00613
       6 <- 33         0.00020
       6 <- 35        -0.00101
       6 <- 40         0.00076
       6 <- 42         0.00064
       6 <- 49         0.00167
       6 <- 53        -0.00142
       7 <- 27        -0.00052
       7 <- 38         0.00026
       7 <- 46         0.00257
       8 <- 10        -0.04617
       8 <- 11        -0.00727
       8 <- 14         0.00742
       8 <- 15         0.00222
       8 <- 17         0.00213
       8 <- 20        -0.00333
       8 <- 21        -0.00125
       8 <- 24         0.00150
       8 <- 26         0.00114
       8 <- 30         0.00198
       8 <- 32         0.00268
       8 <- 34         0.00082
       8 <- 36        -0.00083
       8 <- 39        -0.00102
       8 <- 41         0.00020
       8 <- 43         0.00039
       8 <- 45        -0.00153
       8 <- 47        -0.00304
       8 <- 50         0.00116
       8 <- 54        -0.00066

 Excited State   4:      Singlet-B1     3.6423 eV  340.40 nm  f=0.0001  <S**2>=0.000
       3 ->  9        -0.02197
       3 -> 13         0.00076
       3 -> 18        -0.00369
       3 -> 23         0.00120
       3 -> 28        -0.00114
       3 -> 31        -0.00090
       3 -> 37         0.00017
       3 -> 44         0.00033
       3 -> 48        -0.00018
       3 -> 52         0.00065
       4 ->  9         0.00319
       4 -> 13        -0.00090
       4 -> 18         0.00020
       4 -> 23        -0.00085
       4 -> 28         0.00062
       4 -> 31        -0.00108
       4 -> 37        -0.00019
       4 -> 48        -0.00030
       4 -> 52        -0.00025
       5 -> 27        -0.00087
       5 -> 38         0.00103
       5 -> 46         0.00041
       6 ->  9         0.61146
       6 -> 13        -0.01557
       6 -> 18         0.01335
       6 -> 23        -0.00943
       6 -> 28         0.00371
       6 -> 31         0.00154
       6 -> 37        -0.00104
       6 -> 44        -0.00147
       6 -> 48         0.00303
       6 -> 52         0.00075
       7 -> 10         0.35914
       7 -> 11         0.03040
       7 -> 14        -0.02977
       7 -> 15        -0.01185
       7 -> 17        -0.01122
       7 -> 20         0.00401
       7 -> 21         0.00220
       7 -> 24        -0.00424
       7 -> 26        -0.00369
       7 -> 30        -0.00615
       7 -> 32         0.00065
       7 -> 36         0.00124
       7 -> 39        -0.00012
       7 -> 41        -0.00016
       7 -> 43         0.00048
       7 -> 45        -0.00082
       7 -> 47         0.00342
       7 -> 50         0.00116
       7 -> 54        -0.00054
       8 -> 27         0.00012
       8 -> 46         0.00417
       3 <-  9        -0.00732
       3 <- 13        -0.00072
       3 <- 18        -0.00244
       3 <- 23        -0.00039
       3 <- 28        -0.00067
       3 <- 31        -0.00076
       3 <- 37         0.00014
       3 <- 48        -0.00010
       3 <- 52         0.00068
       4 <-  9         0.00272
       4 <- 18         0.00131
       4 <- 23        -0.00024
       4 <- 28         0.00145
       4 <- 31        -0.00079
       4 <- 44        -0.00024
       4 <- 48        -0.00031
       4 <- 52        -0.00011
       5 <- 27        -0.00109
       5 <- 38         0.00093
       5 <- 46         0.00037
       6 <-  9        -0.04902
       6 <- 13         0.00228
       6 <- 18        -0.00567
       6 <- 23         0.00044
       6 <- 28        -0.00417
       6 <- 31        -0.00080
       6 <- 37        -0.00074
       6 <- 44        -0.00016
       6 <- 48         0.00280
       6 <- 52        -0.00028
       7 <- 10        -0.05659
       7 <- 11        -0.00905
       7 <- 14         0.01265
       7 <- 15         0.00739
       7 <- 17         0.00341
       7 <- 20         0.00165
       7 <- 21        -0.00320
       7 <- 24         0.00367
       7 <- 26         0.00179
       7 <- 30         0.00227
       7 <- 32         0.00020
       7 <- 34         0.00061
       7 <- 36         0.00075
       7 <- 39        -0.00055
       7 <- 41         0.00022
       7 <- 43         0.00027
       7 <- 45        -0.00054
       7 <- 47         0.00316
       7 <- 50         0.00134
       7 <- 54         0.00062
       8 <- 27         0.00052
       8 <- 46         0.00387

 Excited State   5:      Singlet-B1     4.2110 eV  294.43 nm  f=0.0065  <S**2>=0.000
       3 ->  9        -0.00034
       3 -> 18        -0.00132
       3 -> 23         0.00018
       3 -> 28        -0.00222
       3 -> 31        -0.00122
       3 -> 48        -0.00325
       3 -> 52        -0.00030
       4 ->  9        -0.02994
       4 -> 13         0.00598
       4 -> 18         0.00077
       4 -> 23         0.00471
       4 -> 28         0.00080
       4 -> 31         0.00054
       4 -> 37         0.00035
       4 -> 44        -0.00040
       4 -> 48         0.00093
       4 -> 52         0.00019
       5 -> 27        -0.00609
       5 -> 38        -0.00362
       6 ->  9        -0.35784
       6 -> 13         0.00524
       6 -> 18        -0.00177
       6 -> 23         0.00363
       6 -> 28         0.00224
       6 -> 31        -0.00415
       6 -> 37         0.00260
       6 -> 44         0.00106
       6 -> 48        -0.00097
       6 -> 52        -0.00095
       7 -> 10         0.60648
       7 -> 11         0.03988
       7 -> 14        -0.04014
       7 -> 15        -0.02526
       7 -> 17        -0.00731
       7 -> 20        -0.00216
       7 -> 21         0.00256
       7 -> 24        -0.00820
       7 -> 26        -0.00476
       7 -> 30        -0.00689
       7 -> 32        -0.00077
       7 -> 34        -0.00350
       7 -> 36        -0.00139
       7 -> 39         0.00062
       7 -> 43         0.00041
       7 -> 45        -0.00080
       7 -> 47         0.00015
       7 -> 54        -0.00166
       8 -> 27         0.00053
       8 -> 38         0.00018
       8 -> 46         0.00020
       3 <-  9         0.00033
       3 <- 13         0.00082
       3 <- 18        -0.00031
       3 <- 23         0.00065
       3 <- 28        -0.00159
       3 <- 37        -0.00027
       3 <- 44        -0.00016
       3 <- 48        -0.00337
       3 <- 52         0.00012
       4 <-  9        -0.01451
       4 <- 13         0.00291
       4 <- 23         0.00292
       4 <- 28         0.00070
       4 <- 31         0.00034
       4 <- 37         0.00035
       4 <- 44        -0.00056
       4 <- 48         0.00053
       4 <- 52         0.00015
       5 <- 27        -0.00443
       5 <- 38        -0.00302
       5 <- 46         0.00013
       6 <-  9        -0.02304
       6 <- 13        -0.00060
       6 <- 18        -0.00268
       6 <- 23         0.00061
       6 <- 28         0.00044
       6 <- 31        -0.00476
       6 <- 37         0.00247
       6 <- 44         0.00093
       6 <- 48        -0.00030
       6 <- 52        -0.00128
       7 <- 10        -0.01064
       7 <- 11        -0.00117
       7 <- 15        -0.00555
       7 <- 17         0.00027
       7 <- 20        -0.00488
       7 <- 21        -0.00062
       7 <- 24        -0.00283
       7 <- 26        -0.00035
       7 <- 30        -0.00032
       7 <- 32         0.00117

 The electronic state is 1-A1.
 Alpha  occ. eigenvalues --  -19.17774 -10.34079  -0.88858  -0.71633  -0.49314
 Alpha  occ. eigenvalues --   -0.38500  -0.30452  -0.28656
 Alpha virt. eigenvalues --   -0.17485  -0.08259  -0.00137   0.04039   0.06088
 Alpha virt. eigenvalues --    0.06294   0.11673   0.13180   0.18685   0.20955
 Alpha virt. eigenvalues --    0.23928   0.30420   0.38496   0.39417   0.50555

 Mulliken charges:
               1
     1  C   -0.102017
     2  H    0.193307
     3  H    0.193307
     4  O   -0.284597
 Sum of Mulliken charges =  -0.00000

 Dipole moment (field-independent basis, Debye):
    X=             -0.0000    Y=              0.0000    Z=             -4.2372  Tot=              4.2372
 Quadrupole moment (field-independent basis, Debye-Ang):
   XX=            -13.0700   YY=            -12.0625   ZZ=            -10.5329
   XY=              0.0000   XZ=              0.0000   YZ=              0.0000

 Normal termination of Gaussian 16 at Fri Sep 17 10:53:11 2021.
