 Gaussian 16, Revision C.01,
 Gaussian 16:  ES64L-G16RevC.01  3-Jul-2019

 ----------------------------------------
 #P wB97XD/6-311+G* NoSymm #P Field=X-243
 ----------------------------------------

 -------
 TitleMe
 -------
 Symbolic Z-matrix:
 Charge =  1 Multiplicity = 1

                          Input orientation:
 ---------------------------------------------------------------------
 Center     Atomic      Atomic             Coordinates (Angstroms)
 Number     Number       Type             X           Y           Z
 ---------------------------------------------------------------------
      1          6           0        0.519300    1.233000   -0.031900
      2          6           0        1.944500    1.269200   -0.036700
      3          6           0        2.620400    0.092800   -0.025000
      4          6           0       -0.196000    0.030100    0.001000
      5          1           0       -0.020700    2.174200   -0.043400
      6          1           0        2.482800    2.208900   -0.036100
      7          1           0       -1.277700    0.039900    0.011700
      8          7           0        4.092100    0.095900    0.036600
      9          8           0        4.639300   -1.021700    0.144600
     10          8           0        4.664900    1.198400   -0.023300
     11          6           0        0.494300   -1.167100    0.021000
     12          1           0       -0.032500   -2.114900    0.054500
     13          6           0        1.962900   -1.216500   -0.021100
     14          1           0        2.443600   -1.963100    0.615100
     15         35           0        2.173000   -1.949100   -1.906200
 ---------------------------------------------------------------------

 SCF Done:  E(RwB97XD) =  -3010.59203921     A.U. after   27 cycles

 Alpha  occ. eigenvalues -- -483.22975 -62.77964 -56.57676 -56.57091 -56.57066
 Alpha  occ. eigenvalues --  -19.31542 -19.31307 -14.71137 -10.50719 -10.50641
 Alpha  occ. eigenvalues --  -10.50268 -10.49517 -10.47544 -10.44517  -8.93744
 Alpha  occ. eigenvalues --   -6.76466  -6.74551  -6.74474  -2.86359  -2.85867
 Alpha  occ. eigenvalues --   -2.85806  -2.84274  -2.84273  -1.35188  -1.17965
 Alpha  occ. eigenvalues --   -1.14684  -1.05313  -1.04061  -0.96488  -0.90926
 Alpha  occ. eigenvalues --   -0.87860  -0.82478  -0.76876  -0.72394  -0.70877
 Alpha  occ. eigenvalues --   -0.68520  -0.68054  -0.66648  -0.63544  -0.61759
 Alpha  occ. eigenvalues --   -0.61358  -0.59194  -0.56244  -0.51416  -0.47604
 Alpha  occ. eigenvalues --   -0.46772  -0.42139  -0.40511  -0.40432
 Alpha virt. eigenvalues --   -0.22247  -0.13964  -0.11175  -0.08794  -0.07314
 Alpha virt. eigenvalues --   -0.05687  -0.03793  -0.01973  -0.00446  -0.00228
 Alpha virt. eigenvalues --    0.01341   0.02446   0.04384   0.04835   0.05540

 Mulliken charges:
               1
     1  C   -0.094924
     2  C    0.129036
     3  C    0.075928
     4  C   -0.278470
     5  H    0.279692
     6  H    0.381300
     7  H    0.202373
     8  N   -0.241852
     9  O    0.182969
    10  O    0.188584
    11  C   -0.354342
    12  H    0.295077
    13  C   -0.452077
    14  H    0.441515
    15  Br   0.245193
 Sum of Mulliken charges =   1.00000

 Dipole moment (field-independent basis, Debye):
    X=              9.8932    Y=             -1.2513    Z=             -1.1065  Tot=             10.0332
 Quadrupole moment (field-independent basis, Debye-Ang):
   XX=            -40.9651   YY=            -50.8551   ZZ=            -61.5757
   XY=             -4.4970   XZ=             -4.4974   YZ=              3.3045

 Normal termination of Gaussian 16 at Thu May  2 14:25:51 2024.
