 Gaussian 16, Revision C.01,
 Gaussian 16:  ES64L-G16RevC.01  3-Jul-2019

 ---------------------------------------
 #P wB97XD/6-311+G* NoSymm #P Field=Y+58
 ---------------------------------------

 -------
 TitleMe
 -------
 Symbolic Z-matrix:
 Charge =  1 Multiplicity = 1

                          Input orientation:
 ---------------------------------------------------------------------
 Center     Atomic      Atomic             Coordinates (Angstroms)
 Number     Number       Type             X           Y           Z
 ---------------------------------------------------------------------
      1          6           0        0.519300    1.233000   -0.031900
      2          6           0        1.944500    1.269200   -0.036700
      3          6           0        2.620400    0.092800   -0.025000
      4          6           0       -0.196000    0.030100    0.001000
      5          1           0       -0.020700    2.174200   -0.043400
      6          1           0        2.482800    2.208900   -0.036100
      7          1           0       -1.277700    0.039900    0.011700
      8          7           0        4.092100    0.095900    0.036600
      9          8           0        4.639300   -1.021700    0.144600
     10          8           0        4.664900    1.198400   -0.023300
     11          6           0        0.494300   -1.167100    0.021000
     12          1           0       -0.032500   -2.114900    0.054500
     13          6           0        1.962900   -1.216500   -0.021100
     14          1           0        2.443600   -1.963100    0.615100
     15         35           0        2.173000   -1.949100   -1.906200
 ---------------------------------------------------------------------

 SCF Done:  E(RwB97XD) =  -3010.53591315     A.U. after   19 cycles

 Alpha  occ. eigenvalues -- -483.30173 -62.85181 -56.64889 -56.64302 -56.64287
 Alpha  occ. eigenvalues --  -19.46195 -19.46065 -14.85537 -10.58968 -10.57110
 Alpha  occ. eigenvalues --  -10.56772 -10.56744 -10.53378 -10.52410  -9.00976
 Alpha  occ. eigenvalues --   -6.83695  -6.81770  -6.81726  -2.93589  -2.93086
 Alpha  occ. eigenvalues --   -2.93051  -2.91512  -2.91511  -1.49812  -1.32775
 Alpha  occ. eigenvalues --   -1.22004  -1.12499  -1.11959  -1.04120  -0.99873
 Alpha  occ. eigenvalues --   -0.94944  -0.90266  -0.84728  -0.80684  -0.79908
 Alpha  occ. eigenvalues --   -0.79810  -0.77573  -0.76053  -0.75201  -0.71502
 Alpha  occ. eigenvalues --   -0.68150  -0.67273  -0.62924  -0.59236  -0.57272
 Alpha  occ. eigenvalues --   -0.56522  -0.55829  -0.55020  -0.53773
 Alpha virt. eigenvalues --   -0.29597  -0.20223  -0.14872  -0.12748  -0.09608
 Alpha virt. eigenvalues --   -0.06149  -0.05945  -0.04562  -0.04076  -0.03206
 Alpha virt. eigenvalues --   -0.02037  -0.01083  -0.00370  -0.00108   0.00936

 Mulliken charges:
               1
     1  C   -0.106469
     2  C    0.184243
     3  C   -0.086529
     4  C   -0.348997
     5  H    0.320706
     6  H    0.327610
     7  H    0.329166
     8  N   -0.242301
     9  O    0.120681
    10  O    0.036513
    11  C   -0.194895
    12  H    0.377224
    13  C   -0.368878
    14  H    0.425145
    15  Br   0.226781
 Sum of Mulliken charges =   1.00000

 Dipole moment (field-independent basis, Debye):
    X=              2.8683    Y=             -2.6079    Z=             -0.9851  Tot=              3.9999
 Quadrupole moment (field-independent basis, Debye-Ang):
   XX=            -67.7667   YY=            -50.3200   ZZ=            -61.5461
   XY=             -6.5243   XZ=             -3.0734   YZ=              3.3575

 Normal termination of Gaussian 16 at Thu May  2 14:18:27 2024.
