 Gaussian 16, Revision A.03,
 Gaussian 16:  ES64L-G16RevA.03 25-Dec-2016

 --------------------------------------------------------------------
 #p B3LYP/6-311+G** #p TD=(singlets,nstates=30)IOp(6/8=3) IOp(9/40=4)
 --------------------------------------------------------------------

 --------------------------------
 Scan Step 245, Bond Length 1.725
 --------------------------------
 Symbolic Z-matrix:
 Charge =  0 Multiplicity = 1

                         Standard orientation:
 ---------------------------------------------------------------------
 Center     Atomic      Atomic             Coordinates (Angstroms)
 Number     Number       Type             X           Y           Z
 ---------------------------------------------------------------------
      1          6           0        0.000000   -0.000000   -0.788581
      2          1           0        0.000000    0.937260   -1.379931
      3          1           0       -0.000000   -0.937260   -1.379931
      4          8           0        0.000000    0.000000    0.936419
 ---------------------------------------------------------------------

 SCF Done:  E(RB3LYP) =  -114.382244618     A.U. after   11 cycles

 Excitation energies and oscillator strengths:

 Excited State   1:      Singlet-A2     1.5695 eV  789.98 nm  f=0.0000  <S**2>=0.000
       3 -> 27         0.00090
       3 -> 38         0.00061
       3 -> 46         0.00335
       4 -> 27         0.00051
       4 -> 46        -0.00113
       5 ->  9         0.00391
       5 -> 13         0.00110
       5 -> 18         0.00218
       5 -> 23         0.00153
       5 -> 28         0.00180
       5 -> 37         0.00099
       5 -> 44         0.00026
       5 -> 52         0.00024
       6 -> 27        -0.00061
       6 -> 38        -0.00066
       6 -> 46         0.00112
       7 -> 12        -0.00110
       7 -> 16         0.00509
       7 -> 19        -0.00439
       7 -> 22        -0.00101
       7 -> 25        -0.00073
       7 -> 29        -0.00175
       7 -> 33         0.00031
       7 -> 49         0.00012
       7 -> 51         0.00011
       7 -> 53         0.00041
       8 ->  9         0.70967
       8 -> 13        -0.00928
       8 -> 18         0.02123
       8 -> 23        -0.00191
       8 -> 28         0.01072
       8 -> 31         0.00147
       8 -> 37         0.00055
       8 -> 48        -0.00031
       8 -> 52         0.00191
       3 <- 27         0.00033
       3 <- 38         0.00037
       3 <- 46         0.00339
       4 <- 27         0.00092
       4 <- 38         0.00022
       4 <- 46        -0.00090
       5 <- 13        -0.00042
       5 <- 18        -0.00051
       5 <- 23         0.00021
       5 <- 28        -0.00036
       5 <- 31         0.00027
       5 <- 37         0.00057
       6 <- 38        -0.00052
       6 <- 46         0.00084
       7 <- 12         0.00128
       7 <- 16        -0.01043
       7 <- 19         0.00477
       7 <- 22         0.00633
       7 <- 25        -0.00061
       7 <- 29         0.00550
       7 <- 33        -0.00039
       7 <- 35         0.00040
       7 <- 40        -0.00027
       7 <- 42         0.00016
       7 <- 49        -0.00047
       7 <- 53         0.00146
       8 <-  9        -0.06405
       8 <- 18        -0.00726
       8 <- 23        -0.00012
       8 <- 28        -0.00262
       8 <- 31        -0.00074
       8 <- 37        -0.00030
       8 <- 48         0.00012
       8 <- 52         0.00048
 This state for optimization and/or second-order correction.
 Total Energy, E(TD-HF/TD-DFT) =  -114.324567694
 Copying the excited state density for this state as the 1-particle RhoCI density.

 Excited State   2:      Singlet-A1     4.1033 eV  302.15 nm  f=0.0478  <S**2>=0.000
       3 -> 10        -0.01763
       3 -> 11        -0.00609
       3 -> 14         0.00472
       3 -> 15         0.00169
       3 -> 17        -0.00330
       3 -> 20        -0.00390
       3 -> 24         0.00128
       3 -> 26         0.00238
       3 -> 30        -0.00123
       3 -> 32         0.00276
       3 -> 34        -0.00149
       3 -> 36        -0.00116
       3 -> 39         0.00060
       3 -> 43         0.00051
       3 -> 45         0.00061
       3 -> 47         0.00230
       3 -> 50         0.00135
       4 -> 10        -0.00467
       4 -> 11         0.01239
       4 -> 14         0.00305
       4 -> 15        -0.00892
       4 -> 17         0.00268
       4 -> 20         0.00337
       4 -> 21         0.00036
       4 -> 24        -0.00427
       4 -> 26         0.00414
       4 -> 30         0.00079
       4 -> 32        -0.00135
       4 -> 34         0.00111
       4 -> 36         0.00033
       4 -> 41         0.00011
       4 -> 43        -0.00051
       4 -> 45        -0.00082
       4 -> 47        -0.00095
       4 -> 50        -0.00032
       4 -> 54         0.00014
       5 -> 12         0.01275
       5 -> 16         0.00574
       5 -> 19         0.00135
       5 -> 22         0.00741
       5 -> 25        -0.00618
       5 -> 29         0.00021
       5 -> 33        -0.00271
       5 -> 35         0.00278
       5 -> 40        -0.00125
       5 -> 42         0.00082
       5 -> 49         0.00029
       5 -> 51        -0.00078
       6 -> 10         0.21943
       6 -> 11         0.06127
       6 -> 14        -0.06689
       6 -> 15        -0.03503
       6 -> 17        -0.01788
       6 -> 20        -0.00494
       6 -> 21         0.00871
       6 -> 24        -0.01045
       6 -> 26        -0.00468
       6 -> 30        -0.00631
       6 -> 32         0.00229
       6 -> 34        -0.00140
       6 -> 39         0.00111
       6 -> 41        -0.00023
       6 -> 43         0.00086
       6 -> 45         0.00083
       6 -> 47         0.00097
       6 -> 50         0.00071
       6 -> 54        -0.00086
       7 ->  9         0.67996
       7 -> 13        -0.00427
       7 -> 18        -0.01382
       7 -> 23        -0.00166
       7 -> 28         0.00021
       7 -> 31        -0.00322
       7 -> 37         0.00118
       7 -> 44        -0.00100
       7 -> 48         0.00022
       7 -> 52         0.00106
       8 -> 12        -0.00790
       8 -> 16         0.04970
       8 -> 19        -0.02125
       8 -> 22        -0.01826
       8 -> 25        -0.00015
       8 -> 29        -0.00979
       8 -> 33         0.00141
       8 -> 35        -0.00141
       8 -> 40         0.00066
       8 -> 42        -0.00035
       8 -> 49         0.00035
       8 -> 51         0.00018
       8 -> 53        -0.00059
       3 <- 10        -0.01295
       3 <- 11        -0.00486
       3 <- 14         0.00376
       3 <- 15         0.00090
       3 <- 17        -0.00180
       3 <- 20        -0.00311
       3 <- 21        -0.00054
       3 <- 24         0.00062
       3 <- 26         0.00121
       3 <- 30        -0.00071
       3 <- 32         0.00248
       3 <- 34        -0.00085
       3 <- 36        -0.00106
       3 <- 39         0.00056
       3 <- 43         0.00060
       3 <- 45         0.00078
       3 <- 47         0.00234
       3 <- 50         0.00134
       3 <- 54         0.00016
       4 <- 10        -0.00178
       4 <- 11         0.00841
       4 <- 14         0.00190
       4 <- 15        -0.00572
       4 <- 17         0.00150
       4 <- 20         0.00340
       4 <- 21         0.00021
       4 <- 24        -0.00311
       4 <- 26         0.00348
       4 <- 30         0.00010
       4 <- 32        -0.00156
       4 <- 34         0.00095
       4 <- 36         0.00061
       4 <- 43        -0.00048
       4 <- 45        -0.00082
       4 <- 47        -0.00060
       4 <- 50        -0.00018
       4 <- 54         0.00011
       5 <- 12         0.00677
       5 <- 16         0.00338
       5 <- 19         0.00101
       5 <- 22         0.00500
       5 <- 25        -0.00455
       5 <- 29         0.00027
       5 <- 33        -0.00219
       5 <- 35         0.00234
       5 <- 40        -0.00112
       5 <- 42         0.00071
       5 <- 49         0.00027
       5 <- 51        -0.00072
       6 <- 10         0.07148
       6 <- 11         0.02256
       6 <- 14        -0.02935
       6 <- 15        -0.01692
       6 <- 17        -0.00983
       6 <- 20        -0.00412
       6 <- 21         0.00556
       6 <- 24        -0.00668
       6 <- 26        -0.00262
       6 <- 30        -0.00442
       6 <- 32         0.00254
       6 <- 34        -0.00163
       6 <- 36        -0.00044
       6 <- 39         0.00107
       6 <- 41        -0.00018
       6 <- 43         0.00071
       6 <- 45         0.00065
       6 <- 47         0.00057
       6 <- 50         0.00056
       6 <- 54        -0.00076
       7 <-  9        -0.12958
       7 <- 13         0.00517
       7 <- 18        -0.01260
       7 <- 23         0.00194
       7 <- 28        -0.00265
       7 <- 31        -0.00156
       7 <- 37         0.00052
       7 <- 44        -0.00071
       7 <- 48        -0.00032
       7 <- 52         0.00095
       8 <- 12        -0.00259
       8 <- 16         0.02151
       8 <- 19        -0.01084
       8 <- 22        -0.01110
       8 <- 29        -0.00751
       8 <- 33         0.00109
       8 <- 35        -0.00111
       8 <- 40         0.00053
       8 <- 42        -0.00028
       8 <- 49         0.00019
       8 <- 51         0.00015
       8 <- 53        -0.00054

 Excited State   3:      Singlet-B1     4.5491 eV  272.55 nm  f=0.0010  <S**2>=0.000
       3 ->  9        -0.02577
       3 -> 13         0.00119
       3 -> 18        -0.00403
       3 -> 23         0.00141
       3 -> 28        -0.00077
       3 -> 31        -0.00054
       3 -> 44         0.00026
       3 -> 48         0.00091
       3 -> 52         0.00085
       4 ->  9         0.01128
       4 -> 13        -0.00241
       4 -> 18         0.00014
       4 -> 23        -0.00216
       4 -> 28         0.00036
       4 -> 31        -0.00136
       4 -> 37        -0.00034
       4 -> 44         0.00011
       4 -> 48        -0.00082
       4 -> 52        -0.00043
       5 -> 27         0.00016
       5 -> 38         0.00193
       5 -> 46         0.00062
       6 ->  9         0.69727
       6 -> 13        -0.01814
       6 -> 18         0.01522
       6 -> 23        -0.01051
       6 -> 28         0.00370
       6 -> 31         0.00276
       6 -> 37        -0.00186
       6 -> 44        -0.00231
       6 -> 48         0.00373
       6 -> 52         0.00122
       7 -> 10         0.11695
       7 -> 11         0.02545
       7 -> 14        -0.02196
       7 -> 15        -0.00634
       7 -> 17        -0.00904
       7 -> 20         0.00343
       7 -> 21         0.00100
       7 -> 24        -0.00153
       7 -> 26        -0.00217
       7 -> 30        -0.00399
       7 -> 32        -0.00023
       7 -> 34        -0.00089
       7 -> 36         0.00160
       7 -> 39         0.00018
       7 -> 41        -0.00030
       7 -> 43         0.00049
       7 -> 45         0.00026
       7 -> 47         0.00384
       7 -> 50         0.00121
       7 -> 54         0.00017
       8 -> 27         0.00021
       8 -> 46         0.00475
       3 <-  9        -0.00871
       3 <- 13        -0.00082
       3 <- 18        -0.00266
       3 <- 23        -0.00061
       3 <- 28        -0.00044
       3 <- 31        -0.00073
       3 <- 37         0.00014
       3 <- 44        -0.00014
       3 <- 48         0.00104
       3 <- 52         0.00072
       4 <-  9         0.00638
       4 <- 13        -0.00042
       4 <- 18         0.00164
       4 <- 23        -0.00075
       4 <- 28         0.00145
       4 <- 31        -0.00092
       4 <- 37        -0.00022
       4 <- 48        -0.00071
       4 <- 52        -0.00024
       5 <- 27        -0.00040
       5 <- 38         0.00162
       5 <- 46         0.00054
       6 <-  9        -0.03109
       6 <- 13         0.00186
       6 <- 18        -0.00389
       6 <- 23        -0.00012
       6 <- 28        -0.00370
       6 <- 31         0.00069
       6 <- 37        -0.00156
       6 <- 44        -0.00101
       6 <- 48         0.00334
       6 <- 52         0.00029
       7 <- 10        -0.03282
       7 <- 11        -0.01028
       7 <- 14         0.01443
       7 <- 15         0.00957
       7 <- 17         0.00233
       7 <- 20         0.00399
       7 <- 21        -0.00369
       7 <- 24         0.00430
       7 <- 26         0.00170
       7 <- 30         0.00162
       7 <- 32         0.00031
       7 <- 34        -0.00110
       7 <- 36         0.00202
       7 <- 39         0.00054
       7 <- 43         0.00030
       7 <- 47         0.00356
       7 <- 50         0.00122
       7 <- 54         0.00097
       8 <- 27         0.00069
       8 <- 38         0.00016
       8 <- 46         0.00446

 Excited State   4:      Singlet-B2     4.7775 eV  259.51 nm  f=0.0055  <S**2>=0.000
       3 -> 12        -0.00141
       3 -> 16         0.00178
       3 -> 19        -0.00447
       3 -> 22         0.00086
       3 -> 25        -0.00076
       3 -> 29        -0.00310
       3 -> 35         0.00189
       3 -> 40        -0.00167
       3 -> 42         0.00046
       3 -> 49        -0.00344
       3 -> 51         0.00020
       3 -> 53         0.00031
       4 -> 12         0.00046
       4 -> 16        -0.00206
       4 -> 19         0.00042
       4 -> 22         0.00237
       4 -> 25         0.00110
       4 -> 29         0.00125
       4 -> 33        -0.00042
       4 -> 35         0.00050
       4 -> 40         0.00042
       4 -> 49         0.00064
       4 -> 51        -0.00012
       5 -> 10         0.01092
       5 -> 11         0.00283
       5 -> 14        -0.00658
       5 -> 15         0.00412
       5 -> 17        -0.00027
       5 -> 20         0.00213
       5 -> 21         0.00448
       5 -> 24         0.00169
       5 -> 26        -0.00107
       5 -> 30        -0.00198
       5 -> 32        -0.00192
       5 -> 34         0.00067
       5 -> 36        -0.00014
       5 -> 39        -0.00090
       5 -> 41         0.00056
       5 -> 47        -0.00063
       5 -> 50         0.00039
       5 -> 54        -0.00023
       6 -> 12         0.00276
       6 -> 16        -0.00237
       6 -> 19         0.00378
       6 -> 22        -0.00048
       6 -> 25         0.00102
       6 -> 29        -0.00024
       6 -> 35        -0.00170
       6 -> 40         0.00134
       6 -> 42        -0.00063
       6 -> 49         0.00153
       6 -> 53        -0.00043
       7 -> 27        -0.00065
       7 -> 38         0.00055
       7 -> 46         0.00357
       8 -> 10         0.69070
       8 -> 11         0.11828
       8 -> 14        -0.08988
       8 -> 15        -0.03517
       8 -> 17        -0.01618
       8 -> 20         0.00197
       8 -> 21         0.00736
       8 -> 24        -0.00673
       8 -> 26        -0.00527
       8 -> 30        -0.01163
       8 -> 32        -0.00367
       8 -> 34         0.00172
       8 -> 36         0.00064
       8 -> 39        -0.00074
       8 -> 43        -0.00014
       8 -> 45         0.00113
       8 -> 47        -0.00441
       8 -> 50         0.00196
       8 -> 54        -0.00219
       3 <- 12        -0.00050
       3 <- 16         0.00055
       3 <- 19        -0.00214
       3 <- 22         0.00096
       3 <- 25        -0.00068
       3 <- 29        -0.00123
       3 <- 35         0.00137
       3 <- 40        -0.00145
       3 <- 42         0.00036
       3 <- 49        -0.00351
       3 <- 51         0.00019
       3 <- 53         0.00084
       4 <- 16        -0.00202
       4 <- 19         0.00010
       4 <- 22         0.00246
       4 <- 25         0.00068
       4 <- 29         0.00130
       4 <- 33        -0.00046
       4 <- 35         0.00072
       4 <- 40         0.00016
       4 <- 49         0.00047
       5 <- 10        -0.00071
       5 <- 11        -0.00110
       5 <- 14        -0.00073
       5 <- 15         0.00322
       5 <- 17         0.00020
       5 <- 20         0.00074
       5 <- 21         0.00195
       5 <- 24         0.00206
       5 <- 26        -0.00028
       5 <- 30        -0.00044
       5 <- 32        -0.00029
       5 <- 34         0.00011
       5 <- 39        -0.00035
       5 <- 41         0.00059
       5 <- 45         0.00032
       5 <- 47        -0.00058
       5 <- 50         0.00021
       6 <- 12        -0.00034
       6 <- 16         0.00682
       6 <- 19        -0.00330
       6 <- 22        -0.00484
       6 <- 25         0.00090
       6 <- 29        -0.00562
       6 <- 33         0.00039
       6 <- 35        -0.00163
       6 <- 40         0.00137
       6 <- 42        -0.00070
       6 <- 49         0.00188
       6 <- 53        -0.00129
       7 <- 27        -0.00063
       7 <- 38         0.00044
       7 <- 46         0.00302
       8 <- 10        -0.02932
       8 <- 11        -0.00937
       8 <- 14         0.00990
       8 <- 15         0.00277
       8 <- 17         0.00106
       8 <- 20        -0.00286
       8 <- 21        -0.00188
       8 <- 24         0.00161
       8 <- 26         0.00165
       8 <- 32         0.00301
       8 <- 34        -0.00109
       8 <- 36        -0.00056
       8 <- 39         0.00142
       8 <- 41         0.00037
       8 <- 43         0.00049
       8 <- 45         0.00190
       8 <- 47        -0.00350
       8 <- 50         0.00134
       8 <- 54        -0.00058

 Excited State   5:      Singlet-B1     5.7033 eV  217.39 nm  f=0.0079  <S**2>=0.000
       3 ->  9        -0.01141
       3 -> 13         0.00061
       3 -> 18        -0.00288
       3 -> 23         0.00080
       3 -> 28        -0.00314
       3 -> 31        -0.00160
       3 -> 37         0.00010
       3 -> 44         0.00042
       3 -> 48        -0.00257
       4 ->  9        -0.03270
       4 -> 13         0.00622
       4 -> 18         0.00125
       4 -> 23         0.00462
       4 -> 28         0.00166
       4 -> 37         0.00033
       4 -> 44        -0.00047
       4 -> 48         0.00067
       4 -> 52         0.00013
       5 -> 27        -0.00702
       5 -> 38        -0.00320
       5 -> 46         0.00041
       6 ->  9        -0.11915
       6 -> 13        -0.00166
       6 -> 18         0.00192
       6 -> 23        -0.00030
       6 -> 28         0.00330
       6 -> 31        -0.00368
       6 -> 37         0.00205
       6 -> 44         0.00029
       6 -> 48         0.00054
       6 -> 52        -0.00061
       7 -> 10         0.68344
       7 -> 11         0.10130
       7 -> 14        -0.08068
       7 -> 15        -0.04081
       7 -> 17        -0.00985
       7 -> 20        -0.00389
       7 -> 21         0.00383
       7 -> 24        -0.00997
       7 -> 26        -0.00702
       7 -> 30        -0.00698
       7 -> 32        -0.00201
       7 -> 34         0.00395
       7 -> 36        -0.00165
       7 -> 39        -0.00065
       7 -> 43         0.00062
       7 -> 45         0.00095
       7 -> 47         0.00168
       7 -> 50         0.00084
       7 -> 54        -0.00150
       8 -> 27         0.00093
       8 -> 38         0.00026
       8 -> 46         0.00200
       3 <-  9        -0.00247
       3 <- 13         0.00065
       3 <- 18        -0.00116
       3 <- 23         0.00059
       3 <- 28        -0.00201
       3 <- 31        -0.00029
       3 <- 37        -0.00020
       3 <- 44         0.00016
       3 <- 48        -0.00274
       3 <- 52         0.00038
       4 <-  9        -0.01185
       4 <- 13         0.00257
       4 <- 18         0.00046
       4 <- 23         0.00247
       4 <- 28         0.00156
       4 <- 31        -0.00016
       4 <- 37         0.00039
       4 <- 44        -0.00068
       4 <- 48         0.00025
       4 <- 52         0.00011
       5 <- 27        -0.00480
       5 <- 38        -0.00250
       5 <- 46         0.00039
       6 <-  9        -0.02698
       6 <- 18        -0.00375
       6 <- 23         0.00042
       6 <- 28        -0.00059
       6 <- 31        -0.00434
       6 <- 37         0.00183
       6 <- 44         0.00047

 The electronic state is 1-A1.
 Alpha  occ. eigenvalues --  -19.17556 -10.33439  -0.90604  -0.70714  -0.49032
 Alpha  occ. eigenvalues --   -0.40117  -0.31663  -0.28839
 Alpha virt. eigenvalues --   -0.16094  -0.04252   0.00304   0.04064   0.06104
 Alpha virt. eigenvalues --    0.07120   0.12137   0.13791   0.18844   0.21186
 Alpha virt. eigenvalues --    0.23984   0.30319   0.38691   0.40192   0.50800

 Mulliken charges:
               1
     1  C   -0.082364
     2  H    0.187781
     3  H    0.187781
     4  O   -0.293199
 Sum of Mulliken charges =   0.00000

 Dipole moment (field-independent basis, Debye):
    X=             -0.0000    Y=              0.0000    Z=             -3.9993  Tot=              3.9993
 Quadrupole moment (field-independent basis, Debye-Ang):
   XX=            -12.9229   YY=            -11.9724   ZZ=            -10.9440
   XY=              0.0000   XZ=              0.0000   YZ=             -0.0000

 Normal termination of Gaussian 16 at Fri Sep 17 10:53:05 2021.
