 Gaussian 16, Revision A.03,
 Gaussian 16:  ES64L-G16RevA.03 25-Dec-2016

 --------------------------------------------------------------------
 #p B3LYP/6-311+G** #p TD=(singlets,nstates=30)IOp(6/8=3) IOp(9/40=4)
 --------------------------------------------------------------------

 --------------------------------
 Scan Step 267, Bond Length 1.835
 --------------------------------
 Symbolic Z-matrix:
 Charge =  0 Multiplicity = 1

                         Standard orientation:
 ---------------------------------------------------------------------
 Center     Atomic      Atomic             Coordinates (Angstroms)
 Number     Number       Type             X           Y           Z
 ---------------------------------------------------------------------
      1          6           0        0.000000    0.000000   -0.843581
      2          1           0        0.000000    0.937260   -1.434931
      3          1           0       -0.000000   -0.937260   -1.434931
      4          8           0        0.000000   -0.000000    0.991419
 ---------------------------------------------------------------------

 SCF Done:  E(RB3LYP) =  -114.345158902     A.U. after   11 cycles

 Excitation energies and oscillator strengths:

 Excited State   1:      Singlet-A2     1.2838 eV  965.73 nm  f=0.0000  <S**2>=0.000
       3 -> 27         0.00071
       3 -> 38         0.00045
       3 -> 46         0.00334
       4 -> 27         0.00038
       4 -> 46        -0.00096
       5 ->  9         0.00169
       5 -> 13         0.00110
       5 -> 18         0.00170
       5 -> 23         0.00136
       5 -> 28         0.00131
       5 -> 37         0.00074
       5 -> 44         0.00021
       5 -> 52         0.00018
       6 -> 27        -0.00057
       6 -> 38        -0.00056
       6 -> 46         0.00094
       7 -> 12        -0.00128
       7 -> 16         0.00530
       7 -> 19        -0.00469
       7 -> 22        -0.00112
       7 -> 25        -0.00057
       7 -> 29        -0.00191
       7 -> 33         0.00028
       7 -> 49         0.00013
       7 -> 53         0.00038
       8 ->  9         0.71085
       8 -> 13        -0.00680
       8 -> 18         0.02080
       8 -> 23        -0.00096
       8 -> 28         0.01028
       8 -> 31         0.00161
       8 -> 37         0.00049
       8 -> 48        -0.00029
       8 -> 52         0.00186
       3 <- 27         0.00020
       3 <- 38         0.00022
       3 <- 46         0.00337
       4 <- 27         0.00072
       4 <- 38         0.00019
       4 <- 46        -0.00075
       5 <-  9         0.00036
       5 <- 13        -0.00034
       5 <- 18        -0.00038
       5 <- 23         0.00016
       5 <- 28        -0.00028
       5 <- 31         0.00022
       5 <- 37         0.00043
       6 <- 38        -0.00043
       6 <- 46         0.00069
       7 <- 12         0.00181
       7 <- 16        -0.01054
       7 <- 19         0.00558
       7 <- 22         0.00572
       7 <- 25        -0.00063
       7 <- 29         0.00562
       7 <- 33        -0.00035
       7 <- 35         0.00016
       7 <- 40        -0.00011
       7 <- 42        -0.00011
       7 <- 49        -0.00048
       7 <- 53         0.00145
       8 <-  9        -0.07540
       8 <- 13        -0.00043
       8 <- 18        -0.00773
       8 <- 23        -0.00033
       8 <- 28        -0.00275
       8 <- 31        -0.00081
       8 <- 37        -0.00020
       8 <- 48         0.00013
       8 <- 52         0.00044
 This state for optimization and/or second-order correction.
 Total Energy, E(TD-HF/TD-DFT) =  -114.297978545
 Copying the excited state density for this state as the 1-particle RhoCI density.

 Excited State   2:      Singlet-A1     3.3783 eV  367.00 nm  f=0.0310  <S**2>=0.000
       3 -> 10        -0.01464
       3 -> 11        -0.00314
       3 -> 14         0.00145
       3 -> 15         0.00046
       3 -> 17        -0.00307
       3 -> 20        -0.00354
       3 -> 21         0.00044
       3 -> 24         0.00054
       3 -> 26         0.00135
       3 -> 30        -0.00058
       3 -> 32         0.00277
       3 -> 34        -0.00109
       3 -> 36        -0.00099
       3 -> 39        -0.00042
       3 -> 43         0.00052
       3 -> 45        -0.00098
       3 -> 47         0.00231
       3 -> 50         0.00155
       4 -> 10        -0.00165
       4 -> 11         0.01047
       4 -> 14         0.00190
       4 -> 15        -0.00777
       4 -> 17         0.00223
       4 -> 20         0.00216
       4 -> 21         0.00027
       4 -> 24        -0.00381
       4 -> 26         0.00332
       4 -> 30         0.00034
       4 -> 32        -0.00123
       4 -> 34         0.00079
       4 -> 36         0.00013
       4 -> 39        -0.00020
       4 -> 43        -0.00047
       4 -> 45         0.00077
       4 -> 47        -0.00078
       4 -> 50        -0.00027
       4 -> 54         0.00015
       5 -> 12         0.00972
       5 -> 16         0.00277
       5 -> 19         0.00116
       5 -> 22         0.00682
       5 -> 25        -0.00464
       5 -> 29         0.00034
       5 -> 33        -0.00242
       5 -> 35         0.00274
       5 -> 40        -0.00100
       5 -> 42        -0.00098
       5 -> 49         0.00014
       5 -> 51        -0.00085
       6 -> 10         0.25002
       6 -> 11         0.03795
       6 -> 14        -0.04279
       6 -> 15        -0.02340
       6 -> 17        -0.01580
       6 -> 20        -0.00166
       6 -> 21         0.00556
       6 -> 24        -0.00800
       6 -> 26        -0.00323
       6 -> 30        -0.00415
       6 -> 32         0.00400
       6 -> 34        -0.00138
       6 -> 36         0.00049
       6 -> 39        -0.00135
       6 -> 41        -0.00011
       6 -> 43         0.00082
       6 -> 45        -0.00088
       6 -> 47         0.00079
       6 -> 50         0.00056
       6 -> 54        -0.00096
       7 ->  9         0.67602
       7 -> 13        -0.00685
       7 -> 18        -0.01047
       7 -> 23        -0.00260
       7 -> 28         0.00122
       7 -> 31        -0.00328
       7 -> 37         0.00132
       7 -> 44        -0.00096
       7 -> 52         0.00105
       8 -> 12        -0.00752
       8 -> 16         0.03690
       8 -> 19        -0.01855
       8 -> 22        -0.01274
       8 -> 29        -0.00803
       8 -> 33         0.00098
       8 -> 35        -0.00073
       8 -> 40         0.00028
       8 -> 42         0.00026
       8 -> 49         0.00011
       8 -> 51         0.00015
       8 -> 53        -0.00051
       3 <- 10        -0.01152
       3 <- 11        -0.00283
       3 <- 14         0.00122
       3 <- 17        -0.00176
       3 <- 20        -0.00305
       3 <- 26         0.00042
       3 <- 30        -0.00016
       3 <- 32         0.00241
       3 <- 34        -0.00056
       3 <- 36        -0.00099
       3 <- 39        -0.00038
       3 <- 43         0.00057
       3 <- 45        -0.00111
       3 <- 47         0.00232
       3 <- 50         0.00155
       4 <- 11         0.00767
       4 <- 14         0.00147
       4 <- 15        -0.00534
       4 <- 17         0.00135
       4 <- 20         0.00261
       4 <- 21         0.00010
       4 <- 24        -0.00291
       4 <- 26         0.00293
       4 <- 30        -0.00025
       4 <- 32        -0.00130
       4 <- 34         0.00067
       4 <- 36         0.00041
       4 <- 39        -0.00023
       4 <- 43        -0.00042
       4 <- 45         0.00072
       4 <- 47        -0.00047
       4 <- 50        -0.00015
       4 <- 54         0.00012
       5 <- 12         0.00584
       5 <- 16         0.00184
       5 <- 19         0.00093
       5 <- 22         0.00492
       5 <- 25        -0.00362
       5 <- 29         0.00035
       5 <- 33        -0.00202
       5 <- 35         0.00236
       5 <- 40        -0.00091
       5 <- 42        -0.00087
       5 <- 49         0.00014
       5 <- 51        -0.00080
       6 <- 10         0.08553
       6 <- 11         0.01582
       6 <- 14        -0.02080
       6 <- 15        -0.01253
       6 <- 17        -0.00955
       6 <- 20        -0.00234
       6 <- 21         0.00388
       6 <- 24        -0.00531
       6 <- 26        -0.00165
       6 <- 30        -0.00272
       6 <- 32         0.00390
       6 <- 34        -0.00155
       6 <- 39        -0.00122
       6 <- 41        -0.00011
       6 <- 43         0.00068
       6 <- 45        -0.00065
       6 <- 47         0.00045
       6 <- 50         0.00042
       6 <- 54        -0.00088
       7 <-  9        -0.13092
       7 <- 13         0.00340
       7 <- 18        -0.01135
       7 <- 23         0.00081
       7 <- 28        -0.00172
       7 <- 31        -0.00159
       7 <- 37         0.00063
       7 <- 44        -0.00079
       7 <- 48        -0.00042
       7 <- 52         0.00097
       8 <- 12        -0.00310
       8 <- 16         0.01853
       8 <- 19        -0.01073
       8 <- 22        -0.00844
       8 <- 25         0.00013
       8 <- 29        -0.00644
       8 <- 33         0.00078
       8 <- 35        -0.00057
       8 <- 40         0.00022
       8 <- 42         0.00020
       8 <- 51         0.00012
       8 <- 53        -0.00048

 Excited State   3:      Singlet-B2     3.7029 eV  334.83 nm  f=0.0026  <S**2>=0.000
       3 -> 12        -0.00122
       3 -> 16         0.00131
       3 -> 19        -0.00395
       3 -> 22         0.00105
       3 -> 25        -0.00087
       3 -> 29        -0.00262
       3 -> 33         0.00022
       3 -> 35         0.00144
       3 -> 40        -0.00132
       3 -> 42        -0.00051
       3 -> 49        -0.00384
       3 -> 51         0.00017
       3 -> 53         0.00027
       4 -> 12         0.00040
       4 -> 16        -0.00152
       4 -> 19         0.00038
       4 -> 22         0.00181
       4 -> 25         0.00067
       4 -> 29         0.00093
       4 -> 33        -0.00034
       4 -> 35         0.00044
       4 -> 40         0.00029
       4 -> 42         0.00012
       4 -> 49         0.00072
       4 -> 51        -0.00010
       5 -> 10         0.01020
       5 -> 11         0.00137
       5 -> 14        -0.00362
       5 -> 15         0.00326
       5 -> 17        -0.00050
       5 -> 20         0.00199
       5 -> 21         0.00319
       5 -> 24         0.00145
       5 -> 26        -0.00057
       5 -> 30        -0.00210
       5 -> 32        -0.00135
       5 -> 34         0.00029
       5 -> 39         0.00068
       5 -> 41         0.00043
       5 -> 47        -0.00042
       5 -> 50         0.00027
       5 -> 54        -0.00019
       6 -> 12         0.00249
       6 -> 16        -0.00272
       6 -> 19         0.00412
       6 -> 22        -0.00061
       6 -> 25         0.00113
       6 -> 29         0.00011
       6 -> 33        -0.00012
       6 -> 35        -0.00128
       6 -> 40         0.00087
       6 -> 42         0.00066
       6 -> 49         0.00125
       6 -> 53        -0.00045
       7 -> 27        -0.00055
       7 -> 38         0.00036
       7 -> 46         0.00310
       8 -> 10         0.70254
       8 -> 11         0.06233
       8 -> 14        -0.05766
       8 -> 15        -0.02320
       8 -> 17        -0.01648
       8 -> 20         0.00466
       8 -> 21         0.00613
       8 -> 24        -0.00591
       8 -> 26        -0.00453
       8 -> 30        -0.01296
       8 -> 32        -0.00161
       8 -> 34         0.00123
       8 -> 36         0.00138
       8 -> 39         0.00054
       8 -> 41        -0.00016
       8 -> 45        -0.00084
       8 -> 47        -0.00383
       8 -> 50         0.00149
       8 -> 54        -0.00242
       3 <- 12        -0.00043
       3 <- 16         0.00045
       3 <- 19        -0.00195
       3 <- 22         0.00094
       3 <- 25        -0.00078
       3 <- 29        -0.00106
       3 <- 33         0.00022
       3 <- 35         0.00097
       3 <- 40        -0.00114
       3 <- 42        -0.00036
       3 <- 49        -0.00390
       3 <- 51         0.00016
       3 <- 53         0.00074
       4 <- 16        -0.00173
       4 <- 19         0.00018
       4 <- 22         0.00212
       4 <- 25         0.00038
       4 <- 29         0.00114
       4 <- 33        -0.00036
       4 <- 35         0.00063
       4 <- 40         0.00012
       4 <- 49         0.00051
       5 <- 10        -0.00091
       5 <- 11        -0.00069
       5 <- 14        -0.00049
       5 <- 15         0.00256
       5 <- 17         0.00020
       5 <- 20         0.00077
       5 <- 21         0.00167
       5 <- 24         0.00165
       5 <- 26        -0.00013
       5 <- 30        -0.00044
       5 <- 32        -0.00030
       5 <- 39         0.00030
       5 <- 41         0.00046
       5 <- 45        -0.00023
       5 <- 47        -0.00042
       5 <- 50         0.00014
       6 <- 12        -0.00074
       6 <- 16         0.00767
       6 <- 19        -0.00409
       6 <- 22        -0.00515
       6 <- 25         0.00120
       6 <- 29        -0.00605
       6 <- 33         0.00023
       6 <- 35        -0.00112
       6 <- 40         0.00087
       6 <- 42         0.00068
       6 <- 49         0.00173
       6 <- 53        -0.00141
       7 <- 27        -0.00055
       7 <- 38         0.00029
       7 <- 46         0.00267
       8 <- 10        -0.04218
       8 <- 11        -0.00753
       8 <- 14         0.00783
       8 <- 15         0.00226
       8 <- 17         0.00189
       8 <- 20        -0.00321
       8 <- 21        -0.00138
       8 <- 24         0.00154
       8 <- 26         0.00125
       8 <- 30         0.00151
       8 <- 32         0.00289
       8 <- 34        -0.00086
       8 <- 36        -0.00078
       8 <- 39        -0.00112
       8 <- 41         0.00023
       8 <- 43         0.00043
       8 <- 45        -0.00160
       8 <- 47        -0.00316
       8 <- 50         0.00120
       8 <- 54        -0.00065

 Excited State   4:      Singlet-B1     3.8415 eV  322.75 nm  f=0.0002  <S**2>=0.000
       3 ->  9        -0.02302
       3 -> 13         0.00085
       3 -> 18        -0.00374
       3 -> 23         0.00124
       3 -> 28        -0.00100
       3 -> 31        -0.00079
       3 -> 37         0.00015
       3 -> 44         0.00034
       3 -> 48         0.00021
       3 -> 52         0.00071
       4 ->  9         0.00584
       4 -> 13        -0.00142
       4 -> 18         0.00016
       4 -> 23        -0.00130
       4 -> 28         0.00056
       4 -> 31        -0.00116
       4 -> 37        -0.00023
       4 -> 48        -0.00044
       4 -> 52        -0.00029
       5 -> 27        -0.00045
       5 -> 38         0.00136
       5 -> 46         0.00045
       6 ->  9         0.64817
       6 -> 13        -0.01639
       6 -> 18         0.01385
       6 -> 23        -0.00986
       6 -> 28         0.00364
       6 -> 31         0.00193
       6 -> 37        -0.00131
       6 -> 44        -0.00168
       6 -> 48         0.00325
       6 -> 52         0.00089
       7 -> 10         0.28608
       7 -> 11         0.02856
       7 -> 14        -0.02760
       7 -> 15        -0.01003
       7 -> 17        -0.01048
       7 -> 20         0.00387
       7 -> 21         0.00194
       7 -> 24        -0.00345
       7 -> 26        -0.00328
       7 -> 30        -0.00539
       7 -> 32         0.00033
       7 -> 34        -0.00033
       7 -> 36         0.00134
       7 -> 39        -0.00016
       7 -> 41        -0.00018
       7 -> 43         0.00048
       7 -> 45        -0.00069
       7 -> 47         0.00353
       7 -> 50         0.00120
       7 -> 54        -0.00033
       8 -> 27         0.00012
       8 -> 46         0.00432
       3 <-  9        -0.00770
       3 <- 13        -0.00079
       3 <- 18        -0.00249
       3 <- 23        -0.00047
       3 <- 28        -0.00057
       3 <- 31        -0.00077
       3 <- 37         0.00016
       3 <- 48         0.00030
       3 <- 52         0.00069
       4 <-  9         0.00408
       4 <- 13        -0.00018
       4 <- 18         0.00139
       4 <- 23        -0.00047
       4 <- 28         0.00144
       4 <- 31        -0.00083
       4 <- 37        -0.00013
       4 <- 44        -0.00018
       4 <- 48        -0.00042
       4 <- 52        -0.00014
       5 <- 27        -0.00079
       5 <- 38         0.00120
       5 <- 46         0.00040
       6 <-  9        -0.04374
       6 <- 13         0.00220
       6 <- 18        -0.00517
       6 <- 23         0.00028
       6 <- 28        -0.00408
       6 <- 31        -0.00031
       6 <- 37        -0.00101
       6 <- 44        -0.00037
       6 <- 48         0.00296
       6 <- 52        -0.00010
       7 <- 10        -0.05083
       7 <- 11        -0.00917
       7 <- 14         0.01308
       7 <- 15         0.00802
       7 <- 17         0.00318
       7 <- 20         0.00235
       7 <- 21        -0.00331
       7 <- 24         0.00393
       7 <- 26         0.00179
       7 <- 30         0.00215
       7 <- 32         0.00028
       7 <- 34        -0.00081
       7 <- 36         0.00111
       7 <- 39        -0.00058
       7 <- 41         0.00019
       7 <- 43         0.00027
       7 <- 45        -0.00043
       7 <- 47         0.00327
       7 <- 50         0.00134
       7 <- 54         0.00074
       8 <- 27         0.00055
       8 <- 38         0.00010
       8 <- 46         0.00403

 Excited State   5:      Singlet-B1     4.4855 eV  276.41 nm  f=0.0068  <S**2>=0.000
       3 ->  9        -0.00328
       3 -> 18        -0.00177
       3 -> 23         0.00034
       3 -> 28        -0.00245
       3 -> 31        -0.00136
       3 -> 48        -0.00316
       3 -> 52        -0.00023
       4 ->  9        -0.03029
       4 -> 13         0.00600
       4 -> 18         0.00086
       4 -> 23         0.00467
       4 -> 28         0.00099
       4 -> 31         0.00040
       4 -> 37         0.00034
       4 -> 44        -0.00042
       4 -> 48         0.00089
       4 -> 52         0.00017
       5 -> 27        -0.00630
       5 -> 38        -0.00351
       5 -> 46         0.00016
       6 ->  9        -0.28534
       6 -> 13         0.00329
       6 -> 18        -0.00054
       6 -> 23         0.00248
       6 -> 28         0.00260
       6 -> 31        -0.00399
       6 -> 37         0.00246
       6 -> 44         0.00089
       6 -> 48        -0.00057
       6 -> 52        -0.00086
       7 -> 10         0.64265
       7 -> 11         0.04897
       7 -> 14        -0.04807
       7 -> 15        -0.02830
       7 -> 17        -0.00834
       7 -> 20        -0.00231
       7 -> 21         0.00301
       7 -> 24        -0.00887
       7 -> 26        -0.00540
       7 -> 30        -0.00719
       7 -> 32        -0.00122
       7 -> 34         0.00361
       7 -> 36        -0.00138
       7 -> 39         0.00062
       7 -> 43         0.00049
       7 -> 45        -0.00089
       7 -> 47         0.00058
       7 -> 50         0.00024
       7 -> 54        -0.00168
       8 -> 27         0.00059
       8 -> 38         0.00019
       8 -> 46         0.00071
       3 <-  9        -0.00048
       3 <- 13         0.00075
       3 <- 18        -0.00057
       3 <- 23         0.00063
       3 <- 28        -0.00170
       3 <- 37        -0.00025
       3 <- 48        -0.00328
       3 <- 52         0.00020
       4 <-  9        -0.01392
       4 <- 13         0.00285
       4 <- 18         0.00011
       4 <- 23         0.00283
       4 <- 28         0.00093
       4 <- 31         0.00022
       4 <- 37         0.00036
       4 <- 44        -0.00060
       4 <- 48         0.00048
       4 <- 52         0.00014
       5 <- 27        -0.00455
       5 <- 38        -0.00289
       5 <- 46         0.00018
       6 <-  9        -0.02627
       6 <- 13        -0.00034
       6 <- 18        -0.00318
       6 <- 23         0.00062
       6 <- 31        -0.00473
       6 <- 37         0.00233
       6 <- 44         0.00087
       6 <- 52        -0.00129
       7 <- 10        -0.01555

 The electronic state is 1-A1.
 Alpha  occ. eigenvalues --  -19.17742 -10.33963  -0.89173  -0.71459  -0.49251
 Alpha  occ. eigenvalues --   -0.38840  -0.30683  -0.28697
 Alpha virt. eigenvalues --   -0.17218  -0.07435  -0.00063   0.04044   0.06091
 Alpha virt. eigenvalues --    0.06408   0.11754   0.13300   0.18722   0.21003
 Alpha virt. eigenvalues --    0.23946   0.30409   0.38519   0.39560   0.50612

 Mulliken charges:
               1
     1  C   -0.098312
     2  H    0.192435
     3  H    0.192435
     4  O   -0.286557
 Sum of Mulliken charges =  -0.00000

 Dipole moment (field-independent basis, Debye):
    X=             -0.0000    Y=             -0.0000    Z=             -4.1885  Tot=              4.1885
 Quadrupole moment (field-independent basis, Debye-Ang):
   XX=            -13.0443   YY=            -12.0439   ZZ=            -10.6206
   XY=              0.0000   XZ=              0.0000   YZ=              0.0000

 Normal termination of Gaussian 16 at Fri Sep 17 10:53:09 2021.
