 Gaussian 16, Revision C.01,
 Gaussian 16:  ES64L-G16RevC.01  3-Jul-2019

 ---------------------------------------
 #P wB97XD/6-311+G* NoSymm #P Field=Z+77
 ---------------------------------------

 -------
 TitleMe
 -------
 Symbolic Z-matrix:
 Charge =  1 Multiplicity = 1

                          Input orientation:
 ---------------------------------------------------------------------
 Center     Atomic      Atomic             Coordinates (Angstroms)
 Number     Number       Type             X           Y           Z
 ---------------------------------------------------------------------
      1          6           0        0.029500    1.339700    0.068200
      2          6           0        1.434800    1.286700    0.006400
      3          6           0        2.111800    0.051100   -0.005400
      4          6           0        1.445100   -1.137200    0.031200
      5          6           0       -0.687900    0.168200    0.110000
      6          1           0       -0.471300    2.298400    0.078100
      7          1           0        2.027300    2.196500   -0.032200
      8          1           0        1.989700   -2.076400    0.023200
      9          1           0       -1.771600    0.180400    0.158200
     10          7           0        3.586400    0.051000   -0.067500
     11          8           0        4.147100   -1.059700   -0.088100
     12          8           0        4.145000    1.163900   -0.090100
     13          6           0       -0.023600   -1.145800    0.083500
     14          1           0       -0.436700   -1.872500    0.788900
     15         35           0       -0.535900   -1.869700   -1.740800
 ---------------------------------------------------------------------

 SCF Done:  E(RwB97XD) =  -3010.53742560     A.U. after   18 cycles

 Alpha  occ. eigenvalues -- -483.29930 -62.84937 -56.64649 -56.64050 -56.64048
 Alpha  occ. eigenvalues --  -19.45365 -19.45299 -14.84869 -10.57520 -10.56873
 Alpha  occ. eigenvalues --  -10.56612 -10.56407 -10.56182 -10.52420  -9.00731
 Alpha  occ. eigenvalues --   -6.83460  -6.81505  -6.81491  -2.93352  -2.92834
 Alpha  occ. eigenvalues --   -2.92821  -2.91258  -2.91257  -1.49132  -1.32110
 Alpha  occ. eigenvalues --   -1.22007  -1.13315  -1.11131  -1.03260  -1.00486
 Alpha  occ. eigenvalues --   -0.94807  -0.90370  -0.84754  -0.80233  -0.80066
 Alpha  occ. eigenvalues --   -0.79454  -0.77774  -0.75567  -0.75352  -0.71487
 Alpha  occ. eigenvalues --   -0.68750  -0.66973  -0.62826  -0.59306  -0.56584
 Alpha  occ. eigenvalues --   -0.55655  -0.55149  -0.54811  -0.53944
 Alpha virt. eigenvalues --   -0.28882  -0.20795  -0.14793  -0.12712  -0.09392
 Alpha virt. eigenvalues --   -0.06631  -0.06373  -0.05197  -0.03234  -0.03077
 Alpha virt. eigenvalues --   -0.02278  -0.01435  -0.00530  -0.00003   0.01223

 Mulliken charges:
               1
     1  C   -0.563281
     2  C    0.489374
     3  C   -0.707026
     4  C    0.275401
     5  C   -0.021491
     6  H    0.331880
     7  H    0.366177
     8  H    0.371983
     9  H    0.348253
    10  N   -0.108854
    11  O    0.031392
    12  O    0.028553
    13  C   -0.465410
    14  H    0.376931
    15  Br   0.246118
 Sum of Mulliken charges =   1.00000

 Dipole moment (field-independent basis, Debye):
    X=             -1.0168    Y=             -0.8805    Z=             -1.3563  Tot=              1.9102
 Quadrupole moment (field-independent basis, Debye-Ang):
   XX=            -71.5175   YY=            -51.5954   ZZ=            -61.2343
   XY=              1.5156   XZ=              0.4942   YZ=              2.7989

 Normal termination of Gaussian 16 at Wed May  1 15:26:09 2024.
