 Gaussian 16, Revision A.03,
 Gaussian 16:  ES64L-G16RevA.03 25-Dec-2016

 --------------------------------------------------------------------
 #p B3LYP/6-311+G** #p TD=(singlets,nstates=30)IOp(6/8=3) IOp(9/40=4)
 --------------------------------------------------------------------

 ------------------------------
 Scan Step 72, Bond Length 0.86
 ------------------------------
 Symbolic Z-matrix:
 Charge =  0 Multiplicity = 1

                         Standard orientation:
 ---------------------------------------------------------------------
 Center     Atomic      Atomic             Coordinates (Angstroms)
 Number     Number       Type             X           Y           Z
 ---------------------------------------------------------------------
      1          6           0        0.000000    0.000000   -0.356081
      2          1           0        0.000000    0.937260   -0.947431
      3          1           0       -0.000000   -0.937260   -0.947431
      4          8           0        0.000000    0.000000    0.503919
 ---------------------------------------------------------------------

 SCF Done:  E(RB3LYP) =  -114.113845730     A.U. after    9 cycles

 Excitation energies and oscillator strengths:

 Excited State   1:      Singlet-A2     5.5622 eV  222.90 nm  f=0.0000  <S**2>=0.000
       3 -> 27         0.00271
       3 -> 35         0.00207
       3 -> 46         0.00105
       4 -> 10         0.00603
       4 -> 13         0.00803
       4 -> 17         0.00588
       4 -> 22        -0.00347
       4 -> 28         0.00290
       4 -> 32         0.00151
       4 -> 37         0.00322
       4 -> 43         0.00046
       4 -> 52         0.00064
       5 -> 27         0.00358
       5 -> 35        -0.00067
       5 -> 46        -0.00059
       6 -> 11        -0.00053
       6 -> 16        -0.00073
       6 -> 18        -0.00042
       6 -> 23         0.00166
       6 -> 24         0.00032
       6 -> 29        -0.00029
       6 -> 33         0.00023
       6 -> 36         0.00051
       6 -> 42         0.00050
       6 -> 47         0.00062
       6 -> 50        -0.00018
       6 -> 53         0.00024
       7 -> 27         0.00100
       7 -> 35        -0.00020
       7 -> 46         0.00103
       8 -> 10         0.69706
       8 -> 13         0.11452
       8 -> 17         0.03068
       8 -> 22        -0.00567
       8 -> 28         0.00466
       8 -> 32         0.00336
       8 -> 37        -0.00240
       8 -> 43        -0.00015
       8 -> 52         0.00082
       3 <- 27         0.00203
       3 <- 35         0.00178
       3 <- 46         0.00108
       4 <- 10         0.00024
       4 <- 13         0.00115
       4 <- 17         0.00020
       4 <- 22         0.00016
       4 <- 32        -0.00104
       4 <- 37         0.00149
       4 <- 43         0.00042
       4 <- 52         0.00016
       5 <- 27         0.00396
       5 <- 35        -0.00052
       5 <- 46        -0.00059
       6 <- 11        -0.00090
       6 <- 16         0.00143
       6 <- 18        -0.00295
       6 <- 23         0.00398
       6 <- 24        -0.00169
       6 <- 29         0.00161
       6 <- 33        -0.00077
       6 <- 36         0.00174
       6 <- 40        -0.00012
       6 <- 42         0.00080
       6 <- 47         0.00049
       6 <- 53         0.00064
       7 <- 27         0.00105
       7 <- 35        -0.00026
       7 <- 46         0.00084
       8 <- 10        -0.00657
       8 <- 13        -0.00863
       8 <- 17        -0.00440
       8 <- 22         0.00041
       8 <- 28        -0.00039
       8 <- 32         0.00291
       8 <- 37        -0.00221
       8 <- 52         0.00026
 This state for optimization and/or second-order correction.
 Total Energy, E(TD-HF/TD-DFT) =  -113.909438364
 Copying the excited state density for this state as the 1-particle RhoCI density.

 Excited State   2:      Singlet-B2     5.7602 eV  215.24 nm  f=0.0913  <S**2>=0.000
       3 -> 11         0.00086
       3 -> 16         0.00030
       3 -> 18         0.00097
       3 -> 24         0.00111
       3 -> 29        -0.00020
       3 -> 42         0.00015
       3 -> 50        -0.00015
       4 ->  9         0.00195
       4 -> 12         0.00621
       4 -> 14         0.00506
       4 -> 15         0.00162
       4 -> 19         0.00371
       4 -> 20         0.00134
       4 -> 21         0.00267
       4 -> 25         0.00130
       4 -> 26        -0.00108
       4 -> 30        -0.00206
       4 -> 31         0.00041
       4 -> 34         0.00040
       4 -> 38        -0.00081
       4 -> 39         0.00012
       4 -> 41         0.00046
       4 -> 44         0.00042
       4 -> 45        -0.00058
       4 -> 48         0.00038
       5 -> 11        -0.00655
       5 -> 16         0.00130
       5 -> 18         0.00109
       5 -> 23        -0.00232
       5 -> 24         0.00410
       5 -> 29        -0.00066
       5 -> 33        -0.00104
       5 -> 36         0.00087
       5 -> 40        -0.00014
       5 -> 42         0.00044
       6 -> 27         0.00112
       6 -> 35         0.00032
       6 -> 46         0.00087
       7 -> 11         0.00263
       7 -> 16         0.00343
       7 -> 18         0.00352
       7 -> 23        -0.00200
       7 -> 24         0.00250
       7 -> 29         0.00014
       7 -> 36        -0.00024
       7 -> 42        -0.00037
       7 -> 47         0.00041
       7 -> 50         0.00048
       8 ->  9         0.70624
       8 -> 12         0.01077
       8 -> 14        -0.02308
       8 -> 15         0.01132
       8 -> 19         0.02051
       8 -> 20        -0.00757
       8 -> 21        -0.00817
       8 -> 25         0.00063
       8 -> 26        -0.00046
       8 -> 31         0.00297
       8 -> 34         0.00147
       8 -> 38         0.00090
       8 -> 39        -0.00051
       8 -> 41        -0.00045
       8 -> 44        -0.00019
       8 -> 45        -0.00107
       8 -> 48         0.00035
       8 -> 54        -0.00014
       3 <- 11         0.00029
       3 <- 18         0.00060
       3 <- 24         0.00082
       3 <- 29        -0.00018
       3 <- 42         0.00013
       3 <- 53         0.00011
       4 <-  9         0.00199
       4 <- 12        -0.00013
       4 <- 14         0.00402
       4 <- 15         0.00178
       4 <- 19         0.00093
       4 <- 20         0.00050
       4 <- 21         0.00170
       4 <- 25         0.00163
       4 <- 26        -0.00125
       4 <- 30        -0.00076
       4 <- 34         0.00018
       4 <- 38        -0.00052
       4 <- 39         0.00016
       4 <- 41         0.00044
       4 <- 44         0.00029
       4 <- 45        -0.00053
       4 <- 48         0.00032
       5 <- 11        -0.00022
       5 <- 16         0.00125
       5 <- 18         0.00223
       5 <- 23        -0.00135
       5 <- 24         0.00316
       5 <- 29        -0.00053
       5 <- 33        -0.00079
       5 <- 36         0.00066
       5 <- 40        -0.00018
       5 <- 42         0.00020
       6 <- 27         0.00088
       6 <- 35         0.00025
       6 <- 46         0.00073
       7 <- 11         0.00070
       7 <- 16         0.00214
       7 <- 18         0.00117
       7 <- 23        -0.00081
       7 <- 24         0.00117
       7 <- 29         0.00076
       7 <- 42        -0.00032
       7 <- 47         0.00039
       7 <- 50         0.00055
       8 <-  9        -0.00475
       8 <- 12         0.00243
       8 <- 14        -0.01374
       8 <- 15        -0.00250
       8 <- 19        -0.00117
       8 <- 20         0.00022
       8 <- 21        -0.00433
       8 <- 25        -0.00313
       8 <- 26        -0.00065
       8 <- 30         0.00048
       8 <- 31         0.00161
       8 <- 34         0.00153
       8 <- 38         0.00089
       8 <- 39        -0.00042
       8 <- 41        -0.00030
       8 <- 44        -0.00026
       8 <- 45        -0.00079
       8 <- 48         0.00032

 Excited State   3:      Singlet-B2     6.5580 eV  189.06 nm  f=0.0234  <S**2>=0.000
       3 -> 11         0.00011
       3 -> 16        -0.00063
       3 -> 23        -0.00019
       3 -> 24        -0.00044
       3 -> 29        -0.00088
       3 -> 33        -0.00014
       3 -> 36         0.00028
       3 -> 42         0.00030
       3 -> 47        -0.00019
       3 -> 50        -0.00020
       3 -> 53         0.00011
       4 ->  9         0.00460
       4 -> 14        -0.00267
       4 -> 15        -0.00434
       4 -> 19         0.00304
       4 -> 20        -0.00048
       4 -> 21        -0.00141
       4 -> 25        -0.00091
       4 -> 26        -0.00118
       4 -> 30         0.00074
       4 -> 31         0.00219
       4 -> 34         0.00039
       4 -> 39         0.00082
       4 -> 41         0.00063
       4 -> 45        -0.00061
       4 -> 48         0.00040
       4 -> 51         0.00020
       5 -> 11        -0.00253
       5 -> 16        -0.00462
       5 -> 18        -0.00125
       5 -> 23         0.00131
       5 -> 24        -0.00374
       5 -> 29         0.00128
       5 -> 33        -0.00055
       5 -> 40         0.00027
       5 -> 47        -0.00012
       6 -> 27         0.00089
       6 -> 35         0.00134
       6 -> 46         0.00101
       7 -> 11         0.00289
       7 -> 16         0.00031
       7 -> 18         0.00239
       7 -> 23        -0.00127
       7 -> 24         0.00051
       7 -> 29         0.00010
       7 -> 33         0.00023
       7 -> 36        -0.00116
       7 -> 40         0.00030
       7 -> 42        -0.00062
       7 -> 47         0.00066
       7 -> 50         0.00056
       7 -> 53        -0.00017
       8 ->  9        -0.01102
       8 -> 12         0.70597
       8 -> 14         0.01877
       8 -> 15         0.02418
       8 -> 19         0.01618
       8 -> 20         0.01526
       8 -> 21         0.00328
       8 -> 25        -0.00042
       8 -> 26         0.00056
       8 -> 30        -0.00179
       8 -> 31        -0.00057
       8 -> 34        -0.00037
       8 -> 38         0.00013
       8 -> 39         0.00086
       8 -> 41         0.00120
       8 -> 44        -0.00011
       8 -> 45        -0.00068
       8 -> 48         0.00056
       8 -> 54        -0.00016
       3 <- 11        -0.00021
       3 <- 16        -0.00060
       3 <- 18        -0.00018
       3 <- 24        -0.00049
       3 <- 29        -0.00059
       3 <- 33        -0.00017
       3 <- 36         0.00031
       3 <- 42         0.00026
       3 <- 47        -0.00015
       3 <- 50        -0.00011
       3 <- 53         0.00021
       4 <-  9        -0.00136
       4 <- 12        -0.00019
       4 <- 14        -0.00176
       4 <- 15        -0.00060
       4 <- 19        -0.00064
       4 <- 20         0.00032
       4 <- 21        -0.00102
       4 <- 25        -0.00093
       4 <- 26        -0.00094
       4 <- 30         0.00088
       4 <- 31         0.00089
       4 <- 34         0.00092
       4 <- 39         0.00060
       4 <- 41         0.00064
       4 <- 45        -0.00063
       4 <- 48         0.00027
       4 <- 51         0.00019
       5 <- 11        -0.00021
       5 <- 16        -0.00090
       5 <- 18        -0.00108
       5 <- 23         0.00124
       5 <- 24        -0.00190
       5 <- 29         0.00058
       5 <- 33        -0.00058
       5 <- 36        -0.00022
       5 <- 40         0.00027
       5 <- 50        -0.00018
       6 <- 27         0.00043
       6 <- 35         0.00111
       6 <- 46         0.00088
       7 <- 11         0.00037
       7 <- 16         0.00043
       7 <- 18         0.00020
       7 <- 23        -0.00024
       7 <- 29         0.00041
       7 <- 36        -0.00079
       7 <- 40         0.00024
       7 <- 42        -0.00043
       7 <- 47         0.00058
       7 <- 50         0.00053
       8 <-  9         0.00226
       8 <- 12         0.00137
       8 <- 14         0.00714
       8 <- 15         0.00181
       8 <- 19        -0.00183
       8 <- 20        -0.00213
       8 <- 21         0.00281
       8 <- 25         0.00047
       8 <- 26        -0.00072
       8 <- 30        -0.00127
       8 <- 31        -0.00112
       8 <- 38         0.00030
       8 <- 39         0.00061
       8 <- 41         0.00101
       8 <- 45        -0.00058
       8 <- 48         0.00035
       8 <- 51         0.00012

 Excited State   4:      Singlet-A1     6.6957 eV  185.17 nm  f=0.0380  <S**2>=0.000
       3 ->  9         0.00128
       3 -> 12         0.00077
       3 -> 15         0.00060
       3 -> 19         0.00133
       3 -> 20        -0.00027
       3 -> 21        -0.00036
       3 -> 25         0.00029
       3 -> 30        -0.00102
       3 -> 31        -0.00021
       3 -> 34        -0.00022
       3 -> 38        -0.00034
       3 -> 39        -0.00027
       3 -> 41        -0.00011
       3 -> 48        -0.00014
       3 -> 51        -0.00027
       3 -> 54         0.00020
       4 -> 11         0.00736
       4 -> 16         0.00813
       4 -> 18         0.00636
       4 -> 23         0.00101
       4 -> 24         0.00398
       4 -> 29         0.00068
       4 -> 33        -0.00015
       4 -> 36         0.00097
       4 -> 42        -0.00025
       4 -> 50        -0.00035
       4 -> 53        -0.00012
       5 ->  9         0.00572
       5 -> 12        -0.01076
       5 -> 14         0.00622
       5 -> 15         0.00244
       5 -> 19         0.00130
       5 -> 20        -0.00679
       5 -> 21         0.00181
       5 -> 25         0.00679
       5 -> 26        -0.00094
       5 -> 30         0.00086
       5 -> 31        -0.00081
       5 -> 34        -0.00110
       5 -> 38        -0.00037
       5 -> 39         0.00096
       5 -> 41         0.00011
       5 -> 44         0.00018
       5 -> 45        -0.00031
       5 -> 48        -0.00030
       6 -> 10         0.00693
       6 -> 13        -0.00300
       6 -> 17         0.00507
       6 -> 22         0.00392
       6 -> 28         0.00079
       6 -> 32         0.00091
       6 -> 37         0.00054
       6 -> 43         0.00045
       6 -> 49        -0.00036
       7 ->  9         0.01294
       7 -> 12         0.00549
       7 -> 14         0.00248
       7 -> 15        -0.00105
       7 -> 19         0.00821
       7 -> 20        -0.00248
       7 -> 21         0.00072
       7 -> 25         0.00185
       7 -> 26         0.00019
       7 -> 30        -0.00031
       7 -> 31         0.00069
       7 -> 34        -0.00096
       7 -> 38        -0.00011
       7 -> 39         0.00024
       7 -> 48        -0.00022
       7 -> 51         0.00041
       8 -> 11         0.70540
       8 -> 16         0.04336
       8 -> 18        -0.00519
       8 -> 23         0.00294
       8 -> 24         0.00177
       8 -> 29         0.00356
       8 -> 33         0.00157
       8 -> 36        -0.00262
       8 -> 40         0.00015
       8 -> 42         0.00148
       8 -> 47        -0.00049
       8 -> 53        -0.00011
       3 <-  9         0.00057
       3 <- 12         0.00031
       3 <- 15         0.00031
       3 <- 19         0.00076
       3 <- 21        -0.00014
       3 <- 25         0.00032
       3 <- 30        -0.00061
       3 <- 31        -0.00018
       3 <- 34        -0.00019
       3 <- 38        -0.00025
       3 <- 39        -0.00023
       3 <- 41        -0.00012
       3 <- 48        -0.00016
       3 <- 51        -0.00023
       3 <- 54         0.00018
       4 <- 11         0.00261
       4 <- 16         0.00258
       4 <- 18         0.00322
       4 <- 23         0.00093
       4 <- 24         0.00214
       4 <- 29         0.00025
       4 <- 33        -0.00027
       4 <- 36         0.00083
       4 <- 42        -0.00021
       4 <- 50        -0.00029
       4 <- 53        -0.00011
       5 <-  9         0.00597
       5 <- 12        -0.00401
       5 <- 14         0.00469
       5 <- 15         0.00226
       5 <- 19         0.00093
       5 <- 20        -0.00383
       5 <- 21         0.00044
       5 <- 25         0.00419
       5 <- 26        -0.00043
       5 <- 30         0.00020
       5 <- 31        -0.00101
       5 <- 34        -0.00089
       5 <- 38        -0.00047
       5 <- 39         0.00078
       5 <- 44         0.00024
       5 <- 45        -0.00027
       5 <- 48        -0.00024
       6 <- 10         0.00267
       6 <- 13        -0.00127
       6 <- 17         0.00243
       6 <- 22         0.00239
       6 <- 28         0.00050
       6 <- 32         0.00070
       6 <- 37         0.00044
       6 <- 43         0.00038
       6 <- 49        -0.00032
       7 <-  9         0.00455
       7 <- 12         0.00142
       7 <- 14         0.00119
       7 <- 15        -0.00039
       7 <- 19         0.00362
       7 <- 20        -0.00150
       7 <- 21         0.00018
       7 <- 25         0.00113
       7 <- 30        -0.00035
       7 <- 31         0.00043
       7 <- 34        -0.00067
       7 <- 38        -0.00016
       7 <- 39         0.00030
       7 <- 45        -0.00012
       7 <- 48        -0.00011
       7 <- 51         0.00038
       8 <- 11        -0.00413
       8 <- 16         0.00523
       8 <- 18        -0.01148
       8 <- 23        -0.00126
       8 <- 24        -0.00176
       8 <- 29         0.00191
       8 <- 33         0.00123
       8 <- 36        -0.00189
       8 <- 42         0.00120
       8 <- 47        -0.00055
       8 <- 53        -0.00012

 Excited State   5:      Singlet-A2     7.5949 eV  163.25 nm  f=0.0000  <S**2>=0.000
       3 -> 27         0.00199
       3 -> 35         0.00160
       3 -> 46         0.00075
       4 -> 10         0.00733
       4 -> 13         0.00907
       4 -> 17        -0.00153
       4 -> 22        -0.00190
       4 -> 28         0.00044
       4 -> 32         0.00221
       4 -> 37         0.00274
       4 -> 43         0.00032
       4 -> 49        -0.00011
       4 -> 52         0.00045
       5 -> 27         0.00133
       5 -> 35        -0.00079
       5 -> 46        -0.00026
       6 -> 11         0.00014
       6 -> 16        -0.00190
       6 -> 18        -0.00035
       6 -> 23         0.00146
       6 -> 24         0.00012
       6 -> 29        -0.00038
       6 -> 33         0.00010
       6 -> 36         0.00042
       6 -> 42         0.00043
       6 -> 47         0.00042
       6 -> 53         0.00019
       7 -> 27         0.00034
       7 -> 35        -0.00018
       7 -> 46         0.00081
       8 -> 10        -0.11529
       8 -> 13         0.69708
       8 -> 17         0.01126
       8 -> 22        -0.02369
       8 -> 28         0.00233
       8 -> 32         0.00182
       8 -> 37        -0.00144
       8 -> 43        -0.00017
       8 -> 49        -0.00014
       8 -> 52         0.00049
       3 <- 27         0.00125
       3 <- 35         0.00131
       3 <- 46         0.00085
       4 <- 10         0.00033
       4 <- 13         0.00043
       4 <- 17        -0.00042
       4 <- 32        -0.00038
       4 <- 37         0.00092
       4 <- 43         0.00027
       4 <- 52         0.00014
       5 <- 27         0.00190
       5 <- 35        -0.00014
       5 <- 46        -0.00032
       6 <- 11         0.00038
       6 <- 16        -0.00044
       6 <- 18        -0.00087
       6 <- 23         0.00275
       6 <- 24        -0.00076
       6 <- 29         0.00016
       6 <- 33        -0.00076
       6 <- 36         0.00143
       6 <- 42         0.00078
       6 <- 47         0.00020
       6 <- 53         0.00041
       7 <- 27         0.00056
       7 <- 35        -0.00027
       7 <- 46         0.00043
       8 <- 10        -0.00719
       8 <- 13        -0.00219
       8 <- 17        -0.00130
       8 <- 22         0.00060
       8 <- 28        -0.00030
       8 <- 32         0.00147
       8 <- 37        -0.00122
       8 <- 52         0.00019

 Excited State   6:      Singlet-B2     9.8122 eV  126.36 nm  f=0.2351  <S**2>=0.000
       3 -> 11        -0.00040
       3 -> 16         0.00125
       3 -> 18        -0.00085
       3 -> 23         0.00095

 The electronic state is 1-A1.
 Alpha  occ. eigenvalues --  -19.13976 -10.23680  -1.28763  -0.62900  -0.59111
 Alpha  occ. eigenvalues --   -0.58327  -0.52715  -0.23626
 Alpha virt. eigenvalues --    0.01385   0.01967   0.04428   0.04434   0.09701
 Alpha virt. eigenvalues --    0.14282   0.17704   0.20225   0.21834   0.23694
 Alpha virt. eigenvalues --    0.25823   0.36432   0.50272   0.53174   0.54314

 Mulliken charges:
               1
     1  C    0.246111
     2  H   -0.012199
     3  H   -0.012199
     4  O   -0.221714
 Sum of Mulliken charges =   0.00000

 Dipole moment (field-independent basis, Debye):
    X=              0.0000    Y=              0.0000    Z=             -0.3008  Tot=              0.3008
 Quadrupole moment (field-independent basis, Debye-Ang):
   XX=            -10.7007   YY=            -12.4819   ZZ=            -13.2828
   XY=             -0.0000   XZ=             -0.0000   YZ=              0.0000

 Normal termination of Gaussian 16 at Fri Sep 17 10:52:31 2021.
