 Gaussian 16, Revision C.01,
 Gaussian 16:  ES64L-G16RevC.01  3-Jul-2019

 --------------------------------------
 #P wB97XD/6-311+G* NoSymm #P Field=Y-9
 --------------------------------------

 -------
 TitleMe
 -------
 Symbolic Z-matrix:
 Charge =  1 Multiplicity = 1

                          Input orientation:
 ---------------------------------------------------------------------
 Center     Atomic      Atomic             Coordinates (Angstroms)
 Number     Number       Type             X           Y           Z
 ---------------------------------------------------------------------
      1          6           0        0.029500    1.339700    0.068200
      2          6           0        1.434800    1.286700    0.006400
      3          6           0        2.111800    0.051100   -0.005400
      4          6           0        1.445100   -1.137200    0.031200
      5          6           0       -0.687900    0.168200    0.110000
      6          1           0       -0.471300    2.298400    0.078100
      7          1           0        2.027300    2.196500   -0.032200
      8          1           0        1.989700   -2.076400    0.023200
      9          1           0       -1.771600    0.180400    0.158200
     10          7           0        3.586400    0.051000   -0.067500
     11          8           0        4.147100   -1.059700   -0.088100
     12          8           0        4.145000    1.163900   -0.090100
     13          6           0       -0.023600   -1.145800    0.083500
     14          1           0       -0.436700   -1.872500    0.788900
     15         35           0       -0.535900   -1.869700   -1.740800
 ---------------------------------------------------------------------

 SCF Done:  E(RwB97XD) =  -3010.53518120     A.U. after   16 cycles

 Alpha  occ. eigenvalues -- -483.31218 -62.86246 -56.65934 -56.65369 -56.65366
 Alpha  occ. eigenvalues --  -19.45694 -19.45605 -14.85189 -10.58218 -10.57288
 Alpha  occ. eigenvalues --  -10.57010 -10.56833 -10.56529 -10.52689  -9.02055
 Alpha  occ. eigenvalues --   -6.84719  -6.82867  -6.82853  -2.94627  -2.94135
 Alpha  occ. eigenvalues --   -2.94122  -2.92641  -2.92640  -1.49450  -1.32425
 Alpha  occ. eigenvalues --   -1.22461  -1.13915  -1.11543  -1.04322  -1.00837
 Alpha  occ. eigenvalues --   -0.95276  -0.90751  -0.85072  -0.80554  -0.80442
 Alpha  occ. eigenvalues --   -0.79794  -0.78122  -0.75899  -0.75707  -0.72125
 Alpha  occ. eigenvalues --   -0.69140  -0.67335  -0.63496  -0.59994  -0.56977
 Alpha  occ. eigenvalues --   -0.56385  -0.55954  -0.55429  -0.55144
 Alpha virt. eigenvalues --   -0.29452  -0.21119  -0.15503  -0.13203  -0.08602
 Alpha virt. eigenvalues --   -0.05872  -0.05449  -0.04650  -0.04541  -0.03062
 Alpha virt. eigenvalues --   -0.02404  -0.02098  -0.01388  -0.00979   0.00328

 Mulliken charges:
               1
     1  C   -0.575666
     2  C    0.512670
     3  C   -0.711797
     4  C    0.284200
     5  C    0.006866
     6  H    0.337643
     7  H    0.369570
     8  H    0.370734
     9  H    0.351054
    10  N   -0.107223
    11  O    0.026494
    12  O    0.033071
    13  C   -0.468357
    14  H    0.401654
    15  Br   0.169086
 Sum of Mulliken charges =   1.00000

 Dipole moment (field-independent basis, Debye):
    X=             -0.7983    Y=             -0.3279    Z=              0.0139  Tot=              0.8632
 Quadrupole moment (field-independent basis, Debye-Ang):
   XX=            -71.1998   YY=            -52.1058   ZZ=            -62.6946
   XY=              1.5885   XZ=              1.0820   YZ=              1.5433

 Normal termination of Gaussian 16 at Wed May  1 15:04:38 2024.
