 Gaussian 16, Revision C.01,
 Gaussian 16:  ES64L-G16RevC.01  3-Jul-2019

 ---------------------------------------
 #P wB97XD/6-311+G* NoSymm #P Field=X+58
 ---------------------------------------

 -------
 TitleMe
 -------
 Symbolic Z-matrix:
 Charge =  1 Multiplicity = 1

                          Input orientation:
 ---------------------------------------------------------------------
 Center     Atomic      Atomic             Coordinates (Angstroms)
 Number     Number       Type             X           Y           Z
 ---------------------------------------------------------------------
      1          6           0        0.029500    1.339700    0.068200
      2          6           0        1.434800    1.286700    0.006400
      3          6           0        2.111800    0.051100   -0.005400
      4          6           0        1.445100   -1.137200    0.031200
      5          6           0       -0.687900    0.168200    0.110000
      6          1           0       -0.471300    2.298400    0.078100
      7          1           0        2.027300    2.196500   -0.032200
      8          1           0        1.989700   -2.076400    0.023200
      9          1           0       -1.771600    0.180400    0.158200
     10          7           0        3.586400    0.051000   -0.067500
     11          8           0        4.147100   -1.059700   -0.088100
     12          8           0        4.145000    1.163900   -0.090100
     13          6           0       -0.023600   -1.145800    0.083500
     14          1           0       -0.436700   -1.872500    0.788900
     15         35           0       -0.535900   -1.869700   -1.740800
 ---------------------------------------------------------------------

 SCF Done:  E(RwB97XD) =  -3010.53921252     A.U. after   18 cycles

 Alpha  occ. eigenvalues -- -483.31473 -62.86490 -56.66190 -56.65609 -56.65605
 Alpha  occ. eigenvalues --  -19.48652 -19.48576 -14.88072 -10.58576 -10.58400
 Alpha  occ. eigenvalues --  -10.58255 -10.57963 -10.57132 -10.53290  -9.02291
 Alpha  occ. eigenvalues --   -6.84986  -6.83087  -6.83069  -2.94886  -2.94383
 Alpha  occ. eigenvalues --   -2.94367  -2.92848  -2.92848  -1.52402  -1.35413
 Alpha  occ. eigenvalues --   -1.23403  -1.14928  -1.12396  -1.04854  -1.02395
 Alpha  occ. eigenvalues --   -0.96082  -0.91869  -0.86918  -0.82539  -0.82240
 Alpha  occ. eigenvalues --   -0.81859  -0.78861  -0.78438  -0.76520  -0.72908
 Alpha  occ. eigenvalues --   -0.69782  -0.68135  -0.64359  -0.60688  -0.59875
 Alpha  occ. eigenvalues --   -0.59128  -0.58493  -0.56492  -0.55544
 Alpha virt. eigenvalues --   -0.30137  -0.23352  -0.16093  -0.14388  -0.09257
 Alpha virt. eigenvalues --   -0.06724  -0.06316  -0.05394  -0.05171  -0.03670
 Alpha virt. eigenvalues --   -0.03142  -0.02554  -0.01858  -0.00754   0.00059

 Mulliken charges:
               1
     1  C   -0.592263
     2  C    0.537756
     3  C   -0.732395
     4  C    0.258877
     5  C    0.022360
     6  H    0.345970
     7  H    0.355757
     8  H    0.365233
     9  H    0.376327
    10  N   -0.104821
    11  O    0.005083
    12  O    0.001846
    13  C   -0.460294
    14  H    0.413539
    15  Br   0.207026
 Sum of Mulliken charges =   1.00000

 Dipole moment (field-independent basis, Debye):
    X=             -2.5653    Y=             -0.7847    Z=             -0.1631  Tot=              2.6875
 Quadrupole moment (field-independent basis, Debye-Ang):
   XX=            -75.3514   YY=            -51.8096   ZZ=            -62.2006
   XY=              1.5711   XZ=              1.5557   YZ=              2.0655

 Normal termination of Gaussian 16 at Wed May  1 14:45:33 2024.
