 Gaussian 16, Revision C.01,
 Gaussian 16:  ES64L-G16RevC.01  3-Jul-2019

 ----------------------------------------
 #P wB97XD/6-311+G* NoSymm #P Field=X-262
 ----------------------------------------

 -------
 TitleMe
 -------
 Symbolic Z-matrix:
 Charge =  1 Multiplicity = 1

                          Input orientation:
 ---------------------------------------------------------------------
 Center     Atomic      Atomic             Coordinates (Angstroms)
 Number     Number       Type             X           Y           Z
 ---------------------------------------------------------------------
      1          6           0        0.519300    1.233000   -0.031900
      2          6           0        1.944500    1.269200   -0.036700
      3          6           0        2.620400    0.092800   -0.025000
      4          6           0       -0.196000    0.030100    0.001000
      5          1           0       -0.020700    2.174200   -0.043400
      6          1           0        2.482800    2.208900   -0.036100
      7          1           0       -1.277700    0.039900    0.011700
      8          7           0        4.092100    0.095900    0.036600
      9          8           0        4.639300   -1.021700    0.144600
     10          8           0        4.664900    1.198400   -0.023300
     11          6           0        0.494300   -1.167100    0.021000
     12          1           0       -0.032500   -2.114900    0.054500
     13          6           0        1.962900   -1.216500   -0.021100
     14          1           0        2.443600   -1.963100    0.615100
     15         35           0        2.173000   -1.949100   -1.906200
 ---------------------------------------------------------------------

 SCF Done:  E(RwB97XD) =  -3010.59965565     A.U. after   27 cycles

 Alpha  occ. eigenvalues -- -483.22362 -62.77347 -56.57060 -56.56476 -56.56449
 Alpha  occ. eigenvalues --  -19.30480 -19.30198 -14.70059 -10.50132 -10.50076
 Alpha  occ. eigenvalues --  -10.49731 -10.48877 -10.47157 -10.43877  -8.93126
 Alpha  occ. eigenvalues --   -6.75849  -6.73934  -6.73851  -2.85741  -2.85251
 Alpha  occ. eigenvalues --   -2.85185  -2.83653  -2.83652  -1.34098  -1.16862
 Alpha  occ. eigenvalues --   -1.14119  -1.04747  -1.03453  -0.95872  -0.90239
 Alpha  occ. eigenvalues --   -0.87293  -0.81868  -0.76393  -0.71823  -0.70289
 Alpha  occ. eigenvalues --   -0.67891  -0.67179  -0.65871  -0.62731  -0.60962
 Alpha  occ. eigenvalues --   -0.60617  -0.58353  -0.55697  -0.50773  -0.46950
 Alpha  occ. eigenvalues --   -0.46125  -0.41004  -0.39353  -0.39269
 Alpha virt. eigenvalues --   -0.21658  -0.14694  -0.10624  -0.09234  -0.06802
 Alpha virt. eigenvalues --   -0.05930  -0.03780  -0.01231  -0.00450  -0.00192
 Alpha virt. eigenvalues --    0.01386   0.02647   0.04615   0.04804   0.05929

 Mulliken charges:
               1
     1  C   -0.094632
     2  C    0.121307
     3  C    0.089146
     4  C   -0.268751
     5  H    0.274245
     6  H    0.383717
     7  H    0.191369
     8  N   -0.241210
     9  O    0.190560
    10  O    0.198643
    11  C   -0.370917
    12  H    0.290201
    13  C   -0.458068
    14  H    0.443773
    15  Br   0.250616
 Sum of Mulliken charges =   1.00000

 Dipole moment (field-independent basis, Debye):
    X=             10.4868    Y=             -1.2728    Z=             -1.1328  Tot=             10.6243
 Quadrupole moment (field-independent basis, Debye-Ang):
   XX=            -38.7727   YY=            -50.8535   ZZ=            -61.5529
   XY=             -4.5859   XZ=             -4.6451   YZ=              3.3671

 Normal termination of Gaussian 16 at Thu May  2 14:26:30 2024.
