 Gaussian 16, Revision C.01,
 Gaussian 16:  ES64L-G16RevC.01  3-Jul-2019

 ---------------------------------------
 #P wB97XD/6-311+G* NoSymm #P Field=X-19
 ---------------------------------------

 -------
 TitleMe
 -------
 Symbolic Z-matrix:
 Charge =  1 Multiplicity = 1

                          Input orientation:
 ---------------------------------------------------------------------
 Center     Atomic      Atomic             Coordinates (Angstroms)
 Number     Number       Type             X           Y           Z
 ---------------------------------------------------------------------
      1          6           0        0.519300    1.233000   -0.031900
      2          6           0        1.944500    1.269200   -0.036700
      3          6           0        2.620400    0.092800   -0.025000
      4          6           0       -0.196000    0.030100    0.001000
      5          1           0       -0.020700    2.174200   -0.043400
      6          1           0        2.482800    2.208900   -0.036100
      7          1           0       -1.277700    0.039900    0.011700
      8          7           0        4.092100    0.095900    0.036600
      9          8           0        4.639300   -1.021700    0.144600
     10          8           0        4.664900    1.198400   -0.023300
     11          6           0        0.494300   -1.167100    0.021000
     12          1           0       -0.032500   -2.114900    0.054500
     13          6           0        1.962900   -1.216500   -0.021100
     14          1           0        2.443600   -1.963100    0.615100
     15         35           0        2.173000   -1.949100   -1.906200
 ---------------------------------------------------------------------

 SCF Done:  E(RwB97XD) =  -3010.53418656     A.U. after   19 cycles

 Alpha  occ. eigenvalues -- -483.30376 -62.85395 -56.65092 -56.64518 -56.64507
 Alpha  occ. eigenvalues --  -19.44984 -19.44980 -14.84439 -10.58446 -10.57240
 Alpha  occ. eigenvalues --  -10.56670 -10.56352 -10.52554 -10.52229  -9.01197
 Alpha  occ. eigenvalues --   -6.83887  -6.82005  -6.81970  -2.93788  -2.93294
 Alpha  occ. eigenvalues --   -2.93266  -2.91761  -2.91760  -1.48681  -1.31628
 Alpha  occ. eigenvalues --   -1.21690  -1.12147  -1.11654  -1.03993  -0.99458
 Alpha  occ. eigenvalues --   -0.94651  -0.89826  -0.84033  -0.79945  -0.79312
 Alpha  occ. eigenvalues --   -0.79026  -0.77204  -0.75087  -0.74789  -0.71254
 Alpha  occ. eigenvalues --   -0.67934  -0.66881  -0.62667  -0.59048  -0.56179
 Alpha  occ. eigenvalues --   -0.55628  -0.55263  -0.54664  -0.53657
 Alpha virt. eigenvalues --   -0.29347  -0.19434  -0.14839  -0.12228  -0.08315
 Alpha virt. eigenvalues --   -0.05817  -0.05244  -0.04105  -0.03810  -0.02749
 Alpha virt. eigenvalues --   -0.01789  -0.00867  -0.00624   0.00138   0.01306

 Mulliken charges:
               1
     1  C   -0.107555
     2  C    0.181636
     3  C   -0.064213
     4  C   -0.332982
     5  H    0.340485
     6  H    0.352618
     7  H    0.321445
     8  N   -0.240606
     9  O    0.095722
    10  O    0.078934
    11  C   -0.210968
    12  H    0.351924
    13  C   -0.367513
    14  H    0.413601
    15  Br   0.187473
 Sum of Mulliken charges =   1.00000

 Dipole moment (field-independent basis, Debye):
    X=              3.3225    Y=             -0.9338    Z=             -0.7782  Tot=              3.5379
 Quadrupole moment (field-independent basis, Debye-Ang):
   XX=            -65.7476   YY=            -51.1060   ZZ=            -62.1060
   XY=             -3.1031   XZ=             -2.7122   YZ=              2.5234

 Normal termination of Gaussian 16 at Thu May  2 14:18:18 2024.
