 Gaussian 16, Revision A.03,
 Gaussian 16:  ES64L-G16RevA.03 25-Dec-2016

 --------------------------------------------------------------------
 #p B3LYP/6-311+G** #p TD=(singlets,nstates=30)IOp(6/8=3) IOp(9/40=4)
 --------------------------------------------------------------------

 --------------------------------
 Scan Step 141, Bond Length 1.205
 --------------------------------
 Symbolic Z-matrix:
 Charge =  0 Multiplicity = 1

                         Standard orientation:
 ---------------------------------------------------------------------
 Center     Atomic      Atomic             Coordinates (Angstroms)
 Number     Number       Type             X           Y           Z
 ---------------------------------------------------------------------
      1          6           0        0.000000    0.000000   -0.528581
      2          1           0        0.000000    0.937260   -1.119931
      3          1           0       -0.000000   -0.937260   -1.119931
      4          8           0        0.000000   -0.000000    0.676419
 ---------------------------------------------------------------------

 SCF Done:  E(RB3LYP) =  -114.541730064     A.U. after    9 cycles

 Excitation energies and oscillator strengths:

 Excited State   1:      Singlet-A2     3.9432 eV  314.42 nm  f=0.0000  <S**2>=0.000
       3 -> 27         0.00249
       3 -> 38         0.00211
       3 -> 45         0.00246
       4 -> 27         0.00195
       4 -> 38        -0.00056
       4 -> 45        -0.00129
       5 ->  9         0.02108
       5 -> 13        -0.00335
       5 -> 17         0.00568
       5 -> 23        -0.00030
       5 -> 29         0.00436
       5 -> 31        -0.00234
       5 -> 37         0.00346
       5 -> 44         0.00063
       5 -> 47         0.00015
       5 -> 52         0.00078
       6 -> 38        -0.00083
       6 -> 45         0.00178
       7 -> 12        -0.00062
       7 -> 15         0.00277
       7 -> 18        -0.00274
       7 -> 22         0.00075
       7 -> 25         0.00142
       7 -> 30        -0.00091
       7 -> 33         0.00043
       7 -> 35        -0.00028
       7 -> 40         0.00026
       7 -> 42        -0.00010
       7 -> 49         0.00037
       7 -> 50         0.00032
       7 -> 53         0.00046
       8 ->  9         0.70530
       8 -> 13        -0.04471
       8 -> 17         0.02315
       8 -> 23        -0.01043
       8 -> 29         0.00897
       8 -> 31        -0.00266
       8 -> 37        -0.00019
       8 -> 44        -0.00013
       8 -> 47        -0.00025
       8 -> 52         0.00167
       3 <- 27         0.00163
       3 <- 38         0.00175
       3 <- 45         0.00255
       4 <- 27         0.00277
       4 <- 45        -0.00110
       5 <-  9        -0.00039
       5 <- 13        -0.00083
       5 <- 17        -0.00097
       5 <- 23         0.00055
       5 <- 29        -0.00066
       5 <- 31         0.00091
       5 <- 37         0.00164
       5 <- 44         0.00026
       5 <- 47         0.00016
       5 <- 52         0.00021
       6 <- 27         0.00047
       6 <- 38        -0.00074
       6 <- 45         0.00138
       7 <- 12        -0.00080
       7 <- 15        -0.00712
       7 <- 18         0.00019
       7 <- 22         0.00729
       7 <- 25        -0.00017
       7 <- 30         0.00335
       7 <- 33        -0.00132
       7 <- 35        -0.00241
       7 <- 40         0.00099
       7 <- 42         0.00011
       7 <- 49         0.00017
       7 <- 50         0.00021
       7 <- 53         0.00127
       8 <-  9        -0.02382
       8 <- 13         0.00316
       8 <- 17        -0.00430
       8 <- 23         0.00080
       8 <- 29        -0.00093
       8 <- 31        -0.00089
       8 <- 37        -0.00148
       8 <- 52         0.00048
 This state for optimization and/or second-order correction.
 Total Energy, E(TD-HF/TD-DFT) =  -114.396819550
 Copying the excited state density for this state as the 1-particle RhoCI density.

 Excited State   2:      Singlet-B2     6.8570 eV  180.81 nm  f=0.0308  <S**2>=0.000
       3 -> 12         0.00148
       3 -> 15         0.00072
       3 -> 18         0.00117
       3 -> 22        -0.00031
       3 -> 25         0.00129
       3 -> 33         0.00019
       3 -> 35         0.00039
       4 -> 12        -0.00324
       4 -> 15         0.00179
       4 -> 18         0.00210
       4 -> 22        -0.00333
       4 -> 25         0.00340
       4 -> 30         0.00028
       4 -> 33        -0.00053
       4 -> 35        -0.00062
       4 -> 40         0.00047
       4 -> 42        -0.00011
       5 -> 10        -0.00649
       5 -> 11        -0.00875
       5 -> 14         0.00700
       5 -> 16        -0.00087
       5 -> 19         0.00053
       5 -> 20         0.00211
       5 -> 21         0.00576
       5 -> 26         0.00252
       5 -> 28         0.00125
       5 -> 32         0.00086
       5 -> 34        -0.00101
       5 -> 36        -0.00020
       5 -> 39        -0.00030
       5 -> 41        -0.00034
       5 -> 43        -0.00055
       5 -> 46        -0.00036
       5 -> 54         0.00011
       6 -> 12         0.00013
       6 -> 15         0.00151
       6 -> 18         0.00220
       6 -> 22        -0.00256
       6 -> 25         0.00122
       6 -> 30        -0.00050
       6 -> 33        -0.00021
       6 -> 35        -0.00034
       6 -> 40        -0.00015
       6 -> 42        -0.00020
       6 -> 49         0.00047
       6 -> 50        -0.00033
       7 -> 27         0.00020
       7 -> 38        -0.00054
       7 -> 45         0.00045
       8 -> 10         0.70312
       8 -> 11        -0.06984
       8 -> 14         0.01296
       8 -> 16        -0.00642
       8 -> 19         0.01163
       8 -> 20         0.01434
       8 -> 21        -0.00312
       8 -> 24         0.00022
       8 -> 26         0.00237
       8 -> 28         0.00073
       8 -> 32        -0.00099
       8 -> 34         0.00132
       8 -> 36         0.00040
       8 -> 39         0.00039
       8 -> 41        -0.00018
       8 -> 43         0.00062
       8 -> 46        -0.00064
       8 -> 48        -0.00014
       8 -> 54         0.00019
       3 <- 12         0.00036
       3 <- 15         0.00054
       3 <- 18         0.00045
       3 <- 22        -0.00045
       3 <- 25         0.00076
       3 <- 30        -0.00011
       3 <- 33         0.00016
       3 <- 35         0.00036
       3 <- 40        -0.00011
       4 <- 12         0.00073
       4 <- 15         0.00190
       4 <- 18         0.00203
       4 <- 22        -0.00205
       4 <- 25         0.00234
       4 <- 30         0.00021
       4 <- 33        -0.00031
       4 <- 35        -0.00035
       4 <- 40         0.00014
       4 <- 42        -0.00023
       4 <- 50        -0.00012
       5 <- 10         0.00240
       5 <- 11        -0.00025
       5 <- 14         0.00487
       5 <- 16        -0.00076
       5 <- 19         0.00012
       5 <- 20         0.00079
       5 <- 21         0.00214
       5 <- 24         0.00188
       5 <- 26         0.00155
       5 <- 28         0.00019
       5 <- 32         0.00058
       5 <- 34        -0.00097
       5 <- 36        -0.00029
       5 <- 39        -0.00016
       5 <- 41        -0.00015
       5 <- 43        -0.00041
       5 <- 46        -0.00031
       6 <- 12         0.00012
       6 <- 18         0.00122
       6 <- 22        -0.00074
       6 <- 25         0.00042
       6 <- 30         0.00030
       6 <- 33        -0.00027
       6 <- 35        -0.00045
       6 <- 40        -0.00015
       6 <- 42        -0.00019
       6 <- 49         0.00039
       6 <- 50        -0.00034
       6 <- 53         0.00014
       7 <- 27         0.00017
       7 <- 38        -0.00040
       7 <- 45         0.00040
       8 <- 10        -0.00182
       8 <- 11        -0.00052
       8 <- 14        -0.00562
       8 <- 16        -0.00037
       8 <- 19        -0.00016
       8 <- 20        -0.00055
       8 <- 21        -0.00196
       8 <- 24        -0.00233
       8 <- 26        -0.00065
       8 <- 28        -0.00058
       8 <- 32        -0.00110
       8 <- 34         0.00034
       8 <- 36         0.00037
       8 <- 39         0.00031
       8 <- 43         0.00043
       8 <- 46        -0.00041

 Excited State   3:      Singlet-B2     7.6416 eV  162.25 nm  f=0.0253  <S**2>=0.000
       3 -> 12        -0.00030
       3 -> 15        -0.00079
       3 -> 18         0.00085
       3 -> 22         0.00041
       3 -> 25         0.00016
       3 -> 30         0.00211
       3 -> 33         0.00014
       3 -> 35         0.00047
       3 -> 40        -0.00043
       3 -> 49         0.00045
       3 -> 50        -0.00022
       4 -> 12         0.00275
       4 -> 18         0.00242
       4 -> 22        -0.00150
       4 -> 25         0.00301
       4 -> 30        -0.00124
       4 -> 33         0.00050
       4 -> 35         0.00053
       4 -> 42        -0.00013
       4 -> 49         0.00024
       5 -> 10        -0.00714
       5 -> 14         0.00852
       5 -> 16        -0.00712
       5 -> 19        -0.00232
       5 -> 20        -0.00450
       5 -> 21         0.00153
       5 -> 24         0.00112
       5 -> 26         0.00096
       5 -> 28         0.00162
       5 -> 32         0.00020
       5 -> 34        -0.00114
       5 -> 36        -0.00025
       5 -> 39         0.00041
       5 -> 41        -0.00075
       5 -> 43         0.00013
       5 -> 46         0.00088
       5 -> 51        -0.00041
       6 -> 12        -0.00309
       6 -> 15        -0.00176
       6 -> 18        -0.00091
       6 -> 22         0.00129
       6 -> 25         0.00015
       6 -> 30         0.00099
       6 -> 33        -0.00054
       6 -> 35        -0.00149
       6 -> 40         0.00104
       6 -> 49        -0.00112
       6 -> 50         0.00045
       6 -> 53         0.00011
       7 -> 38        -0.00093
       7 -> 45        -0.00176
       8 -> 10         0.07027
       8 -> 11         0.70268
       8 -> 14        -0.00616
       8 -> 16         0.01088
       8 -> 19        -0.02994
       8 -> 20         0.00661
       8 -> 21        -0.00284
       8 -> 24         0.00040
       8 -> 26        -0.00131
       8 -> 28         0.00109
       8 -> 32        -0.00022
       8 -> 34        -0.00019
       8 -> 36        -0.00011
       8 -> 39        -0.00021
       8 -> 41        -0.00123
       8 -> 43         0.00031
       8 -> 46         0.00192
       8 -> 48         0.00012
       8 -> 51        -0.00096
       8 -> 54        -0.00011
       3 <- 12         0.00034
       3 <- 15        -0.00025
       3 <- 18         0.00090
       3 <- 25         0.00030
       3 <- 30         0.00119
       3 <- 33         0.00024
       3 <- 35         0.00052
       3 <- 40        -0.00040
       3 <- 49         0.00039
       3 <- 50        -0.00015
       3 <- 53        -0.00028
       4 <- 12         0.00034
       4 <- 15         0.00075
       4 <- 18         0.00059
       4 <- 22        -0.00114
       4 <- 25         0.00125
       4 <- 30        -0.00060
       4 <- 33         0.00046
       4 <- 35         0.00020
       4 <- 42        -0.00014
       4 <- 49         0.00018
       4 <- 50        -0.00011
       5 <- 10         0.00126
       5 <- 11        -0.00118
       5 <- 14         0.00259
       5 <- 16        -0.00043
       5 <- 19         0.00110
       5 <- 20        -0.00046
       5 <- 21         0.00076
       5 <- 24         0.00135
       5 <- 28         0.00071
       5 <- 32         0.00104
       5 <- 34        -0.00015
       5 <- 36         0.00016
       5 <- 39         0.00011
       5 <- 41        -0.00078
       5 <- 46         0.00082
       5 <- 48         0.00014
       5 <- 51        -0.00031
       6 <- 12        -0.00031
       6 <- 15        -0.00071
       6 <- 18         0.00012
       6 <- 22         0.00071
       6 <- 25        -0.00011
       6 <- 30         0.00075
       6 <- 33        -0.00040
       6 <- 35        -0.00122
       6 <- 40         0.00079
       6 <- 49        -0.00091
       6 <- 50         0.00036
       7 <- 27         0.00021
       7 <- 38        -0.00074
       7 <- 45        -0.00148
       8 <- 10        -0.00070
       8 <- 11        -0.00089
       8 <- 14        -0.00371
       8 <- 16         0.00045
       8 <- 19         0.00425
       8 <- 20        -0.00093
       8 <- 21        -0.00202
       8 <- 24         0.00037
       8 <- 26        -0.00167
       8 <- 28         0.00031
       8 <- 32         0.00114
       8 <- 34         0.00135
       8 <- 39        -0.00055
       8 <- 41        -0.00109
       8 <- 43         0.00016
       8 <- 46         0.00153
       8 <- 48         0.00025
       8 <- 51        -0.00065

 Excited State   4:      Singlet-A1     7.8409 eV  158.12 nm  f=0.0483  <S**2>=0.000
       3 -> 10         0.00197
       3 -> 11        -0.00079
       3 -> 14         0.00096
       3 -> 16        -0.00013
       3 -> 19        -0.00041
       3 -> 20         0.00196
       3 -> 21         0.00087
       3 -> 24        -0.00069
       3 -> 26         0.00121
       3 -> 28         0.00092
       3 -> 34        -0.00067
       3 -> 36        -0.00019
       3 -> 41        -0.00021
       3 -> 46         0.00015
       3 -> 48         0.00031
       3 -> 51        -0.00019
       3 -> 54        -0.00019
       4 -> 10         0.00480
       4 -> 11         0.00550
       4 -> 14         0.00478
       4 -> 16         0.00046
       4 -> 19         0.00023
       4 -> 20         0.00381
       4 -> 21         0.00043
       4 -> 24         0.00708
       4 -> 26         0.00180
       4 -> 28        -0.00037
       4 -> 32         0.00064
       4 -> 43         0.00016
       4 -> 46        -0.00020
       4 -> 51        -0.00015
       5 -> 12         0.00611
       5 -> 15         0.00247
       5 -> 18         0.01021
       5 -> 22        -0.00231
       5 -> 25         0.00537
       5 -> 30        -0.00020
       5 -> 33        -0.00017
       5 -> 35        -0.00076
       5 -> 50         0.00022
       5 -> 53        -0.00013
       6 -> 10         0.01197
       6 -> 11        -0.00250
       6 -> 14         0.00436
       6 -> 16         0.00071
       6 -> 19         0.00210
       6 -> 20         0.00370
       6 -> 21         0.00029
       6 -> 24         0.00381
       6 -> 26        -0.00011
       6 -> 28        -0.00193
       6 -> 32         0.00040
       6 -> 39         0.00013
       6 -> 43         0.00014
       6 -> 48        -0.00067
       6 -> 51         0.00020
       6 -> 54        -0.00011
       7 ->  9         0.02069
       7 -> 13         0.01084
       7 -> 17         0.00217
       7 -> 23         0.00522
       7 -> 29        -0.00062
       7 -> 31        -0.00091
       7 -> 37         0.00058
       7 -> 44         0.00064
       7 -> 47        -0.00033
       7 -> 52        -0.00011
       8 -> 12         0.70573
       8 -> 15        -0.00612
       8 -> 18         0.03016
       8 -> 22         0.00399
       8 -> 25         0.00394
       8 -> 33         0.00160
       8 -> 35         0.00197
       8 -> 40         0.00054
       8 -> 42         0.00018
       8 -> 49        -0.00044
       8 -> 50         0.00028
       8 -> 53        -0.00024
       3 <- 10         0.00062
       3 <- 14         0.00051
       3 <- 19        -0.00038
       3 <- 20         0.00089
       3 <- 21         0.00060
       3 <- 24        -0.00014
       3 <- 26         0.00080
       3 <- 28         0.00061
       3 <- 32        -0.00021
       3 <- 34        -0.00046
       3 <- 36        -0.00014
       3 <- 41        -0.00014
       3 <- 46         0.00024
       3 <- 48         0.00025
       3 <- 51        -0.00017
       3 <- 54        -0.00017
       4 <- 10         0.00418
       4 <- 11         0.00123
       4 <- 14         0.00353
       4 <- 16        -0.00012
       4 <- 20         0.00219
       4 <- 24         0.00384
       4 <- 26         0.00112
       4 <- 32         0.00079
       4 <- 34        -0.00039
       4 <- 39        -0.00014
       4 <- 43         0.00012
       4 <- 46        -0.00017
       4 <- 51        -0.00014
       5 <- 12         0.00271
       5 <- 15         0.00266
       5 <- 18         0.00358
       5 <- 22        -0.00084
       5 <- 25         0.00291
       5 <- 30        -0.00015
       5 <- 33        -0.00035
       5 <- 35        -0.00069
       5 <- 50         0.00013
       5 <- 53        -0.00011
       6 <- 10         0.00292
       6 <- 14         0.00167
       6 <- 16         0.00019
       6 <- 19         0.00054
       6 <- 20         0.00171
       6 <- 24         0.00186
       6 <- 26         0.00015
       6 <- 28        -0.00125
       6 <- 32         0.00041
       6 <- 34        -0.00013
       6 <- 41         0.00012
       6 <- 46        -0.00014
       6 <- 48        -0.00055
       6 <- 51         0.00023
       7 <- 13         0.00236
       7 <- 17         0.00040
       7 <- 23         0.00262
       7 <- 29        -0.00050
       7 <- 31        -0.00063
       7 <- 37         0.00045
       7 <- 44         0.00054
       7 <- 47        -0.00029
       8 <- 12        -0.00078
       8 <- 15        -0.00530
       8 <- 18        -0.00178
       8 <- 22         0.00062
       8 <- 25        -0.00164
       8 <- 30        -0.00073
       8 <- 33         0.00066
       8 <- 35         0.00082
       8 <- 40         0.00056
       8 <- 42         0.00017
       8 <- 49        -0.00046
       8 <- 50         0.00019
       8 <- 53        -0.00024

 Excited State   5:      Singlet-A2     8.3489 eV  148.50 nm  f=0.0000  <S**2>=0.000
       3 -> 27        -0.00045
       3 -> 38        -0.00040
       3 -> 45        -0.00021
       4 -> 27         0.00019
       4 -> 38         0.00047
       5 ->  9        -0.00548
       5 -> 13        -0.00473
       5 -> 17         0.00662
       5 -> 23        -0.00204
       5 -> 29        -0.00017
       5 -> 31         0.00142
       5 -> 37        -0.00093
       5 -> 44        -0.00019
       6 -> 27         0.00023
       6 -> 38         0.00029
       6 -> 45        -0.00022
       7 -> 12        -0.00020
       7 -> 15        -0.00189
       7 -> 18         0.00202
       7 -> 22        -0.00070
       7 -> 35         0.00013
       7 -> 40        -0.00010
       8 ->  9         0.04435
       8 -> 13         0.70515
       8 -> 17         0.02024
       8 -> 23         0.01665
       8 -> 29         0.00021
       8 -> 31         0.00161
       8 -> 37        -0.00035
       8 -> 47         0.00017
       3 <- 27        -0.00012
       3 <- 38        -0.00025
       3 <- 45        -0.00029
       4 <- 27        -0.00010
       5 <-  9        -0.00034
       5 <- 13        -0.00033
       5 <- 17         0.00051
       5 <- 37        -0.00019
       6 <- 38         0.00019
       7 <- 12        -0.00059
       7 <- 15        -0.00102
       7 <- 18         0.00075
       7 <- 22        -0.00092
       7 <- 25        -0.00042
       7 <- 30         0.00022
       7 <- 33         0.00036
       7 <- 35         0.00058
       7 <- 40        -0.00036
       8 <-  9         0.00165
       8 <- 13         0.00129
       8 <- 17         0.00024
       8 <- 23        -0.00015
       8 <- 37         0.00012

 Excited State   6:      Singlet-B1     9.0660 eV  136.76 nm  f=0.0009  <S**2>=0.000
       3 ->  9        -0.03267
       3 -> 13         0.00613
       3 -> 17        -0.00739
       3 -> 23         0.00458
       3 -> 29        -0.00296
       3 -> 44         0.00073
       3 -> 52         0.00112
       4 ->  9         0.01699
       4 -> 13        -0.00282
       4 -> 17         0.00108
       4 -> 23        -0.00247
       4 -> 29        -0.00010
       4 -> 31        -0.00280
       4 -> 37        -0.00032
       4 -> 44        -0.00014
       4 -> 47        -0.00167
       4 -> 52        -0.00101
       5 -> 27        -0.00192
       5 -> 38         0.00227
       5 -> 45         0.00340

 The electronic state is 1-A1.
 Alpha  occ. eigenvalues --  -19.15124 -10.27942  -1.07513  -0.64588  -0.50654
 Alpha  occ. eigenvalues --   -0.46460  -0.41330  -0.28209
 Alpha virt. eigenvalues --   -0.06515   0.00771   0.03920   0.04261   0.06468
 Alpha virt. eigenvalues --    0.12915   0.17784   0.18580   0.21977   0.23212
 Alpha virt. eigenvalues --    0.26888   0.32812   0.45529   0.46478   0.50936

 Mulliken charges:
               1
     1  C    0.018133
     2  H    0.112315
     3  H    0.112315
     4  O   -0.242763
 Sum of Mulliken charges =   0.00000

 Dipole moment (field-independent basis, Debye):
    X=             -0.0000    Y=             -0.0000    Z=             -2.4929  Tot=              2.4929
 Quadrupole moment (field-independent basis, Debye-Ang):
   XX=            -11.7582   YY=            -11.7408   ZZ=            -12.4333
   XY=              0.0000   XZ=              0.0000   YZ=             -0.0000

 Normal termination of Gaussian 16 at Fri Sep 17 10:52:42 2021.
