 Gaussian 16, Revision C.01,
 Gaussian 16:  ES64L-G16RevC.01  3-Jul-2019

 ----------------------------------------
 #P wB97XD/6-311+G* NoSymm #P Field=Z+233
 ----------------------------------------

 -------
 TitleMe
 -------
 Symbolic Z-matrix:
 Charge =  1 Multiplicity = 1

                          Input orientation:
 ---------------------------------------------------------------------
 Center     Atomic      Atomic             Coordinates (Angstroms)
 Number     Number       Type             X           Y           Z
 ---------------------------------------------------------------------
      1          6           0        0.029500    1.339700    0.068200
      2          6           0        1.434800    1.286700    0.006400
      3          6           0        2.111800    0.051100   -0.005400
      4          6           0        1.445100   -1.137200    0.031200
      5          6           0       -0.687900    0.168200    0.110000
      6          1           0       -0.471300    2.298400    0.078100
      7          1           0        2.027300    2.196500   -0.032200
      8          1           0        1.989700   -2.076400    0.023200
      9          1           0       -1.771600    0.180400    0.158200
     10          7           0        3.586400    0.051000   -0.067500
     11          8           0        4.147100   -1.059700   -0.088100
     12          8           0        4.145000    1.163900   -0.090100
     13          6           0       -0.023600   -1.145800    0.083500
     14          1           0       -0.436700   -1.872500    0.788900
     15         35           0       -0.535900   -1.869700   -1.740800
 ---------------------------------------------------------------------

 SCF Done:  E(RwB97XD) =  -3010.55416109     A.U. after   18 cycles

 Alpha  occ. eigenvalues -- -483.27866 -62.82827 -56.62584 -56.61923 -56.61923
 Alpha  occ. eigenvalues --  -19.44857 -19.44803 -14.84348 -10.56536 -10.56107
 Alpha  occ. eigenvalues --  -10.55996 -10.55754 -10.55594 -10.51911  -8.98587
 Alpha  occ. eigenvalues --   -6.81432  -6.79290  -6.79282  -2.91296  -2.90729
 Alpha  occ. eigenvalues --   -2.90721  -2.89009  -2.89009  -1.48611  -1.31594
 Alpha  occ. eigenvalues --   -1.21292  -1.12437  -1.10417  -1.01478  -0.99906
 Alpha  occ. eigenvalues --   -0.94019  -0.89750  -0.84228  -0.79735  -0.79433
 Alpha  occ. eigenvalues --   -0.78891  -0.77276  -0.75027  -0.74768  -0.70502
 Alpha  occ. eigenvalues --   -0.68097  -0.66377  -0.61613  -0.58409  -0.56024
 Alpha  occ. eigenvalues --   -0.55133  -0.54584  -0.52213  -0.51618
 Alpha virt. eigenvalues --   -0.27981  -0.20345  -0.15037  -0.13595  -0.11219
 Alpha virt. eigenvalues --   -0.10254  -0.09882  -0.06641  -0.05915  -0.05159
 Alpha virt. eigenvalues --   -0.02927  -0.01543  -0.00580   0.00437   0.00716

 Mulliken charges:
               1
     1  C   -0.539802
     2  C    0.424790
     3  C   -0.686443
     4  C    0.251654
     5  C   -0.076931
     6  H    0.330723
     7  H    0.368413
     8  H    0.370638
     9  H    0.345587
    10  N   -0.114892
    11  O    0.034839
    12  O    0.032584
    13  C   -0.452603
    14  H    0.321487
    15  Br   0.389957
 Sum of Mulliken charges =   1.00000

 Dipole moment (field-independent basis, Debye):
    X=             -1.4040    Y=             -1.5029    Z=             -4.1121  Tot=              4.5977
 Quadrupole moment (field-independent basis, Debye-Ang):
   XX=            -72.0952   YY=            -50.8112   ZZ=            -58.7203
   XY=              1.9792   XZ=             -0.7814   YZ=              5.1120

 Normal termination of Gaussian 16 at Wed May  1 15:29:48 2024.
