 Gaussian 16, Revision A.03,
 Gaussian 16:  ES64L-G16RevA.03 25-Dec-2016

 --------------------------------------------------------------------
 #p B3LYP/6-311+G** #p TD=(singlets,nstates=30)IOp(6/8=3) IOp(9/40=4)
 --------------------------------------------------------------------

 -------------------------------
 Scan Step 67, Bond Length 0.835
 -------------------------------
 Symbolic Z-matrix:
 Charge =  0 Multiplicity = 1

                         Standard orientation:
 ---------------------------------------------------------------------
 Center     Atomic      Atomic             Coordinates (Angstroms)
 Number     Number       Type             X           Y           Z
 ---------------------------------------------------------------------
      1          6           0        0.000000    0.000000   -0.343581
      2          1           0        0.000000    0.937260   -0.934931
      3          1           0       -0.000000   -0.937260   -0.934931
      4          8           0        0.000000   -0.000000    0.491419
 ---------------------------------------------------------------------

 SCF Done:  E(RB3LYP) =  -114.012729726     A.U. after    9 cycles

 Excitation energies and oscillator strengths:

 Excited State   1:      Singlet-A2     5.5706 eV  222.57 nm  f=0.0000  <S**2>=0.000
       3 -> 27         0.00257
       3 -> 35         0.00192
       3 -> 46         0.00093
       4 -> 10         0.00455
       4 -> 13         0.00701
       4 -> 17         0.00569
       4 -> 22        -0.00334
       4 -> 28         0.00279
       4 -> 32         0.00122
       4 -> 37         0.00295
       4 -> 43         0.00041
       4 -> 52         0.00058
       5 -> 11        -0.00050
       5 -> 16        -0.00053
       5 -> 18        -0.00040
       5 -> 23         0.00157
       5 -> 24         0.00019
       5 -> 29        -0.00021
       5 -> 33         0.00021
       5 -> 36         0.00048
       5 -> 42         0.00049
       5 -> 47         0.00059
       5 -> 50        -0.00019
       5 -> 53         0.00021
       6 -> 27         0.00363
       6 -> 35        -0.00064
       6 -> 46        -0.00052
       7 -> 27         0.00094
       7 -> 35        -0.00014
       7 -> 46         0.00092
       8 -> 10         0.69882
       8 -> 13         0.10338
       8 -> 17         0.03080
       8 -> 22        -0.00403
       8 -> 28         0.00424
       8 -> 32         0.00331
       8 -> 37        -0.00240
       8 -> 43        -0.00011
       8 -> 52         0.00074
       3 <- 27         0.00196
       3 <- 35         0.00165
       3 <- 46         0.00095
       4 <- 10         0.00022
       4 <- 13         0.00113
       4 <- 17         0.00032
       4 <- 22         0.00011
       4 <- 32        -0.00101
       4 <- 37         0.00140
       4 <- 43         0.00041
       4 <- 52         0.00014
       5 <- 11        -0.00087
       5 <- 16         0.00118
       5 <- 18        -0.00276
       5 <- 23         0.00352
       5 <- 24        -0.00171
       5 <- 29         0.00155
       5 <- 33        -0.00067
       5 <- 36         0.00156
       5 <- 42         0.00073
       5 <- 47         0.00048
       5 <- 53         0.00057
       6 <- 27         0.00392
       6 <- 35        -0.00056
       6 <- 46        -0.00052
       7 <- 27         0.00094
       7 <- 35        -0.00020
       7 <- 46         0.00077
       8 <- 10        -0.00505
       8 <- 13        -0.00849
       8 <- 17        -0.00455
       8 <- 22         0.00036
       8 <- 28        -0.00038
       8 <- 32         0.00296
       8 <- 37        -0.00214
       8 <- 52         0.00023
 This state for optimization and/or second-order correction.
 Total Energy, E(TD-HF/TD-DFT) =  -113.808013785
 Copying the excited state density for this state as the 1-particle RhoCI density.

 Excited State   2:      Singlet-B2     5.6378 eV  219.92 nm  f=0.0956  <S**2>=0.000
       3 -> 11         0.00084
       3 -> 16         0.00035
       3 -> 18         0.00093
       3 -> 24         0.00109
       3 -> 29        -0.00021
       3 -> 42         0.00016
       3 -> 50        -0.00015
       3 -> 53         0.00010
       4 ->  9         0.00226
       4 -> 12         0.00573
       4 -> 14         0.00483
       4 -> 15         0.00163
       4 -> 19         0.00367
       4 -> 20         0.00146
       4 -> 21         0.00249
       4 -> 25         0.00137
       4 -> 26        -0.00100
       4 -> 30        -0.00190
       4 -> 31         0.00061
       4 -> 34         0.00044
       4 -> 38        -0.00081
       4 -> 39         0.00010
       4 -> 41         0.00049
       4 -> 44         0.00041
       4 -> 45        -0.00061
       4 -> 48         0.00037
       5 -> 27         0.00121
       5 -> 35         0.00039
       5 -> 46         0.00087
       6 -> 11        -0.00678
       6 -> 16         0.00141
       6 -> 18         0.00085
       6 -> 23        -0.00215
       6 -> 24         0.00413
       6 -> 29        -0.00074
       6 -> 33        -0.00105
       6 -> 36         0.00084
       6 -> 40        -0.00012
       6 -> 42         0.00043
       7 -> 11         0.00290
       7 -> 16         0.00372
       7 -> 18         0.00332
       7 -> 23        -0.00180
       7 -> 24         0.00252
       7 -> 29         0.00021
       7 -> 36        -0.00029
       7 -> 42        -0.00037
       7 -> 47         0.00043
       7 -> 50         0.00048
       7 -> 53        -0.00010
       8 ->  9         0.70619
       8 -> 12         0.00722
       8 -> 14        -0.02640
       8 -> 15         0.01101
       8 -> 19         0.02078
       8 -> 20        -0.00719
       8 -> 21        -0.00850
       8 -> 25         0.00057
       8 -> 26        -0.00037
       8 -> 30         0.00021
       8 -> 31         0.00309
       8 -> 34         0.00141
       8 -> 38         0.00096
       8 -> 39        -0.00047
       8 -> 41        -0.00052
       8 -> 45        -0.00105
       8 -> 48         0.00036
       8 -> 54        -0.00013
       3 <- 11         0.00029
       3 <- 18         0.00058
       3 <- 24         0.00080
       3 <- 29        -0.00019
       3 <- 42         0.00014
       3 <- 53         0.00012
       4 <-  9         0.00190
       4 <- 12        -0.00016
       4 <- 14         0.00386
       4 <- 15         0.00183
       4 <- 19         0.00091
       4 <- 20         0.00060
       4 <- 21         0.00163
       4 <- 25         0.00160
       4 <- 26        -0.00125
       4 <- 30        -0.00070
       4 <- 34         0.00022
       4 <- 38        -0.00052
       4 <- 39         0.00016
       4 <- 41         0.00045
       4 <- 44         0.00029
       4 <- 45        -0.00055
       4 <- 48         0.00032
       5 <- 27         0.00096
       5 <- 35         0.00031
       5 <- 46         0.00074
       6 <- 11        -0.00035
       6 <- 16         0.00146
       6 <- 18         0.00205
       6 <- 23        -0.00121
       6 <- 24         0.00321
       6 <- 29        -0.00060
       6 <- 33        -0.00081
       6 <- 36         0.00065
       6 <- 40        -0.00016
       6 <- 42         0.00021
       7 <- 11         0.00075
       7 <- 16         0.00226
       7 <- 18         0.00102
       7 <- 23        -0.00073
       7 <- 24         0.00120
       7 <- 29         0.00083
       7 <- 42        -0.00031
       7 <- 47         0.00041
       7 <- 50         0.00054
       8 <-  9        -0.00510
       8 <- 12         0.00274
       8 <- 14        -0.01449
       8 <- 15        -0.00295
       8 <- 19        -0.00125
       8 <- 20         0.00017
       8 <- 21        -0.00444
       8 <- 25        -0.00314
       8 <- 26        -0.00063
       8 <- 30         0.00048
       8 <- 31         0.00173
       8 <- 34         0.00152
       8 <- 38         0.00093
       8 <- 39        -0.00039
       8 <- 41        -0.00037
       8 <- 44        -0.00017
       8 <- 45        -0.00079
       8 <- 48         0.00032

 Excited State   3:      Singlet-B2     6.4440 eV  192.40 nm  f=0.0244  <S**2>=0.000
       3 -> 11         0.00011
       3 -> 16        -0.00060
       3 -> 18         0.00014
       3 -> 23        -0.00020
       3 -> 24        -0.00044
       3 -> 29        -0.00081
       3 -> 33        -0.00014
       3 -> 36         0.00028
       3 -> 42         0.00029
       3 -> 47        -0.00019
       3 -> 50        -0.00019
       3 -> 53         0.00012
       4 ->  9         0.00418
       4 -> 12        -0.00017
       4 -> 14        -0.00241
       4 -> 15        -0.00406
       4 -> 19         0.00281
       4 -> 20        -0.00028
       4 -> 21        -0.00142
       4 -> 25        -0.00087
       4 -> 26        -0.00112
       4 -> 30         0.00079
       4 -> 31         0.00220
       4 -> 34         0.00032
       4 -> 39         0.00085
       4 -> 41         0.00057
       4 -> 45        -0.00062
       4 -> 48         0.00037
       4 -> 51         0.00018
       5 -> 27         0.00092
       5 -> 35         0.00134
       5 -> 46         0.00097
       6 -> 11        -0.00230
       6 -> 16        -0.00483
       6 -> 18        -0.00087
       6 -> 23         0.00119
       6 -> 24        -0.00376
       6 -> 29         0.00136
       6 -> 33        -0.00055
       6 -> 40         0.00028
       6 -> 47        -0.00011
       7 -> 11         0.00285
       7 -> 16         0.00058
       7 -> 18         0.00235
       7 -> 23        -0.00123
       7 -> 24         0.00068
       7 -> 29         0.00013
       7 -> 33         0.00022
       7 -> 36        -0.00111
       7 -> 40         0.00029
       7 -> 42        -0.00058
       7 -> 47         0.00066
       7 -> 50         0.00054
       7 -> 53        -0.00017
       8 ->  9        -0.00735
       8 -> 12         0.70600
       8 -> 14         0.01998
       8 -> 15         0.02479
       8 -> 19         0.01518
       8 -> 20         0.01546
       8 -> 21         0.00359
       8 -> 25        -0.00047
       8 -> 26         0.00077
       8 -> 30        -0.00183
       8 -> 31        -0.00067
       8 -> 34        -0.00035
       8 -> 38         0.00011
       8 -> 39         0.00097
       8 -> 41         0.00112
       8 -> 45        -0.00068
       8 -> 48         0.00049
       8 -> 54        -0.00016
       3 <- 11        -0.00019
       3 <- 16        -0.00059
       3 <- 18        -0.00013
       3 <- 24        -0.00049
       3 <- 29        -0.00054
       3 <- 33        -0.00016
       3 <- 36         0.00030
       3 <- 42         0.00025
       3 <- 47        -0.00014
       3 <- 53         0.00021
       4 <-  9        -0.00136
       4 <- 12        -0.00013
       4 <- 14        -0.00171
       4 <- 15        -0.00063
       4 <- 19        -0.00064
       4 <- 20         0.00035
       4 <- 21        -0.00101
       4 <- 25        -0.00092
       4 <- 26        -0.00094
       4 <- 30         0.00091
       4 <- 31         0.00094
       4 <- 34         0.00086
       4 <- 39         0.00064
       4 <- 41         0.00057
       4 <- 45        -0.00063
       4 <- 48         0.00024
       4 <- 51         0.00017
       5 <- 27         0.00046
       5 <- 35         0.00112
       5 <- 46         0.00084
       6 <- 11        -0.00016
       6 <- 16        -0.00102
       6 <- 18        -0.00102
       6 <- 23         0.00121
       6 <- 24        -0.00198
       6 <- 29         0.00064
       6 <- 33        -0.00059
       6 <- 36        -0.00026
       6 <- 40         0.00028
       6 <- 50        -0.00016
       7 <- 11         0.00038
       7 <- 16         0.00049
       7 <- 18         0.00020
       7 <- 23        -0.00025
       7 <- 24         0.00014
       7 <- 29         0.00045
       7 <- 36        -0.00075
       7 <- 40         0.00023
       7 <- 42        -0.00041
       7 <- 47         0.00058
       7 <- 50         0.00052
       8 <-  9         0.00254
       8 <- 12         0.00140
       8 <- 14         0.00762
       8 <- 15         0.00208
       8 <- 19        -0.00170
       8 <- 20        -0.00225
       8 <- 21         0.00291
       8 <- 25         0.00052
       8 <- 26        -0.00062
       8 <- 30        -0.00136
       8 <- 31        -0.00112
       8 <- 38         0.00028
       8 <- 39         0.00072
       8 <- 41         0.00095
       8 <- 45        -0.00057
       8 <- 48         0.00030

 Excited State   4:      Singlet-A1     6.5833 eV  188.33 nm  f=0.0344  <S**2>=0.000
       3 ->  9         0.00126
       3 -> 12         0.00073
       3 -> 15         0.00061
       3 -> 19         0.00134
       3 -> 20        -0.00020
       3 -> 21        -0.00041
       3 -> 25         0.00032
       3 -> 30        -0.00101
       3 -> 31        -0.00017
       3 -> 34        -0.00024
       3 -> 38        -0.00033
       3 -> 39        -0.00028
       3 -> 48        -0.00012
       3 -> 51        -0.00026
       3 -> 54         0.00019
       4 -> 11         0.00722
       4 -> 16         0.00816
       4 -> 18         0.00579
       4 -> 23         0.00123
       4 -> 24         0.00384
       4 -> 29         0.00071
       4 -> 33        -0.00015
       4 -> 36         0.00098
       4 -> 42        -0.00026
       4 -> 50        -0.00034
       4 -> 53        -0.00011
       5 -> 10         0.00642
       5 -> 13        -0.00277
       5 -> 17         0.00496
       5 -> 22         0.00377
       5 -> 28         0.00087
       5 -> 32         0.00092
       5 -> 37         0.00054
       5 -> 43         0.00041
       5 -> 49        -0.00036
       6 ->  9         0.00592
       6 -> 12        -0.01092
       6 -> 14         0.00615
       6 -> 15         0.00284
       6 -> 19         0.00157
       6 -> 20        -0.00685
       6 -> 21         0.00154
       6 -> 25         0.00675
       6 -> 26        -0.00102
       6 -> 30         0.00091
       6 -> 31        -0.00091
       6 -> 34        -0.00117
       6 -> 38        -0.00046
       6 -> 39         0.00104
       6 -> 44         0.00026
       6 -> 45        -0.00027
       6 -> 48        -0.00032
       7 ->  9         0.01274
       7 -> 12         0.00578
       7 -> 14         0.00212
       7 -> 15        -0.00106
       7 -> 19         0.00847
       7 -> 20        -0.00199
       7 -> 21         0.00049
       7 -> 25         0.00169
       7 -> 26         0.00040
       7 -> 30        -0.00037
       7 -> 31         0.00076
       7 -> 34        -0.00097
       7 -> 38        -0.00013
       7 -> 39         0.00022
       7 -> 48        -0.00022
       7 -> 51         0.00038
       8 -> 11         0.70535
       8 -> 16         0.04424
       8 -> 18        -0.00814
       8 -> 23         0.00246
       8 -> 24         0.00205
       8 -> 29         0.00376
       8 -> 33         0.00160
       8 -> 36        -0.00269
       8 -> 40         0.00018
       8 -> 42         0.00154
       8 -> 47        -0.00053
       3 <-  9         0.00057
       3 <- 12         0.00030
       3 <- 15         0.00032
       3 <- 19         0.00078
       3 <- 21        -0.00019
       3 <- 25         0.00033
       3 <- 30        -0.00061
       3 <- 31        -0.00015
       3 <- 34        -0.00021
       3 <- 38        -0.00024
       3 <- 39        -0.00024
       3 <- 41        -0.00011
       3 <- 45         0.00010
       3 <- 48        -0.00015
       3 <- 51        -0.00022
       3 <- 54         0.00017
       4 <- 11         0.00259
       4 <- 16         0.00273
       4 <- 18         0.00300
       4 <- 23         0.00106
       4 <- 24         0.00206
       4 <- 29         0.00028
       4 <- 33        -0.00026
       4 <- 36         0.00084
       4 <- 42        -0.00022
       4 <- 50        -0.00028
       4 <- 53        -0.00010
       5 <- 10         0.00263
       5 <- 13        -0.00122
       5 <- 17         0.00246
       5 <- 22         0.00234
       5 <- 28         0.00057
       5 <- 32         0.00071
       5 <- 37         0.00045
       5 <- 43         0.00035
       5 <- 49        -0.00032
       6 <-  9         0.00615
       6 <- 12        -0.00421
       6 <- 14         0.00467
       6 <- 15         0.00254
       6 <- 19         0.00108
       6 <- 20        -0.00386
       6 <- 21         0.00023
       6 <- 25         0.00421
       6 <- 26        -0.00048
       6 <- 30         0.00025
       6 <- 31        -0.00107
       6 <- 34        -0.00091
       6 <- 38        -0.00055
       6 <- 39         0.00083
       6 <- 44         0.00031
       6 <- 45        -0.00024
       6 <- 48        -0.00026
       7 <-  9         0.00450
       7 <- 12         0.00160
       7 <- 14         0.00099
       7 <- 15        -0.00044
       7 <- 19         0.00381
       7 <- 20        -0.00126
       7 <- 25         0.00104
       7 <- 26         0.00015
       7 <- 30        -0.00037
       7 <- 31         0.00050
       7 <- 34        -0.00066
       7 <- 38        -0.00017
       7 <- 39         0.00029
       7 <- 45        -0.00013
       7 <- 48        -0.00012
       7 <- 51         0.00035
       8 <- 11        -0.00462
       8 <- 16         0.00491
       8 <- 18        -0.01212
       8 <- 23        -0.00163
       8 <- 24        -0.00146
       8 <- 29         0.00211
       8 <- 33         0.00129
       8 <- 36        -0.00198
       8 <- 42         0.00124
       8 <- 47        -0.00058
       8 <- 53        -0.00011

 Excited State   5:      Singlet-A2     7.6109 eV  162.90 nm  f=0.0000  <S**2>=0.000
       3 -> 27         0.00219
       3 -> 35         0.00172
       3 -> 46         0.00078
       4 -> 10         0.00634
       4 -> 13         0.00972
       4 -> 17        -0.00092
       4 -> 22        -0.00235
       4 -> 28         0.00055
       4 -> 32         0.00216
       4 -> 37         0.00291
       4 -> 43         0.00031
       4 -> 49        -0.00010
       4 -> 52         0.00047
       5 -> 16        -0.00177
       5 -> 18        -0.00032
       5 -> 23         0.00157
       5 -> 29        -0.00038
       5 -> 33         0.00011
       5 -> 36         0.00045
       5 -> 42         0.00048
       5 -> 47         0.00046
       5 -> 53         0.00019
       6 -> 27         0.00166
       6 -> 35        -0.00082
       6 -> 46        -0.00025
       7 -> 27         0.00042
       7 -> 35        -0.00014
       7 -> 46         0.00084
       8 -> 10        -0.10428
       8 -> 13         0.69871
       8 -> 17         0.01623
       8 -> 22        -0.02389
       8 -> 28         0.00262
       8 -> 32         0.00200
       8 -> 37        -0.00173
       8 -> 43        -0.00017
       8 -> 49        -0.00012
       8 -> 52         0.00052
       3 <- 27         0.00140
       3 <- 35         0.00142
       3 <- 46         0.00088
       4 <- 10         0.00033
       4 <- 13         0.00055
       4 <- 17        -0.00033
       4 <- 32        -0.00045
       4 <- 37         0.00100
       4 <- 43         0.00030
       4 <- 52         0.00015
       5 <- 11         0.00034
       5 <- 16        -0.00042
       5 <- 18        -0.00094
       5 <- 23         0.00284
       5 <- 24        -0.00098
       5 <- 29         0.00022
       5 <- 33        -0.00078
       5 <- 36         0.00149
       5 <- 42         0.00082
       5 <- 47         0.00022
       5 <- 53         0.00043
       6 <- 27         0.00222
       6 <- 35        -0.00020
       6 <- 46        -0.00033
       7 <- 27         0.00060
       7 <- 35        -0.00026
       7 <- 46         0.00046
       8 <- 10        -0.00734
       8 <- 13        -0.00291
       8 <- 17        -0.00163
       8 <- 22         0.00063
       8 <- 28        -0.00033
       8 <- 32         0.00176
       8 <- 37        -0.00137
       8 <- 52         0.00020

 Excited State   6:      Singlet-B2     9.7113 eV  127.67 nm  f=0.1927  <S**2>=0.000
       3 -> 11        -0.00039
       3 -> 16         0.00107
       3 -> 18        -0.00082
       3 -> 23         0.00074
       3 -> 24         0.00040
       3 -> 29         0.00093
       3 -> 33        -0.00074

 The electronic state is 1-A1.
 Alpha  occ. eigenvalues --  -19.14179 -10.23869  -1.30032  -0.64539  -0.60208
 Alpha  occ. eigenvalues --   -0.58747  -0.53266  -0.23174
 Alpha virt. eigenvalues --    0.01360   0.02249   0.04433   0.04466   0.10318
 Alpha virt. eigenvalues --    0.14336   0.17672   0.20058   0.21799   0.24090
 Alpha virt. eigenvalues --    0.25566   0.36479   0.50373   0.53627   0.54874

 Mulliken charges:
               1
     1  C    0.271925
     2  H   -0.023609
     3  H   -0.023609
     4  O   -0.224708
 Sum of Mulliken charges =  -0.00000

 Dipole moment (field-independent basis, Debye):
    X=              0.0000    Y=              0.0000    Z=             -0.1048  Tot=              0.1048
 Quadrupole moment (field-independent basis, Debye-Ang):
   XX=            -10.6303   YY=            -12.6033   ZZ=            -13.3384
   XY=             -0.0000   XZ=             -0.0000   YZ=             -0.0000

 Normal termination of Gaussian 16 at Fri Sep 17 10:52:29 2021.
