 Gaussian 16, Revision A.03,
 Gaussian 16:  ES64L-G16RevA.03 25-Dec-2016

 --------------------------------------------------------------------
 #p B3LYP/6-311+G** #p TD=(singlets,nstates=30)IOp(6/8=3) IOp(9/40=4)
 --------------------------------------------------------------------

 --------------------------------
 Scan Step 207, Bond Length 1.535
 --------------------------------
 Symbolic Z-matrix:
 Charge =  0 Multiplicity = 1

                         Standard orientation:
 ---------------------------------------------------------------------
 Center     Atomic      Atomic             Coordinates (Angstroms)
 Number     Number       Type             X           Y           Z
 ---------------------------------------------------------------------
      1          6           0        0.000000    0.000000   -0.693581
      2          1           0        0.000000    0.937260   -1.284931
      3          1           0       -0.000000   -0.937260   -1.284931
      4          8           0        0.000000   -0.000000    0.841419
 ---------------------------------------------------------------------

 SCF Done:  E(RB3LYP) =  -114.452247176     A.U. after   10 cycles

 Excitation energies and oscillator strengths:

 Excited State   1:      Singlet-A2     2.2394 eV  553.65 nm  f=0.0000  <S**2>=0.000
       3 -> 27         0.00136
       3 -> 38         0.00104
       3 -> 46         0.00322
       4 -> 27         0.00083
       4 -> 38        -0.00018
       4 -> 46        -0.00136
       5 ->  9         0.00968
       5 -> 13         0.00072
       5 -> 18         0.00331
       5 -> 23         0.00158
       5 -> 28         0.00293
       5 -> 31        -0.00030
       5 -> 37         0.00165
       5 -> 44         0.00037
       5 -> 52         0.00040
       6 -> 27        -0.00061
       6 -> 38        -0.00082
       6 -> 46         0.00145
       7 -> 12        -0.00082
       7 -> 16         0.00452
       7 -> 19        -0.00386
       7 -> 22        -0.00062
       7 -> 25         0.00105
       7 -> 30        -0.00143
       7 -> 33         0.00039
       7 -> 49         0.00013
       7 -> 50         0.00019
       7 -> 53         0.00046
       8 ->  9         0.70803
       8 -> 13        -0.01590
       8 -> 18         0.02182
       8 -> 23        -0.00439
       8 -> 28         0.01107
       8 -> 31         0.00071
       8 -> 37         0.00065
       8 -> 48        -0.00031
       8 -> 52         0.00193
       3 <- 27         0.00068
       3 <- 38         0.00076
       3 <- 46         0.00328
       4 <- 27         0.00141
       4 <- 38         0.00023
       4 <- 46        -0.00110
       5 <-  9        -0.00038
       5 <- 13        -0.00058
       5 <- 18        -0.00077
       5 <- 23         0.00031
       5 <- 28        -0.00054
       5 <- 31         0.00040
       5 <- 37         0.00090
       5 <- 44         0.00013
       5 <- 52         0.00011
       6 <- 38        -0.00068
       6 <- 46         0.00112
       7 <- 12         0.00034
       7 <- 16        -0.00976
       7 <- 19         0.00319
       7 <- 22         0.00713
       7 <- 25         0.00047
       7 <- 30         0.00509
       7 <- 33        -0.00063
       7 <- 36         0.00108
       7 <- 40         0.00059
       7 <- 42         0.00012
       7 <- 49        -0.00033
       7 <- 50         0.00012
       7 <- 53         0.00145
       8 <-  9        -0.04593
       8 <- 13         0.00078
       8 <- 18        -0.00623
       8 <- 23         0.00031
       8 <- 28        -0.00220
       8 <- 31        -0.00058
       8 <- 37        -0.00057
       8 <- 52         0.00052
 This state for optimization and/or second-order correction.
 Total Energy, E(TD-HF/TD-DFT) =  -114.369951314
 Copying the excited state density for this state as the 1-particle RhoCI density.

 Excited State   2:      Singlet-A1     5.6870 eV  218.01 nm  f=0.0933  <S**2>=0.000
       3 -> 10         0.01137
       3 -> 11        -0.01654
       3 -> 14        -0.01294
       3 -> 15         0.01306
       3 -> 17        -0.00369
       3 -> 20        -0.00347
       3 -> 21        -0.00211
       3 -> 24         0.00337
       3 -> 26         0.00507
       3 -> 29        -0.00081
       3 -> 32         0.00279
       3 -> 34         0.00318
       3 -> 35        -0.00036
       3 -> 39         0.00097
       3 -> 43         0.00043
       3 -> 45        -0.00055
       3 -> 47         0.00213
       3 -> 51         0.00082
       3 -> 54         0.00025
       4 -> 10         0.01687
       4 -> 11         0.01085
       4 -> 14        -0.00936
       4 -> 15        -0.00878
       4 -> 17         0.00327
       4 -> 20         0.00662
       4 -> 21         0.00038
       4 -> 24        -0.00568
       4 -> 26         0.00552
       4 -> 29         0.00116
       4 -> 32        -0.00126
       4 -> 34        -0.00220
       4 -> 35         0.00013
       4 -> 39        -0.00016
       4 -> 41         0.00014
       4 -> 43        -0.00035
       4 -> 45        -0.00054
       4 -> 47        -0.00150
       4 -> 51        -0.00028
       5 -> 12         0.02063
       5 -> 16         0.01551
       5 -> 19         0.00158
       5 -> 22         0.00673
       5 -> 25         0.00967
       5 -> 30        -0.00081
       5 -> 33        -0.00324
       5 -> 36         0.00262
       5 -> 40         0.00157
       5 -> 42         0.00062
       5 -> 49         0.00055
       5 -> 50        -0.00061
       5 -> 53        -0.00018
       6 -> 10        -0.08939
       6 -> 11         0.10878
       6 -> 14         0.08509
       6 -> 15        -0.10098
       6 -> 17        -0.02050
       6 -> 20        -0.01664
       6 -> 21         0.01766
       6 -> 24        -0.01688
       6 -> 26        -0.00844
       6 -> 29        -0.00894
       6 -> 32         0.00030
       6 -> 34         0.00174
       6 -> 35        -0.00118
       6 -> 39         0.00065
       6 -> 41        -0.00055
       6 -> 43         0.00073
       6 -> 45         0.00056
       6 -> 47         0.00154
       6 -> 51         0.00084
       6 -> 54        -0.00054
       7 ->  9         0.68568
       7 -> 13         0.00551
       7 -> 18        -0.02134
       7 -> 23         0.00163
       7 -> 28        -0.00251
       7 -> 31        -0.00276
       7 -> 37         0.00066
       7 -> 44        -0.00105
       7 -> 48         0.00050
       7 -> 52         0.00104
       8 -> 12        -0.00580
       8 -> 16         0.08522
       8 -> 19        -0.02574
       8 -> 22        -0.03250
       8 -> 25         0.00118
       8 -> 30        -0.01332
       8 -> 33         0.00305
       8 -> 36        -0.00381
       8 -> 40        -0.00176
       8 -> 42        -0.00034
       8 -> 49         0.00066
       8 -> 50         0.00027
       8 -> 53        -0.00080
       3 <- 10         0.00715
       3 <- 11        -0.01100
       3 <- 14        -0.00929
       3 <- 15         0.00883
       3 <- 17        -0.00185
       3 <- 20        -0.00233
       3 <- 21        -0.00221
       3 <- 24         0.00221
       3 <- 26         0.00315
       3 <- 29        -0.00045
       3 <- 32         0.00255
       3 <- 34         0.00211
       3 <- 35        -0.00036
       3 <- 39         0.00082
       3 <- 41         0.00011
       3 <- 43         0.00051
       3 <- 45        -0.00038
       3 <- 47         0.00230
       3 <- 51         0.00079
       3 <- 54         0.00034
       4 <- 10         0.00817
       4 <- 11         0.00646
       4 <- 14        -0.00453
       4 <- 15        -0.00515
       4 <- 17         0.00154
       4 <- 20         0.00502
       4 <- 21         0.00031
       4 <- 24        -0.00372
       4 <- 26         0.00419
       4 <- 29         0.00029
       4 <- 32        -0.00160
       4 <- 34        -0.00193
       4 <- 35         0.00034
       4 <- 39        -0.00022
       4 <- 43        -0.00035
       4 <- 45        -0.00077
       4 <- 47        -0.00111
       4 <- 51        -0.00012
       5 <- 12         0.00824
       5 <- 16         0.00726
       5 <- 19         0.00105
       5 <- 22         0.00394
       5 <- 25         0.00623
       5 <- 30        -0.00041
       5 <- 33        -0.00245
       5 <- 36         0.00210
       5 <- 40         0.00135
       5 <- 42         0.00050
       5 <- 49         0.00047
       5 <- 50        -0.00056
       5 <- 53        -0.00016
       6 <- 10        -0.02405
       6 <- 11         0.03132
       6 <- 14         0.03103
       6 <- 15        -0.04014
       6 <- 17        -0.00913
       6 <- 20        -0.00928
       6 <- 21         0.00967
       6 <- 24        -0.00989
       6 <- 26        -0.00497
       6 <- 29        -0.00594
       6 <- 32         0.00078
       6 <- 34         0.00203
       6 <- 35        -0.00103
       6 <- 39         0.00077
       6 <- 41        -0.00037
       6 <- 43         0.00063
       6 <- 45         0.00063
       6 <- 47         0.00105
       6 <- 51         0.00066
       6 <- 54        -0.00044
       7 <-  9        -0.11886
       7 <- 13         0.00891
       7 <- 18        -0.01440
       7 <- 23         0.00460
       7 <- 28        -0.00460
       7 <- 31        -0.00116
       7 <- 37         0.00015
       7 <- 44        -0.00057
       7 <- 52         0.00089
       8 <- 12        -0.00104
       8 <- 16         0.02605
       8 <- 19        -0.00976
       8 <- 22        -0.01631
       8 <- 25         0.00036
       8 <- 30        -0.00923
       8 <- 33         0.00221
       8 <- 36        -0.00284
       8 <- 40        -0.00140
       8 <- 42        -0.00027
       8 <- 49         0.00046
       8 <- 50         0.00022
       8 <- 53        -0.00072

 Excited State   3:      Singlet-B1     5.9002 eV  210.13 nm  f=0.0015  <S**2>=0.000
       3 ->  9        -0.03054
       3 -> 13         0.00216
       3 -> 18        -0.00514
       3 -> 23         0.00211
       3 -> 28        -0.00117
       3 -> 31        -0.00049
       3 -> 44         0.00029
       3 -> 48         0.00086
       3 -> 52         0.00102
       4 ->  9         0.01445
       4 -> 13        -0.00270
       4 -> 18         0.00039
       4 -> 23        -0.00246
       4 -> 28         0.00021
       4 -> 31        -0.00167
       4 -> 37        -0.00044
       4 -> 44         0.00011
       4 -> 48        -0.00123
       4 -> 52        -0.00068
       5 -> 27        -0.00044
       5 -> 38         0.00200
       5 -> 46         0.00119
       6 ->  9         0.70592
       6 -> 13        -0.02189
       6 -> 18         0.01787
       6 -> 23        -0.01130
       6 -> 28         0.00479
       6 -> 31         0.00356
       6 -> 37        -0.00233
       6 -> 44        -0.00309
       6 -> 48         0.00444
       6 -> 52         0.00157
       7 -> 10        -0.01634
       7 -> 11         0.01797
       7 -> 14         0.01158
       7 -> 15        -0.00821
       7 -> 17        -0.00961
       7 -> 20         0.00256
       7 -> 21        -0.00038
       7 -> 24        -0.00016
       7 -> 26        -0.00113
       7 -> 29        -0.00412
       7 -> 32        -0.00085
       7 -> 34         0.00031
       7 -> 35         0.00185
       7 -> 39         0.00012
       7 -> 41        -0.00079
       7 -> 43         0.00062
       7 -> 45        -0.00148
       7 -> 47         0.00430
       7 -> 51         0.00116
       7 -> 54         0.00049
       8 -> 27         0.00081
       8 -> 38         0.00022
       8 -> 46         0.00572
       3 <-  9        -0.01011
       3 <- 13        -0.00043
       3 <- 18        -0.00305
       3 <- 23        -0.00043
       3 <- 28        -0.00078
       3 <- 31        -0.00062
       3 <- 44        -0.00027
       3 <- 48         0.00106
       3 <- 52         0.00081
       4 <-  9         0.00664
       4 <- 13        -0.00014
       4 <- 18         0.00212
       4 <- 23        -0.00048
       4 <- 28         0.00182
       4 <- 31        -0.00117
       4 <- 37        -0.00018
       4 <- 44         0.00014
       4 <- 48        -0.00107
       4 <- 52        -0.00038
       5 <- 27        -0.00093
       5 <- 38         0.00159
       5 <- 46         0.00106
       6 <-  9        -0.02379
       6 <- 13         0.00176
       6 <- 18        -0.00311
       6 <- 23        -0.00026
       6 <- 28        -0.00319
       6 <- 31         0.00157
       6 <- 37        -0.00207
       6 <- 44        -0.00177
       6 <- 48         0.00396
       6 <- 52         0.00056
       7 <- 10         0.00847
       7 <- 11        -0.01082
       7 <- 14        -0.01091
       7 <- 15         0.01598
       7 <- 17         0.00091
       7 <- 20         0.00553
       7 <- 21        -0.00487
       7 <- 24         0.00470
       7 <- 26         0.00196
       7 <- 29         0.00085
       7 <- 32        -0.00050
       7 <- 35         0.00289
       7 <- 39         0.00040
       7 <- 41        -0.00041
       7 <- 43         0.00051
       7 <- 45        -0.00151
       7 <- 47         0.00387
       7 <- 51         0.00096
       7 <- 54         0.00109
       8 <- 27         0.00121
       8 <- 38         0.00039
       8 <- 46         0.00528

 Excited State   4:      Singlet-B2     6.6157 eV  187.41 nm  f=0.0186  <S**2>=0.000
       3 -> 12         0.00173
       3 -> 16        -0.00136
       3 -> 19         0.00375
       3 -> 22        -0.00030
       3 -> 25         0.00014
       3 -> 30         0.00269
       3 -> 33         0.00038
       3 -> 36        -0.00187
       3 -> 40        -0.00144
       3 -> 42        -0.00015
       3 -> 49         0.00189
       3 -> 50        -0.00020
       3 -> 53        -0.00024
       4 -> 12        -0.00062
       4 -> 16         0.00290
       4 -> 19         0.00058
       4 -> 22        -0.00349
       4 -> 25         0.00269
       4 -> 30        -0.00112
       4 -> 33         0.00040
       4 -> 36        -0.00041
       4 -> 40         0.00050
       4 -> 49        -0.00026
       5 -> 10        -0.00048
       5 -> 11        -0.00436
       5 -> 14        -0.01461
       5 -> 15         0.00089
       5 -> 17        -0.00152
       5 -> 20        -0.00143
       5 -> 21        -0.00672
       5 -> 24        -0.00185
       5 -> 26         0.00214
       5 -> 29         0.00183
       5 -> 32         0.00060
       5 -> 34         0.00132
       5 -> 35         0.00065
       5 -> 39         0.00076
       5 -> 41        -0.00082
       5 -> 45        -0.00028
       5 -> 47         0.00072
       5 -> 51        -0.00044
       5 -> 54         0.00021
       6 -> 12        -0.00348
       6 -> 16         0.00118
       6 -> 19        -0.00203
       6 -> 22        -0.00044
       6 -> 25         0.00073
       6 -> 30         0.00045
       6 -> 33        -0.00048
       6 -> 36         0.00209
       6 -> 40         0.00152
       6 -> 42         0.00019
       6 -> 49        -0.00117
       6 -> 53         0.00025
       7 -> 27         0.00049
       7 -> 38        -0.00101
       7 -> 46        -0.00288
       8 -> 10         0.64955
       8 -> 11        -0.25110
       8 -> 14        -0.09621
       8 -> 15         0.07432
       8 -> 17         0.00773
       8 -> 20         0.00604
       8 -> 21        -0.00379
       8 -> 24         0.00465
       8 -> 26         0.00532
       8 -> 29         0.00745
       8 -> 32         0.00184
       8 -> 34         0.00116
       8 -> 35         0.00067
       8 -> 39         0.00043
       8 -> 41        -0.00047
       8 -> 43         0.00064
       8 -> 45        -0.00211
       8 -> 47         0.00293
       8 -> 51        -0.00180
       8 -> 54         0.00108
       3 <- 12         0.00056
       3 <- 16        -0.00024
       3 <- 19         0.00175
       3 <- 22        -0.00081
       3 <- 30         0.00106
       3 <- 33         0.00034
       3 <- 36        -0.00151
       3 <- 40        -0.00130
       3 <- 42        -0.00013
       3 <- 49         0.00195
       3 <- 50        -0.00017
       3 <- 53        -0.00066
       4 <- 12         0.00048
       4 <- 16         0.00246
       4 <- 19         0.00069
       4 <- 22        -0.00277
       4 <- 25         0.00166
       4 <- 30        -0.00090
       4 <- 33         0.00049
       4 <- 36        -0.00059
       4 <- 40         0.00014
       4 <- 42        -0.00017
       4 <- 49        -0.00020
       5 <- 10         0.00143
       5 <- 11         0.00130
       5 <- 14        -0.00344
       5 <- 15        -0.00318
       5 <- 17        -0.00026
       5 <- 20        -0.00025
       5 <- 21        -0.00195
       5 <- 24        -0.00282
       5 <- 26         0.00085
       5 <- 29         0.00046
       5 <- 32        -0.00047
       5 <- 34         0.00049
       5 <- 39         0.00023
       5 <- 41        -0.00077
       5 <- 43        -0.00016
       5 <- 45        -0.00053
       5 <- 47         0.00048
       5 <- 51        -0.00023
       6 <- 12        -0.00023
       6 <- 16        -0.00381
       6 <- 19         0.00177
       6 <- 22         0.00264
       6 <- 25         0.00030
       6 <- 30         0.00335
       6 <- 33        -0.00068
       6 <- 36         0.00207
       6 <- 40         0.00146
       6 <- 42         0.00023
       6 <- 49        -0.00121
       6 <- 53         0.00074
       7 <- 27         0.00051
       7 <- 38        -0.00077
       7 <- 46        -0.00234
       8 <- 10        -0.00653
       8 <- 11         0.00883
       8 <- 14         0.00911
       8 <- 15        -0.00606
       8 <- 17        -0.00021
       8 <- 20         0.00154
       8 <- 21         0.00227
       8 <- 24        -0.00061
       8 <- 26        -0.00192
       8 <- 29         0.00071
       8 <- 32        -0.00142
       8 <- 34        -0.00117
       8 <- 35        -0.00018
       8 <- 39        -0.00111
       8 <- 41        -0.00057
       8 <- 45        -0.00242
       8 <- 47         0.00192
       8 <- 51        -0.00103
       8 <- 54         0.00026

 Excited State   5:      Singlet-B2     7.1445 eV  173.54 nm  f=0.0064  <S**2>=0.000
       3 -> 12         0.00116
       3 -> 16         0.00186
       3 -> 19        -0.00156
       3 -> 22        -0.00041
       3 -> 25         0.00095
       3 -> 30        -0.00303
       3 -> 36         0.00088
       3 -> 40         0.00076
       3 -> 49        -0.00106
       4 -> 12        -0.00152
       4 -> 19         0.00078
       4 -> 22        -0.00019
       4 -> 30         0.00161
       4 -> 33        -0.00031
       4 -> 36         0.00051
       4 -> 50        -0.00013
       5 -> 10        -0.00803
       5 -> 11         0.00035
       5 -> 14         0.00263
       5 -> 15         0.00595
       5 -> 17         0.00178
       5 -> 20         0.00253
       5 -> 21         0.00152
       5 -> 26        -0.00085
       5 -> 29        -0.00084
       5 -> 32        -0.00161
       5 -> 35        -0.00055
       5 -> 39        -0.00077
       5 -> 43        -0.00037
       5 -> 45         0.00047
       5 -> 47        -0.00054
       5 -> 51         0.00039
       6 -> 12        -0.00039
       6 -> 16        -0.00018
       6 -> 19         0.00088
       6 -> 22        -0.00111
       6 -> 30        -0.00105
       6 -> 33         0.00011
       6 -> 36        -0.00064
       6 -> 40        -0.00101
       6 -> 42        -0.00024
       6 -> 49         0.00156
       6 -> 50        -0.00013
       6 -> 53        -0.00015
       7 -> 27        -0.00072
       7 -> 46         0.00243
       8 -> 10         0.26274
       8 -> 11         0.65328
       8 -> 14         0.02651
       8 -> 15        -0.05603
       8 -> 17        -0.00667
       8 -> 20         0.01530
       8 -> 21         0.00425
       8 -> 24        -0.00426
       8 -> 26         0.00047
       8 -> 29        -0.00431
       8 -> 32        -0.00062
       8 -> 34        -0.00091
       8 -> 35        -0.00091
       8 -> 39         0.00011
       8 -> 41         0.00016
       8 -> 45         0.00216
       8 -> 47        -0.00236

 The electronic state is 1-A1.
 Alpha  occ. eigenvalues --  -19.16958 -10.32092  -0.94477  -0.68979  -0.48817
 Alpha  occ. eigenvalues --   -0.42380  -0.33998  -0.29003
 Alpha virt. eigenvalues --   -0.13512  -0.00570   0.02014   0.04108   0.06147
 Alpha virt. eigenvalues --    0.10314   0.14254   0.14878   0.18955   0.21522
 Alpha virt. eigenvalues --    0.23921   0.30088   0.39519   0.41766   0.50973

 Mulliken charges:
               1
     1  C   -0.048578
     2  H    0.172516
     3  H    0.172516
     4  O   -0.296453
 Sum of Mulliken charges =   0.00000

 Dipole moment (field-independent basis, Debye):
    X=             -0.0000    Y=              0.0000    Z=             -3.6070  Tot=              3.6070
 Quadrupole moment (field-independent basis, Debye-Ang):
   XX=            -12.6076   YY=            -11.8435   ZZ=            -11.5049
   XY=              0.0000   XZ=              0.0000   YZ=             -0.0000

 Normal termination of Gaussian 16 at Fri Sep 17 10:52:56 2021.
