 Gaussian 16, Revision A.03,
 Gaussian 16:  ES64L-G16RevA.03 25-Dec-2016

 --------------------------------------------------------------------
 #p B3LYP/6-311+G** #p TD=(singlets,nstates=30)IOp(6/8=3) IOp(9/40=4)
 --------------------------------------------------------------------

 ------------------------------
 Scan Step 82, Bond Length 0.91
 ------------------------------
 Symbolic Z-matrix:
 Charge =  0 Multiplicity = 1

                         Standard orientation:
 ---------------------------------------------------------------------
 Center     Atomic      Atomic             Coordinates (Angstroms)
 Number     Number       Type             X           Y           Z
 ---------------------------------------------------------------------
      1          6           0        0.000000    0.000000   -0.381081
      2          1           0        0.000000    0.937260   -0.972431
      3          1           0       -0.000000   -0.937260   -0.972431
      4          8           0        0.000000   -0.000000    0.528919
 ---------------------------------------------------------------------

 SCF Done:  E(RB3LYP) =  -114.270083156     A.U. after    9 cycles

 Excitation energies and oscillator strengths:

 Excited State   1:      Singlet-A2     5.4680 eV  226.74 nm  f=0.0000  <S**2>=0.000
       3 -> 27         0.00291
       3 -> 36         0.00230
       3 -> 46         0.00130
       4 ->  9         0.00963
       4 -> 13         0.00931
       4 -> 17         0.00612
       4 -> 22        -0.00349
       4 -> 28         0.00313
       4 -> 32         0.00207
       4 -> 37         0.00365
       4 -> 43         0.00055
       4 -> 52         0.00074
       5 -> 27         0.00343
       5 -> 36        -0.00073
       5 -> 46        -0.00073
       6 -> 12        -0.00058
       6 -> 16        -0.00117
       6 -> 18        -0.00058
       6 -> 23         0.00176
       6 -> 24         0.00059
       6 -> 29        -0.00044
       6 -> 33         0.00027
       6 -> 35         0.00054
       6 -> 40        -0.00012
       6 -> 42         0.00050
       6 -> 47         0.00066
       6 -> 50        -0.00017
       6 -> 53         0.00029
       7 -> 27         0.00097
       7 -> 36        -0.00032
       7 -> 46         0.00124
       8 ->  9         0.69560
       8 -> 13         0.12299
       8 -> 17         0.02967
       8 -> 22        -0.00858
       8 -> 28         0.00540
       8 -> 32         0.00346
       8 -> 37        -0.00226
       8 -> 43        -0.00022
       8 -> 52         0.00098
       3 <- 27         0.00214
       3 <- 36         0.00197
       3 <- 46         0.00134
       4 <-  9         0.00026
       4 <- 13         0.00114
       4 <- 22         0.00027
       4 <- 28        -0.00012
       4 <- 32        -0.00110
       4 <- 37         0.00165
       4 <- 43         0.00044
       4 <- 49         0.00011
       4 <- 52         0.00019
       5 <- 27         0.00395
       5 <- 36        -0.00044
       5 <- 46        -0.00070
       6 <- 12        -0.00094
       6 <- 16         0.00221
       6 <- 18        -0.00314
       6 <- 23         0.00484
       6 <- 24        -0.00156
       6 <- 29         0.00175
       6 <- 33        -0.00095
       6 <- 35         0.00205
       6 <- 40        -0.00018
       6 <- 42         0.00091
       6 <- 47         0.00050
       6 <- 53         0.00078
       7 <- 27         0.00112
       7 <- 36        -0.00037
       7 <- 46         0.00098
       8 <-  9        -0.00969
       8 <- 13        -0.00833
       8 <- 17        -0.00414
       8 <- 22         0.00051
       8 <- 28        -0.00040
       8 <- 32         0.00271
       8 <- 37        -0.00228
       8 <- 52         0.00030
 This state for optimization and/or second-order correction.
 Total Energy, E(TD-HF/TD-DFT) =  -114.069137770
 Copying the excited state density for this state as the 1-particle RhoCI density.

 Excited State   2:      Singlet-B2     5.9937 eV  206.86 nm  f=0.0825  <S**2>=0.000
       3 -> 12         0.00093
       3 -> 16         0.00013
       3 -> 18         0.00106
       3 -> 24         0.00117
       3 -> 29        -0.00018
       3 -> 35        -0.00012
       3 -> 42         0.00013
       3 -> 50        -0.00015
       4 -> 10         0.00113
       4 -> 11        -0.00714
       4 -> 14         0.00553
       4 -> 15         0.00157
       4 -> 19         0.00372
       4 -> 20        -0.00107
       4 -> 21         0.00307
       4 -> 25         0.00112
       4 -> 26        -0.00129
       4 -> 30         0.00233
       4 -> 34         0.00024
       4 -> 38        -0.00076
       4 -> 39         0.00016
       4 -> 41         0.00035
       4 -> 44         0.00044
       4 -> 45        -0.00057
       4 -> 48         0.00036
       5 -> 12        -0.00604
       5 -> 16         0.00098
       5 -> 18         0.00163
       5 -> 23        -0.00266
       5 -> 24         0.00406
       5 -> 29        -0.00049
       5 -> 33        -0.00099
       5 -> 35         0.00089
       5 -> 40        -0.00019
       5 -> 42         0.00045
       6 -> 27         0.00094
       6 -> 36         0.00016
       6 -> 46         0.00085
       7 -> 12         0.00223
       7 -> 16         0.00252
       7 -> 18         0.00399
       7 -> 23        -0.00231
       7 -> 24         0.00235
       7 -> 35        -0.00016
       7 -> 42        -0.00038
       7 -> 47         0.00038
       7 -> 50         0.00050
       8 -> 10         0.70622
       8 -> 11        -0.01886
       8 -> 14        -0.01663
       8 -> 15         0.01149
       8 -> 19         0.01997
       8 -> 20         0.00832
       8 -> 21        -0.00747
       8 -> 25         0.00074
       8 -> 26        -0.00064
       8 -> 31         0.00268
       8 -> 34         0.00161
       8 -> 38         0.00080
       8 -> 39        -0.00056
       8 -> 41        -0.00033
       8 -> 44        -0.00046
       8 -> 45        -0.00105
       8 -> 48         0.00031
       8 -> 54        -0.00015
       3 <- 12         0.00030
       3 <- 16        -0.00011
       3 <- 18         0.00061
       3 <- 23        -0.00013
       3 <- 24         0.00084
       3 <- 29        -0.00016
       3 <- 35        -0.00012
       3 <- 42         0.00010
       4 <- 10         0.00215
       4 <- 14         0.00431
       4 <- 15         0.00166
       4 <- 19         0.00094
       4 <- 20        -0.00030
       4 <- 21         0.00185
       4 <- 25         0.00166
       4 <- 26        -0.00127
       4 <- 30         0.00085
       4 <- 31        -0.00032
       4 <- 38        -0.00052
       4 <- 39         0.00016
       4 <- 41         0.00039
       4 <- 44         0.00029
       4 <- 45        -0.00050
       4 <- 48         0.00032
       5 <- 16         0.00071
       5 <- 18         0.00258
       5 <- 23        -0.00159
       5 <- 24         0.00308
       5 <- 29        -0.00039
       5 <- 33        -0.00074
       5 <- 35         0.00066
       5 <- 40        -0.00022
       5 <- 42         0.00018
       6 <- 27         0.00073
       6 <- 36         0.00013
       6 <- 46         0.00072
       7 <- 12         0.00062
       7 <- 16         0.00174
       7 <- 18         0.00149
       7 <- 23        -0.00093
       7 <- 24         0.00106
       7 <- 29         0.00065
       7 <- 33        -0.00010
       7 <- 42        -0.00033
       7 <- 47         0.00035
       7 <- 50         0.00055
       8 <- 10        -0.00417
       8 <- 11        -0.00186
       8 <- 14        -0.01233
       8 <- 15        -0.00173
       8 <- 19        -0.00098
       8 <- 20        -0.00029
       8 <- 21        -0.00408
       8 <- 25        -0.00310
       8 <- 26        -0.00062
       8 <- 30        -0.00052
       8 <- 31         0.00134
       8 <- 34         0.00157
       8 <- 38         0.00080
       8 <- 39        -0.00046
       8 <- 41        -0.00019
       8 <- 44        -0.00043
       8 <- 45        -0.00074
       8 <- 48         0.00029

 Excited State   3:      Singlet-B2     6.7822 eV  182.81 nm  f=0.0216  <S**2>=0.000
       3 -> 12        -0.00012
       3 -> 16         0.00068
       3 -> 23         0.00018
       3 -> 24         0.00042
       3 -> 29         0.00102
       3 -> 33         0.00014
       3 -> 35        -0.00030
       3 -> 42        -0.00031
       3 -> 47         0.00020
       3 -> 50         0.00022
       4 -> 10        -0.00542
       4 -> 14         0.00326
       4 -> 15         0.00489
       4 -> 19        -0.00344
       4 -> 20        -0.00095
       4 -> 21         0.00133
       4 -> 25         0.00101
       4 -> 26         0.00125
       4 -> 30         0.00075
       4 -> 31        -0.00210
       4 -> 34        -0.00053
       4 -> 39        -0.00073
       4 -> 41        -0.00074
       4 -> 44         0.00011
       4 -> 45         0.00061
       4 -> 48        -0.00044
       4 -> 51        -0.00023
       5 -> 12         0.00285
       5 -> 16         0.00399
       5 -> 18         0.00209
       5 -> 23        -0.00146
       5 -> 24         0.00365
       5 -> 29        -0.00116
       5 -> 33         0.00056
       5 -> 35        -0.00017
       5 -> 40        -0.00024
       5 -> 47         0.00014
       5 -> 50         0.00013
       6 -> 27        -0.00082
       6 -> 36        -0.00133
       6 -> 46        -0.00111
       7 -> 12        -0.00297
       7 -> 16         0.00027
       7 -> 18        -0.00242
       7 -> 23         0.00134
       7 -> 24        -0.00029
       7 -> 33        -0.00027
       7 -> 35         0.00124
       7 -> 40        -0.00032
       7 -> 42         0.00068
       7 -> 47        -0.00067
       7 -> 50        -0.00061
       7 -> 53         0.00016
       8 -> 10         0.01931
       8 -> 11         0.70583
       8 -> 14        -0.01674
       8 -> 15        -0.02281
       8 -> 19        -0.01825
       8 -> 20         0.01476
       8 -> 21        -0.00272
       8 -> 25         0.00034
       8 -> 26        -0.00011
       8 -> 30        -0.00173
       8 -> 31         0.00033
       8 -> 34         0.00040
       8 -> 38        -0.00014
       8 -> 39        -0.00061
       8 -> 41        -0.00133
       8 -> 44         0.00011
       8 -> 45         0.00071
       8 -> 48        -0.00067
       8 -> 51        -0.00016
       8 -> 54         0.00017
       3 <- 12         0.00024
       3 <- 16         0.00059
       3 <- 18         0.00032
       3 <- 24         0.00048
       3 <- 29         0.00067
       3 <- 33         0.00018
       3 <- 35        -0.00033
       3 <- 42        -0.00027
       3 <- 47         0.00016
       3 <- 50         0.00012
       3 <- 53        -0.00021
       4 <- 10         0.00136
       4 <- 11        -0.00033
       4 <- 14         0.00186
       4 <- 15         0.00055
       4 <- 19         0.00064
       4 <- 20         0.00024
       4 <- 21         0.00102
       4 <- 25         0.00094
       4 <- 26         0.00093
       4 <- 30         0.00083
       4 <- 31        -0.00073
       4 <- 34        -0.00106
       4 <- 39        -0.00051
       4 <- 41        -0.00075
       4 <- 44         0.00013
       4 <- 45         0.00062
       4 <- 48        -0.00031
       4 <- 51        -0.00022
       5 <- 12         0.00028
       5 <- 16         0.00059
       5 <- 18         0.00118
       5 <- 23        -0.00127
       5 <- 24         0.00173
       5 <- 29        -0.00049
       5 <- 33         0.00056
       5 <- 35         0.00015
       5 <- 40        -0.00024
       5 <- 50         0.00021
       6 <- 27        -0.00037
       6 <- 36        -0.00109
       6 <- 46        -0.00096
       7 <- 12        -0.00036
       7 <- 16        -0.00031
       7 <- 18        -0.00025
       7 <- 23         0.00026
       7 <- 29        -0.00031
       7 <- 35         0.00087
       7 <- 40        -0.00025
       7 <- 42         0.00048
       7 <- 47        -0.00058
       7 <- 50        -0.00056
       8 <- 10        -0.00175
       8 <- 11         0.00123
       8 <- 14        -0.00627
       8 <- 15        -0.00136
       8 <- 19         0.00206
       8 <- 20        -0.00191
       8 <- 21        -0.00261
       8 <- 25        -0.00036
       8 <- 26         0.00092
       8 <- 30        -0.00111
       8 <- 31         0.00112
       8 <- 34        -0.00010
       8 <- 38        -0.00030
       8 <- 39        -0.00037
       8 <- 41        -0.00112
       8 <- 45         0.00061
       8 <- 48        -0.00043
       8 <- 51        -0.00017

 Excited State   4:      Singlet-A1     6.9197 eV  179.18 nm  f=0.0443  <S**2>=0.000
       3 -> 10         0.00135
       3 -> 11        -0.00085
       3 -> 14         0.00015
       3 -> 15         0.00056
       3 -> 19         0.00129
       3 -> 20         0.00041
       3 -> 21        -0.00022
       3 -> 25         0.00021
       3 -> 30         0.00107
       3 -> 31        -0.00026
       3 -> 34        -0.00021
       3 -> 38        -0.00035
       3 -> 39        -0.00024
       3 -> 41        -0.00014
       3 -> 48        -0.00015
       3 -> 51        -0.00030
       3 -> 54         0.00021
       4 -> 12         0.00759
       4 -> 16         0.00734
       4 -> 18         0.00803
       4 -> 23         0.00052
       4 -> 24         0.00427
       4 -> 29         0.00060
       4 -> 33        -0.00016
       4 -> 35         0.00093
       4 -> 42        -0.00022
       4 -> 50        -0.00036
       4 -> 53        -0.00014
       5 -> 10         0.00558
       5 -> 11         0.01026
       5 -> 14         0.00627
       5 -> 15         0.00171
       5 -> 19         0.00096
       5 -> 20         0.00660
       5 -> 21         0.00224
       5 -> 25         0.00689
       5 -> 26        -0.00083
       5 -> 30        -0.00075
       5 -> 31        -0.00063
       5 -> 34        -0.00100
       5 -> 38        -0.00023
       5 -> 39         0.00079
       5 -> 41         0.00016
       5 -> 45        -0.00033
       5 -> 48        -0.00027
       6 ->  9         0.00797
       6 -> 13        -0.00379
       6 -> 17         0.00518
       6 -> 22         0.00423
       6 -> 28         0.00062
       6 -> 32         0.00088
       6 -> 37         0.00053
       6 -> 43         0.00052
       6 -> 49        -0.00037
       7 -> 10         0.01319
       7 -> 11        -0.00511
       7 -> 14         0.00305
       7 -> 15        -0.00116
       7 -> 19         0.00759
       7 -> 20         0.00323
       7 -> 21         0.00115
       7 -> 25         0.00203
       7 -> 26        -0.00017
       7 -> 30         0.00012
       7 -> 31         0.00061
       7 -> 34        -0.00093
       7 -> 39         0.00023
       7 -> 48        -0.00020
       7 -> 51         0.00046
       8 -> 12         0.70550
       8 -> 16         0.04116
       8 -> 18         0.00326
       8 -> 23         0.00387
       8 -> 24         0.00147
       8 -> 29         0.00311
       8 -> 33         0.00154
       8 -> 35        -0.00249
       8 -> 42         0.00137
       8 -> 47        -0.00043
       8 -> 50        -0.00012
       8 -> 53        -0.00013
       3 <- 10         0.00057
       3 <- 11        -0.00031
       3 <- 14         0.00011
       3 <- 15         0.00027
       3 <- 19         0.00070
       3 <- 20         0.00017
       3 <- 25         0.00029
       3 <- 30         0.00064
       3 <- 31        -0.00021
       3 <- 34        -0.00015
       3 <- 38        -0.00026
       3 <- 39        -0.00020
       3 <- 41        -0.00015
       3 <- 48        -0.00017
       3 <- 51        -0.00025
       3 <- 54         0.00019
       4 <- 12         0.00266
       4 <- 16         0.00196
       4 <- 18         0.00377
       4 <- 23         0.00066
       4 <- 24         0.00231
       4 <- 29         0.00018
       4 <- 33        -0.00029
       4 <- 35         0.00081
       4 <- 42        -0.00019
       4 <- 50        -0.00029
       4 <- 53        -0.00013
       5 <- 10         0.00570
       5 <- 11         0.00357
       5 <- 14         0.00467
       5 <- 15         0.00174
       5 <- 19         0.00073
       5 <- 20         0.00372
       5 <- 21         0.00075
       5 <- 25         0.00416
       5 <- 26        -0.00037
       5 <- 31        -0.00088
       5 <- 34        -0.00089
       5 <- 38        -0.00033
       5 <- 39         0.00067
       5 <- 44         0.00011
       5 <- 45        -0.00031
       5 <- 48        -0.00022
       6 <-  9         0.00268
       6 <- 13        -0.00148
       6 <- 17         0.00231
       6 <- 22         0.00249
       6 <- 28         0.00037
       6 <- 32         0.00067
       6 <- 37         0.00044
       6 <- 43         0.00044
       6 <- 49        -0.00032
       7 <- 10         0.00446
       7 <- 11        -0.00115
       7 <- 14         0.00146
       7 <- 15        -0.00040
       7 <- 19         0.00321
       7 <- 20         0.00185
       7 <- 21         0.00040
       7 <- 25         0.00121
       7 <- 26        -0.00026
       7 <- 30         0.00024
       7 <- 31         0.00035
       7 <- 34        -0.00066
       7 <- 38        -0.00011
       7 <- 39         0.00029
       7 <- 41         0.00011
       7 <- 51         0.00043
       8 <- 12        -0.00342
       8 <- 16         0.00633
       8 <- 18        -0.00977
       8 <- 23        -0.00055
       8 <- 24        -0.00218
       8 <- 29         0.00149
       8 <- 33         0.00113
       8 <- 35        -0.00173
       8 <- 42         0.00111
       8 <- 47        -0.00050
       8 <- 50        -0.00011
       8 <- 53        -0.00015

 Excited State   5:      Singlet-A2     7.6290 eV  162.52 nm  f=0.0000  <S**2>=0.000
       3 -> 27         0.00159
       3 -> 36         0.00132
       3 -> 46         0.00067
       4 ->  9         0.00889
       4 -> 13         0.00699
       4 -> 17        -0.00278
       4 -> 22        -0.00097
       4 -> 28         0.00024
       4 -> 32         0.00221
       4 -> 37         0.00233
       4 -> 43         0.00032
       4 -> 52         0.00037
       5 -> 27         0.00075
       5 -> 36        -0.00072
       5 -> 46        -0.00023
       6 -> 12         0.00026
       6 -> 16        -0.00206
       6 -> 18        -0.00058
       6 -> 23         0.00122
       6 -> 24         0.00023
       6 -> 29        -0.00035
       6 -> 35         0.00035
       6 -> 42         0.00033
       6 -> 47         0.00032
       6 -> 53         0.00017
       7 -> 27         0.00015
       7 -> 36        -0.00024
       7 -> 46         0.00071
       8 ->  9        -0.12353
       8 -> 13         0.69578
       8 -> 17         0.00281
       8 -> 22        -0.02278
       8 -> 28         0.00167
       8 -> 32         0.00151
       8 -> 37        -0.00090
       8 -> 43        -0.00015
       8 -> 49        -0.00016
       8 -> 52         0.00043
       3 <- 27         0.00093
       3 <- 36         0.00107
       3 <- 46         0.00077
       4 <-  9         0.00030
       4 <- 13         0.00019
       4 <- 17        -0.00056
       4 <- 22         0.00012
       4 <- 32        -0.00024
       4 <- 37         0.00073
       4 <- 43         0.00020
       4 <- 52         0.00012
       5 <- 27         0.00130
       5 <- 46        -0.00027
       6 <- 12         0.00048
       6 <- 16        -0.00048
       6 <- 18        -0.00070
       6 <- 23         0.00242
       6 <- 24        -0.00034
       6 <- 33        -0.00069
       6 <- 35         0.00127
       6 <- 40        -0.00010
       6 <- 42         0.00069
       6 <- 47         0.00014
       6 <- 53         0.00036
       7 <- 27         0.00041
       7 <- 36        -0.00027
       7 <- 46         0.00035
       8 <-  9        -0.00647
       8 <- 13        -0.00071
       8 <- 17        -0.00078
       8 <- 22         0.00052
       8 <- 28        -0.00023
       8 <- 32         0.00096
       8 <- 37        -0.00089
       8 <- 52         0.00017

 Excited State   6:      Singlet-B2     9.9760 eV  124.28 nm  f=0.2763  <S**2>=0.000

 The electronic state is 1-A1.
 Alpha  occ. eigenvalues --  -19.13797 -10.23711  -1.25858  -0.59999  -0.59876
 Alpha  occ. eigenvalues --   -0.54899  -0.51613  -0.24516
 Alpha virt. eigenvalues --    0.01188   0.01393   0.04374   0.04416   0.08653
 Alpha virt. eigenvalues --    0.14146   0.17794   0.20435   0.21900   0.23028
 Alpha virt. eigenvalues --    0.26269   0.36287   0.50019   0.52439   0.53129

 Mulliken charges:
               1
     1  C    0.193835
     2  H    0.009839
     3  H    0.009839
     4  O   -0.213513
 Sum of Mulliken charges =  -0.00000

 Dipole moment (field-independent basis, Debye):
    X=              0.0000    Y=              0.0000    Z=             -0.6834  Tot=              0.6834
 Quadrupole moment (field-independent basis, Debye-Ang):
   XX=            -10.8464   YY=            -12.2723   ZZ=            -13.1680
   XY=             -0.0000   XZ=             -0.0000   YZ=              0.0000

 Normal termination of Gaussian 16 at Fri Sep 17 10:52:31 2021.
