 Gaussian 16, Revision A.03,
 Gaussian 16:  ES64L-G16RevA.03 25-Dec-2016

 --------------------------------------------------------------------
 #p B3LYP/6-311+G** #p TD=(singlets,nstates=30)IOp(6/8=3) IOp(9/40=4)
 --------------------------------------------------------------------

 -------------------------------
 Scan Step 272, Bond Length 1.86
 -------------------------------
 Symbolic Z-matrix:
 Charge =  0 Multiplicity = 1

                         Standard orientation:
 ---------------------------------------------------------------------
 Center     Atomic      Atomic             Coordinates (Angstroms)
 Number     Number       Type             X           Y           Z
 ---------------------------------------------------------------------
      1          6           0        0.000000    0.000000   -0.856081
      2          1           0        0.000000    0.937260   -1.447431
      3          1           0       -0.000000   -0.937260   -1.447431
      4          8           0        0.000000   -0.000000    1.003919
 ---------------------------------------------------------------------

 SCF Done:  E(RB3LYP) =  -114.337223191     A.U. after   13 cycles

 Excitation energies and oscillator strengths:

 Excited State   1:      Singlet-A2     1.2284 eV 1009.34 nm  f=0.0000  <S**2>=0.000
       3 -> 27         0.00068
       3 -> 38         0.00042
       3 -> 46         0.00333
       4 -> 27         0.00036
       4 -> 46        -0.00092
       5 ->  9         0.00127
       5 -> 13         0.00109
       5 -> 18         0.00160
       5 -> 23         0.00132
       5 -> 28         0.00122
       5 -> 37         0.00070
       5 -> 44         0.00020
       5 -> 52         0.00016
       6 -> 27        -0.00056
       6 -> 38        -0.00054
       6 -> 46         0.00090
       7 -> 12        -0.00132
       7 -> 16         0.00533
       7 -> 19        -0.00475
       7 -> 22        -0.00113
       7 -> 25        -0.00053
       7 -> 29        -0.00195
       7 -> 33         0.00027
       7 -> 49         0.00013
       7 -> 53         0.00037
       8 ->  9         0.71113
       8 -> 13        -0.00633
       8 -> 18         0.02069
       8 -> 23        -0.00079
       8 -> 28         0.01017
       8 -> 31         0.00161
       8 -> 37         0.00048
       8 -> 48        -0.00029
       8 -> 52         0.00184
       3 <- 27         0.00017
       3 <- 38         0.00020
       3 <- 46         0.00335
       4 <- 27         0.00068
       4 <- 38         0.00018
       4 <- 46        -0.00071
       5 <-  9         0.00042
       5 <- 13        -0.00032
       5 <- 18        -0.00035
       5 <- 23         0.00015
       5 <- 28        -0.00027
       5 <- 31         0.00021
       5 <- 37         0.00040
       6 <- 38        -0.00041
       6 <- 46         0.00066
       7 <- 12         0.00192
       7 <- 16        -0.01054
       7 <- 19         0.00575
       7 <- 22         0.00557
       7 <- 25        -0.00064
       7 <- 29         0.00563
       7 <- 33        -0.00034
       7 <- 35         0.00012
       7 <- 49        -0.00048
       7 <- 53         0.00145
       8 <-  9        -0.07792
       8 <- 13        -0.00051
       8 <- 18        -0.00782
       8 <- 23        -0.00037
       8 <- 28        -0.00278
       8 <- 31        -0.00083
       8 <- 37        -0.00019
       8 <- 48         0.00013
       8 <- 52         0.00043
 This state for optimization and/or second-order correction.
 Total Energy, E(TD-HF/TD-DFT) =  -114.292081455
 Copying the excited state density for this state as the 1-particle RhoCI density.

 Excited State   2:      Singlet-A1     3.2314 eV  383.69 nm  f=0.0281  <S**2>=0.000
       3 -> 10        -0.01387
       3 -> 11        -0.00277
       3 -> 14         0.00100
       3 -> 15         0.00032
       3 -> 17        -0.00301
       3 -> 20        -0.00344
       3 -> 21         0.00052
       3 -> 24         0.00040
       3 -> 26         0.00116
       3 -> 30        -0.00038
       3 -> 32         0.00274
       3 -> 34        -0.00103
       3 -> 36        -0.00095
       3 -> 39        -0.00038
       3 -> 43         0.00050
       3 -> 45        -0.00106
       3 -> 47         0.00231
       3 -> 50         0.00158
       4 -> 10        -0.00116
       4 -> 11         0.01004
       4 -> 14         0.00171
       4 -> 15        -0.00752
       4 -> 17         0.00214
       4 -> 20         0.00194
       4 -> 21         0.00025
       4 -> 24        -0.00373
       4 -> 26         0.00314
       4 -> 30         0.00024
       4 -> 32        -0.00118
       4 -> 34         0.00074
       4 -> 39        -0.00023
       4 -> 43        -0.00045
       4 -> 45         0.00076
       4 -> 47        -0.00074
       4 -> 50        -0.00026
       4 -> 54         0.00014
       5 -> 12         0.00913
       5 -> 16         0.00226
       5 -> 19         0.00111
       5 -> 22         0.00665
       5 -> 25        -0.00433
       5 -> 29         0.00034
       5 -> 33        -0.00236
       5 -> 35         0.00272
       5 -> 40        -0.00095
       5 -> 42        -0.00099
       5 -> 49         0.00011
       5 -> 51        -0.00087
       6 -> 10         0.25458
       6 -> 11         0.03469
       6 -> 14        -0.03875
       6 -> 15        -0.02168
       6 -> 17        -0.01536
       6 -> 20        -0.00114
       6 -> 21         0.00498
       6 -> 24        -0.00753
       6 -> 26        -0.00295
       6 -> 30        -0.00355
       6 -> 32         0.00432
       6 -> 34        -0.00138
       6 -> 36         0.00057
       6 -> 39        -0.00140
       6 -> 43         0.00081
       6 -> 45        -0.00090
       6 -> 47         0.00076
       6 -> 50         0.00052
       6 -> 54        -0.00097
       7 ->  9         0.67517
       7 -> 13        -0.00725
       7 -> 18        -0.00981
       7 -> 23        -0.00275
       7 -> 28         0.00139
       7 -> 31        -0.00329
       7 -> 37         0.00134
       7 -> 44        -0.00096
       7 -> 52         0.00105
       8 -> 12        -0.00737
       8 -> 16         0.03455
       8 -> 19        -0.01797
       8 -> 22        -0.01172
       8 -> 29        -0.00768
       8 -> 33         0.00091
       8 -> 35        -0.00063
       8 -> 40         0.00023
       8 -> 42         0.00023
       8 -> 51         0.00014
       8 -> 53        -0.00049
       3 <- 10        -0.01108
       3 <- 11        -0.00256
       3 <- 14         0.00084
       3 <- 15        -0.00015
       3 <- 17        -0.00175
       3 <- 20        -0.00301
       3 <- 26         0.00028
       3 <- 32         0.00236
       3 <- 34        -0.00053
       3 <- 36        -0.00098
       3 <- 39        -0.00033
       3 <- 43         0.00055
       3 <- 45        -0.00118
       3 <- 47         0.00232
       3 <- 50         0.00159
       4 <- 10         0.00037
       4 <- 11         0.00747
       4 <- 14         0.00139
       4 <- 15        -0.00524
       4 <- 17         0.00131
       4 <- 20         0.00245
       4 <- 24        -0.00288
       4 <- 26         0.00280
       4 <- 30        -0.00032
       4 <- 32        -0.00121
       4 <- 34         0.00063
       4 <- 36         0.00036
       4 <- 39        -0.00026
       4 <- 43        -0.00040
       4 <- 45         0.00070
       4 <- 47        -0.00045
       4 <- 50        -0.00013
       4 <- 54         0.00012
       5 <- 12         0.00563
       5 <- 16         0.00155
       5 <- 19         0.00091
       5 <- 22         0.00486
       5 <- 25        -0.00342
       5 <- 29         0.00035
       5 <- 33        -0.00199
       5 <- 35         0.00237
       5 <- 40        -0.00087
       5 <- 42        -0.00088
       5 <- 49         0.00012
       5 <- 51        -0.00082
       6 <- 10         0.08790
       6 <- 11         0.01484
       6 <- 14        -0.01925
       6 <- 15        -0.01185
       6 <- 17        -0.00946
       6 <- 20        -0.00203
       6 <- 21         0.00356
       6 <- 24        -0.00504
       6 <- 26        -0.00145
       6 <- 30        -0.00222
       6 <- 32         0.00413
       6 <- 34        -0.00154
       6 <- 39        -0.00126
       6 <- 43         0.00067
       6 <- 45        -0.00066
       6 <- 47         0.00043
       6 <- 50         0.00039
       6 <- 54        -0.00090
       7 <-  9        -0.13076
       7 <- 13         0.00304
       7 <- 18        -0.01106
       7 <- 23         0.00059
       7 <- 28        -0.00154
       7 <- 31        -0.00159
       7 <- 37         0.00064
       7 <- 44        -0.00081
       7 <- 48        -0.00043
       7 <- 52         0.00097
       8 <- 12        -0.00317
       8 <- 16         0.01788
       8 <- 19        -0.01066
       8 <- 22        -0.00791
       8 <- 25         0.00013
       8 <- 29        -0.00622
       8 <- 33         0.00073
       8 <- 35        -0.00049
       8 <- 40         0.00018
       8 <- 42         0.00018
       8 <- 51         0.00012
       8 <- 53        -0.00047

 Excited State   3:      Singlet-B2     3.4813 eV  356.15 nm  f=0.0022  <S**2>=0.000
       3 -> 12        -0.00118
       3 -> 16         0.00120
       3 -> 19        -0.00382
       3 -> 22         0.00108
       3 -> 25        -0.00087
       3 -> 29        -0.00252
       3 -> 33         0.00025
       3 -> 35         0.00134
       3 -> 40        -0.00125
       3 -> 42        -0.00047
       3 -> 49        -0.00391
       3 -> 51         0.00016
       3 -> 53         0.00026
       4 -> 12         0.00038
       4 -> 16        -0.00141
       4 -> 19         0.00035
       4 -> 22         0.00171
       4 -> 25         0.00060
       4 -> 29         0.00086
       4 -> 33        -0.00032
       4 -> 35         0.00042
       4 -> 40         0.00027
       4 -> 42         0.00011
       4 -> 49         0.00073
       5 -> 10         0.00988
       5 -> 11         0.00120
       5 -> 14        -0.00318
       5 -> 15         0.00306
       5 -> 17        -0.00052
       5 -> 20         0.00194
       5 -> 21         0.00295
       5 -> 24         0.00139
       5 -> 26        -0.00048
       5 -> 30        -0.00211
       5 -> 32        -0.00115
       5 -> 34         0.00023
       5 -> 39         0.00064
       5 -> 41         0.00040
       5 -> 47        -0.00038
       5 -> 50         0.00025
       5 -> 54        -0.00019
       6 -> 12         0.00245
       6 -> 16        -0.00278
       6 -> 19         0.00417
       6 -> 22        -0.00064
       6 -> 25         0.00114
       6 -> 29         0.00020
       6 -> 33        -0.00015
       6 -> 35        -0.00120
       6 -> 40         0.00079
       6 -> 42         0.00063
       6 -> 49         0.00118
       6 -> 53        -0.00045
       7 -> 27        -0.00052
       7 -> 38         0.00032
       7 -> 46         0.00299
       8 -> 10         0.70376
       8 -> 11         0.05584
       8 -> 14        -0.05251
       8 -> 15        -0.02147
       8 -> 17        -0.01648
       8 -> 20         0.00523
       8 -> 21         0.00579
       8 -> 24        -0.00568
       8 -> 26        -0.00433
       8 -> 30        -0.01321
       8 -> 32        -0.00078
       8 -> 34         0.00114
       8 -> 36         0.00150
       8 -> 39         0.00047
       8 -> 41        -0.00016
       8 -> 45        -0.00081
       8 -> 47        -0.00369
       8 -> 50         0.00139
       8 -> 54        -0.00245
       3 <- 12        -0.00041
       3 <- 16         0.00042
       3 <- 19        -0.00190
       3 <- 22         0.00092
       3 <- 25        -0.00079
       3 <- 29        -0.00103
       3 <- 33         0.00025
       3 <- 35         0.00089
       3 <- 40        -0.00108
       3 <- 42        -0.00032
       3 <- 49        -0.00396
       3 <- 51         0.00016
       3 <- 53         0.00072
       4 <- 12         0.00011
       4 <- 16        -0.00166
       4 <- 19         0.00019
       4 <- 22         0.00205
       4 <- 25         0.00033
       4 <- 29         0.00110
       4 <- 33        -0.00034
       4 <- 35         0.00061
       4 <- 40         0.00011
       4 <- 49         0.00051
       5 <- 10        -0.00093
       5 <- 11        -0.00062
       5 <- 14        -0.00045
       5 <- 15         0.00242
       5 <- 17         0.00020
       5 <- 20         0.00077
       5 <- 21         0.00160
       5 <- 24         0.00157
       5 <- 26        -0.00011
       5 <- 30        -0.00045
       5 <- 32        -0.00028
       5 <- 39         0.00029
       5 <- 41         0.00043
       5 <- 45        -0.00021
       5 <- 47        -0.00039
       5 <- 50         0.00013
       6 <- 12        -0.00083
       6 <- 16         0.00784
       6 <- 19        -0.00427
       6 <- 22        -0.00518
       6 <- 25         0.00125
       6 <- 29        -0.00612
       6 <- 33         0.00020
       6 <- 35        -0.00103
       6 <- 40         0.00078
       6 <- 42         0.00064
       6 <- 49         0.00168
       6 <- 53        -0.00142
       7 <- 27        -0.00053
       7 <- 38         0.00026
       7 <- 46         0.00259
       8 <- 10        -0.04548
       8 <- 11        -0.00731
       8 <- 14         0.00748
       8 <- 15         0.00222
       8 <- 17         0.00209
       8 <- 20        -0.00331
       8 <- 21        -0.00128
       8 <- 24         0.00151
       8 <- 26         0.00116
       8 <- 30         0.00190
       8 <- 32         0.00272
       8 <- 34        -0.00083
       8 <- 36        -0.00082
       8 <- 39        -0.00104
       8 <- 41         0.00020
       8 <- 43         0.00039
       8 <- 45        -0.00154
       8 <- 47        -0.00306
       8 <- 50         0.00116
       8 <- 54        -0.00066

 Excited State   4:      Singlet-B1     3.6760 eV  337.28 nm  f=0.0001  <S**2>=0.000
       3 ->  9        -0.02216
       3 -> 13         0.00078
       3 -> 18        -0.00370
       3 -> 23         0.00120
       3 -> 28        -0.00111
       3 -> 31        -0.00088
       3 -> 37         0.00017
       3 -> 44         0.00033
       3 -> 48        -0.00011
       3 -> 52         0.00066
       4 ->  9         0.00366
       4 -> 13        -0.00100
       4 -> 18         0.00019
       4 -> 23        -0.00093
       4 -> 28         0.00061
       4 -> 31        -0.00109
       4 -> 37        -0.00019
       4 -> 48        -0.00032
       4 -> 52        -0.00025
       5 -> 27        -0.00079
       5 -> 38         0.00109
       5 -> 46         0.00042
       6 ->  9         0.61864
       6 -> 13        -0.01573
       6 -> 18         0.01345
       6 -> 23        -0.00952
       6 -> 28         0.00370
       6 -> 31         0.00161
       6 -> 37        -0.00109
       6 -> 44        -0.00151
       6 -> 48         0.00307
       6 -> 52         0.00078
       7 -> 10         0.34639
       7 -> 11         0.03009
       7 -> 14        -0.02942
       7 -> 15        -0.01153
       7 -> 17        -0.01109
       7 -> 20         0.00399
       7 -> 21         0.00216
       7 -> 24        -0.00410
       7 -> 26        -0.00363
       7 -> 30        -0.00602
       7 -> 32         0.00059
       7 -> 36         0.00126
       7 -> 39        -0.00013
       7 -> 41        -0.00016
       7 -> 43         0.00048
       7 -> 45        -0.00080
       7 -> 47         0.00344
       7 -> 50         0.00117
       7 -> 54        -0.00051
       8 -> 27         0.00012
       8 -> 46         0.00420
       3 <-  9        -0.00739
       3 <- 13        -0.00074
       3 <- 18        -0.00245
       3 <- 23        -0.00041
       3 <- 28        -0.00065
       3 <- 31        -0.00076
       3 <- 37         0.00014
       3 <- 52         0.00069
       4 <-  9         0.00297
       4 <- 18         0.00133
       4 <- 23        -0.00028
       4 <- 28         0.00145
       4 <- 31        -0.00080
       4 <- 44        -0.00023
       4 <- 48        -0.00033
       4 <- 52        -0.00012
       5 <- 27        -0.00104
       5 <- 38         0.00098
       5 <- 46         0.00037
       6 <-  9        -0.04810
       6 <- 13         0.00227
       6 <- 18        -0.00559
       6 <- 23         0.00041
       6 <- 28        -0.00416
       6 <- 31        -0.00072
       6 <- 37        -0.00079
       6 <- 44        -0.00019
       6 <- 48         0.00283
       6 <- 52        -0.00025
       7 <- 10        -0.05563
       7 <- 11        -0.00907
       7 <- 14         0.01273
       7 <- 15         0.00751
       7 <- 17         0.00337
       7 <- 20         0.00177
       7 <- 21        -0.00322
       7 <- 24         0.00372
       7 <- 26         0.00179
       7 <- 30         0.00225
       7 <- 32         0.00021
       7 <- 34        -0.00065
       7 <- 36         0.00082
       7 <- 39        -0.00056
       7 <- 41         0.00021
       7 <- 43         0.00027
       7 <- 45        -0.00052
       7 <- 47         0.00318
       7 <- 50         0.00134
       7 <- 54         0.00064
       8 <- 27         0.00052
       8 <- 46         0.00390

 Excited State   5:      Singlet-B1     4.2547 eV  291.40 nm  f=0.0065  <S**2>=0.000
       3 ->  9        -0.00084
       3 -> 18        -0.00140
       3 -> 23         0.00021
       3 -> 28        -0.00226
       3 -> 31        -0.00125
       3 -> 48        -0.00324
       3 -> 52        -0.00028
       4 ->  9        -0.03000
       4 -> 13         0.00598
       4 -> 18         0.00078
       4 -> 23         0.00470
       4 -> 28         0.00083
       4 -> 31         0.00052
       4 -> 37         0.00035
       4 -> 44        -0.00041
       4 -> 48         0.00092
       4 -> 52         0.00019
       5 -> 27        -0.00613
       5 -> 38        -0.00360
       5 -> 46         0.00010
       6 ->  9        -0.34518
       6 -> 13         0.00490
       6 -> 18        -0.00155
       6 -> 23         0.00343
       6 -> 28         0.00230
       6 -> 31        -0.00412
       6 -> 37         0.00258
       6 -> 44         0.00103
       6 -> 48        -0.00090
       6 -> 52        -0.00093
       7 -> 10         0.61361
       7 -> 11         0.04133
       7 -> 14        -0.04145
       7 -> 15        -0.02577
       7 -> 17        -0.00750
       7 -> 20        -0.00217
       7 -> 21         0.00264
       7 -> 24        -0.00833
       7 -> 26        -0.00488
       7 -> 30        -0.00696
       7 -> 32        -0.00084
       7 -> 34         0.00352
       7 -> 36        -0.00139
       7 -> 39         0.00062
       7 -> 43         0.00043
       7 -> 45        -0.00082
       7 -> 47         0.00022
       7 -> 54        -0.00166
       8 -> 27         0.00054
       8 -> 38         0.00019
       8 -> 46         0.00029
       3 <-  9         0.00019
       3 <- 13         0.00081
       3 <- 18        -0.00036
       3 <- 23         0.00065
       3 <- 28        -0.00161
       3 <- 37        -0.00027
       3 <- 44        -0.00015
       3 <- 48        -0.00335
       3 <- 52         0.00013
       4 <-  9        -0.01441
       4 <- 13         0.00290
       4 <- 23         0.00290
       4 <- 28         0.00074
       4 <- 31         0.00032
       4 <- 37         0.00035
       4 <- 44        -0.00057
       4 <- 48         0.00053
       4 <- 52         0.00015
       5 <- 27        -0.00445
       5 <- 38        -0.00300
       5 <- 46         0.00014
       6 <-  9        -0.02371
       6 <- 13        -0.00055
       6 <- 18        -0.00278
       6 <- 23         0.00061
       6 <- 28         0.00037
       6 <- 31        -0.00476
       6 <- 37         0.00245
       6 <- 44         0.00092
       6 <- 48        -0.00024
       6 <- 52        -0.00129
       7 <- 10        -0.01160
       7 <- 11        -0.00137
       7 <- 14         0.00022
       7 <- 15        -0.00539
       7 <- 17         0.00033
       7 <- 20        -0.00485
       7 <- 21        -0.00068
       7 <- 24        -0.00276
       7 <- 26        -0.00030
       7 <- 30        -0.00029
       7 <- 32         0.00118

 The electronic state is 1-A1.
 Alpha  occ. eigenvalues --  -19.17769 -10.34060  -0.88909  -0.71605  -0.49303
 Alpha  occ. eigenvalues --   -0.38557  -0.30489  -0.28663
 Alpha virt. eigenvalues --   -0.17442  -0.08124  -0.00125   0.04040   0.06089
 Alpha virt. eigenvalues --    0.06312   0.11686   0.13200   0.18691   0.20963
 Alpha virt. eigenvalues --    0.23931   0.30418   0.38499   0.39440   0.50564

 Mulliken charges:
               1
     1  C   -0.101421
     2  H    0.193172
     3  H    0.193172
     4  O   -0.284923
 Sum of Mulliken charges =   0.00000

 Dipole moment (field-independent basis, Debye):
    X=             -0.0000    Y=             -0.0000    Z=             -4.2292  Tot=              4.2292
 Quadrupole moment (field-independent basis, Debye-Ang):
   XX=            -13.0659   YY=            -12.0595   ZZ=            -10.5475
   XY=              0.0000   XZ=              0.0000   YZ=             -0.0000

 Normal termination of Gaussian 16 at Fri Sep 17 10:53:11 2021.
