 Gaussian 16, Revision A.03,
 Gaussian 16:  ES64L-G16RevA.03 25-Dec-2016

 --------------------------------------------------------------------
 #p B3LYP/6-311+G** #p TD=(singlets,nstates=30)IOp(6/8=3) IOp(9/40=4)
 --------------------------------------------------------------------

 -------------------------------
 Scan Step 244, Bond Length 1.72
 -------------------------------
 Symbolic Z-matrix:
 Charge =  0 Multiplicity = 1

                         Standard orientation:
 ---------------------------------------------------------------------
 Center     Atomic      Atomic             Coordinates (Angstroms)
 Number     Number       Type             X           Y           Z
 ---------------------------------------------------------------------
      1          6           0        0.000000    0.000000   -0.786081
      2          1           0        0.000000    0.937260   -1.377431
      3          1           0       -0.000000   -0.937260   -1.377431
      4          8           0        0.000000    0.000000    0.933919
 ---------------------------------------------------------------------

 SCF Done:  E(RB3LYP) =  -114.384007573     A.U. after   11 cycles

 Excitation energies and oscillator strengths:

 Excited State   1:      Singlet-A2     1.5841 eV  782.66 nm  f=0.0000  <S**2>=0.000
       3 -> 27         0.00091
       3 -> 38         0.00062
       3 -> 46         0.00335
       4 -> 27         0.00052
       4 -> 46        -0.00114
       5 ->  9         0.00402
       5 -> 13         0.00110
       5 -> 18         0.00221
       5 -> 23         0.00153
       5 -> 28         0.00182
       5 -> 37         0.00100
       5 -> 44         0.00026
       5 -> 52         0.00024
       6 -> 27        -0.00061
       6 -> 38        -0.00066
       6 -> 46         0.00113
       7 -> 12        -0.00109
       7 -> 16         0.00508
       7 -> 19        -0.00437
       7 -> 22        -0.00101
       7 -> 25         0.00074
       7 -> 29        -0.00174
       7 -> 33         0.00031
       7 -> 49         0.00012
       7 -> 51         0.00011
       7 -> 53         0.00041
       8 ->  9         0.70962
       8 -> 13        -0.00941
       8 -> 18         0.02125
       8 -> 23        -0.00197
       8 -> 28         0.01074
       8 -> 31         0.00146
       8 -> 37         0.00056
       8 -> 48        -0.00031
       8 -> 52         0.00191
       3 <- 27         0.00034
       3 <- 38         0.00038
       3 <- 46         0.00339
       4 <- 27         0.00093
       4 <- 38         0.00022
       4 <- 46        -0.00090
       5 <- 13        -0.00042
       5 <- 18        -0.00052
       5 <- 23         0.00021
       5 <- 28        -0.00036
       5 <- 31         0.00027
       5 <- 37         0.00058
       6 <- 38        -0.00052
       6 <- 46         0.00085
       7 <- 12         0.00125
       7 <- 16        -0.01042
       7 <- 19         0.00473
       7 <- 22         0.00636
       7 <- 25         0.00060
       7 <- 29         0.00550
       7 <- 33        -0.00040
       7 <- 35         0.00042
       7 <- 40        -0.00028
       7 <- 42         0.00016
       7 <- 49        -0.00046
       7 <- 53         0.00146
       8 <-  9        -0.06354
       8 <- 18        -0.00723
       8 <- 23        -0.00011
       8 <- 28        -0.00261
       8 <- 31        -0.00073
       8 <- 37        -0.00031
       8 <- 48         0.00012
       8 <- 52         0.00048
 This state for optimization and/or second-order correction.
 Total Energy, E(TD-HF/TD-DFT) =  -114.325791636
 Copying the excited state density for this state as the 1-particle RhoCI density.

 Excited State   2:      Singlet-A1     4.1395 eV  299.52 nm  f=0.0488  <S**2>=0.000
       3 -> 10        -0.01772
       3 -> 11        -0.00631
       3 -> 14         0.00493
       3 -> 15         0.00179
       3 -> 17        -0.00331
       3 -> 20        -0.00391
       3 -> 21        -0.00012
       3 -> 24         0.00132
       3 -> 26         0.00243
       3 -> 30        -0.00124
       3 -> 32         0.00276
       3 -> 34        -0.00152
       3 -> 36        -0.00117
       3 -> 39         0.00060
       3 -> 43         0.00051
       3 -> 45         0.00059
       3 -> 47         0.00230
       3 -> 50         0.00134
       4 -> 10        -0.00486
       4 -> 11         0.01246
       4 -> 14         0.00312
       4 -> 15        -0.00897
       4 -> 17         0.00270
       4 -> 20         0.00344
       4 -> 21         0.00036
       4 -> 24        -0.00430
       4 -> 26         0.00418
       4 -> 30         0.00080
       4 -> 32        -0.00135
       4 -> 34         0.00113
       4 -> 36         0.00034
       4 -> 41         0.00011
       4 -> 43        -0.00051
       4 -> 45        -0.00082
       4 -> 47        -0.00096
       4 -> 50        -0.00032
       4 -> 54         0.00014
       5 -> 12         0.01291
       5 -> 16         0.00591
       5 -> 19         0.00135
       5 -> 22         0.00743
       5 -> 25         0.00626
       5 -> 29         0.00020
       5 -> 33        -0.00272
       5 -> 35         0.00278
       5 -> 40        -0.00127
       5 -> 42         0.00081
       5 -> 49         0.00030
       5 -> 51        -0.00077
       6 -> 10         0.21741
       6 -> 11         0.06284
       6 -> 14        -0.06824
       6 -> 15        -0.03580
       6 -> 17        -0.01798
       6 -> 20        -0.00514
       6 -> 21         0.00888
       6 -> 24        -0.01058
       6 -> 26        -0.00476
       6 -> 30        -0.00638
       6 -> 32         0.00221
       6 -> 34        -0.00141
       6 -> 39         0.00110
       6 -> 41        -0.00024
       6 -> 43         0.00086
       6 -> 45         0.00083
       6 -> 47         0.00098
       6 -> 50         0.00072
       6 -> 54        -0.00085
       7 ->  9         0.68014
       7 -> 13        -0.00411
       7 -> 18        -0.01399
       7 -> 23        -0.00161
       7 -> 28         0.00015
       7 -> 31        -0.00321
       7 -> 37         0.00117
       7 -> 44        -0.00101
       7 -> 48         0.00023
       7 -> 52         0.00106
       8 -> 12        -0.00791
       8 -> 16         0.05039
       8 -> 19        -0.02137
       8 -> 22        -0.01856
       8 -> 25         0.00016
       8 -> 29        -0.00988
       8 -> 33         0.00144
       8 -> 35        -0.00146
       8 -> 40         0.00068
       8 -> 42        -0.00035
       8 -> 49         0.00036
       8 -> 51         0.00018
       8 -> 53        -0.00059
       3 <- 10        -0.01298
       3 <- 11        -0.00500
       3 <- 14         0.00392
       3 <- 15         0.00097
       3 <- 17        -0.00180
       3 <- 20        -0.00311
       3 <- 21        -0.00057
       3 <- 24         0.00066
       3 <- 26         0.00125
       3 <- 30        -0.00072
       3 <- 32         0.00248
       3 <- 34        -0.00087
       3 <- 36        -0.00106
       3 <- 39         0.00057
       3 <- 43         0.00060
       3 <- 45         0.00076
       3 <- 47         0.00234
       3 <- 50         0.00133
       3 <- 54         0.00016
       4 <- 10        -0.00189
       4 <- 11         0.00843
       4 <- 14         0.00192
       4 <- 15        -0.00574
       4 <- 17         0.00151
       4 <- 20         0.00344
       4 <- 21         0.00022
       4 <- 24        -0.00312
       4 <- 26         0.00350
       4 <- 30         0.00011
       4 <- 32        -0.00157
       4 <- 34         0.00096
       4 <- 36         0.00062
       4 <- 43        -0.00048
       4 <- 45        -0.00082
       4 <- 47        -0.00061
       4 <- 50        -0.00018
       4 <- 54         0.00011
       5 <- 12         0.00681
       5 <- 16         0.00346
       5 <- 19         0.00101
       5 <- 22         0.00500
       5 <- 25         0.00459
       5 <- 29         0.00027
       5 <- 33        -0.00220
       5 <- 35         0.00234
       5 <- 40        -0.00113
       5 <- 42         0.00070
       5 <- 49         0.00028
       5 <- 51        -0.00072
       6 <- 10         0.07063
       6 <- 11         0.02300
       6 <- 14        -0.02979
       6 <- 15        -0.01721
       6 <- 17        -0.00984
       6 <- 20        -0.00422
       6 <- 21         0.00565
       6 <- 24        -0.00675
       6 <- 26        -0.00267
       6 <- 30        -0.00448
       6 <- 32         0.00248
       6 <- 34        -0.00163
       6 <- 36        -0.00046
       6 <- 39         0.00107
       6 <- 41        -0.00018
       6 <- 43         0.00071
       6 <- 45         0.00066
       6 <- 47         0.00058
       6 <- 50         0.00057
       6 <- 54        -0.00075
       7 <-  9        -0.12944
       7 <- 13         0.00526
       7 <- 18        -0.01266
       7 <- 23         0.00200
       7 <- 28        -0.00270
       7 <- 31        -0.00156
       7 <- 37         0.00052
       7 <- 44        -0.00070
       7 <- 48        -0.00032
       7 <- 52         0.00095
       8 <- 12        -0.00256
       8 <- 16         0.02165
       8 <- 19        -0.01084
       8 <- 22        -0.01123
       8 <- 29        -0.00756
       8 <- 33         0.00111
       8 <- 35        -0.00114
       8 <- 40         0.00055
       8 <- 42        -0.00028
       8 <- 49         0.00020
       8 <- 51         0.00015
       8 <- 53        -0.00055

 Excited State   3:      Singlet-B1     4.5817 eV  270.60 nm  f=0.0010  <S**2>=0.000
       3 ->  9        -0.02590
       3 -> 13         0.00121
       3 -> 18        -0.00405
       3 -> 23         0.00143
       3 -> 28        -0.00077
       3 -> 31        -0.00053
       3 -> 44         0.00026
       3 -> 48         0.00092
       3 -> 52         0.00085
       4 ->  9         0.01142
       4 -> 13        -0.00243
       4 -> 18         0.00014
       4 -> 23        -0.00218
       4 -> 28         0.00035
       4 -> 31        -0.00136
       4 -> 37        -0.00035
       4 -> 44         0.00011
       4 -> 48        -0.00083
       4 -> 52        -0.00044
       5 -> 27         0.00016
       5 -> 38         0.00194
       5 -> 46         0.00062
       6 ->  9         0.69799
       6 -> 13        -0.01821
       6 -> 18         0.01528
       6 -> 23        -0.01053
       6 -> 28         0.00372
       6 -> 31         0.00278
       6 -> 37        -0.00188
       6 -> 44        -0.00233
       6 -> 48         0.00375
       6 -> 52         0.00123
       7 -> 10         0.11225
       7 -> 11         0.02548
       7 -> 14        -0.02181
       7 -> 15        -0.00629
       7 -> 17        -0.00902
       7 -> 20         0.00341
       7 -> 21         0.00097
       7 -> 24        -0.00148
       7 -> 26        -0.00214
       7 -> 30        -0.00397
       7 -> 32        -0.00025
       7 -> 34        -0.00090
       7 -> 36         0.00161
       7 -> 39         0.00018
       7 -> 41        -0.00031
       7 -> 43         0.00049
       7 -> 45         0.00024
       7 -> 47         0.00386
       7 -> 50         0.00121
       7 -> 54         0.00018
       8 -> 27         0.00022
       8 -> 46         0.00477
       3 <-  9        -0.00875
       3 <- 13        -0.00082
       3 <- 18        -0.00267
       3 <- 23        -0.00061
       3 <- 28        -0.00044
       3 <- 31        -0.00073
       3 <- 37         0.00014
       3 <- 44        -0.00014
       3 <- 48         0.00105
       3 <- 52         0.00072
       4 <-  9         0.00642
       4 <- 13        -0.00042
       4 <- 18         0.00165
       4 <- 23        -0.00075
       4 <- 28         0.00145
       4 <- 31        -0.00092
       4 <- 37        -0.00022
       4 <- 48        -0.00072
       4 <- 52        -0.00024
       5 <- 27        -0.00041
       5 <- 38         0.00163
       5 <- 46         0.00055
       6 <-  9        -0.03073
       6 <- 13         0.00185
       6 <- 18        -0.00385
       6 <- 23        -0.00013
       6 <- 28        -0.00368
       6 <- 31         0.00072
       6 <- 37        -0.00158
       6 <- 44        -0.00103
       6 <- 48         0.00335
       6 <- 52         0.00030
       7 <- 10        -0.03210
       7 <- 11        -0.01038
       7 <- 14         0.01449
       7 <- 15         0.00964
       7 <- 17         0.00230
       7 <- 20         0.00404
       7 <- 21        -0.00372
       7 <- 24         0.00431
       7 <- 26         0.00170
       7 <- 30         0.00160
       7 <- 32         0.00030
       7 <- 34        -0.00110
       7 <- 36         0.00205
       7 <- 39         0.00054
       7 <- 43         0.00030
       7 <- 47         0.00357
       7 <- 50         0.00121
       7 <- 54         0.00098
       8 <- 27         0.00070
       8 <- 38         0.00017
       8 <- 46         0.00448

 Excited State   4:      Singlet-B2     4.8297 eV  256.71 nm  f=0.0057  <S**2>=0.000
       3 -> 12        -0.00141
       3 -> 16         0.00180
       3 -> 19        -0.00449
       3 -> 22         0.00085
       3 -> 25         0.00076
       3 -> 29        -0.00312
       3 -> 35         0.00191
       3 -> 40        -0.00168
       3 -> 42         0.00045
       3 -> 49        -0.00341
       3 -> 51         0.00020
       3 -> 53         0.00031
       4 -> 12         0.00046
       4 -> 16        -0.00208
       4 -> 19         0.00042
       4 -> 22         0.00239
       4 -> 25        -0.00113
       4 -> 29         0.00126
       4 -> 33        -0.00042
       4 -> 35         0.00050
       4 -> 40         0.00042
       4 -> 49         0.00064
       4 -> 51        -0.00012
       5 -> 10         0.01090
       5 -> 11         0.00294
       5 -> 14        -0.00677
       5 -> 15         0.00415
       5 -> 17        -0.00025
       5 -> 20         0.00214
       5 -> 21         0.00455
       5 -> 24         0.00170
       5 -> 26        -0.00110
       5 -> 30        -0.00197
       5 -> 32        -0.00193
       5 -> 34         0.00069
       5 -> 36        -0.00015
       5 -> 39        -0.00091
       5 -> 41         0.00057
       5 -> 47        -0.00064
       5 -> 50         0.00039
       5 -> 54        -0.00023
       6 -> 12         0.00278
       6 -> 16        -0.00235
       6 -> 19         0.00376
       6 -> 22        -0.00047
       6 -> 25        -0.00101
       6 -> 29        -0.00025
       6 -> 35        -0.00172
       6 -> 40         0.00136
       6 -> 42        -0.00062
       6 -> 49         0.00155
       6 -> 53        -0.00043
       7 -> 27        -0.00065
       7 -> 38         0.00057
       7 -> 46         0.00359
       8 -> 10         0.68965
       8 -> 11         0.12259
       8 -> 14        -0.09171
       8 -> 15        -0.03596
       8 -> 17        -0.01614
       8 -> 20         0.00184
       8 -> 21         0.00740
       8 -> 24        -0.00676
       8 -> 26        -0.00530
       8 -> 30        -0.01157
       8 -> 32        -0.00369
       8 -> 34         0.00174
       8 -> 36         0.00060
       8 -> 39        -0.00075
       8 -> 43        -0.00015
       8 -> 45         0.00115
       8 -> 47        -0.00443
       8 -> 50         0.00198
       8 -> 54        -0.00217
       3 <- 12        -0.00051
       3 <- 16         0.00056
       3 <- 19        -0.00215
       3 <- 22         0.00096
       3 <- 25         0.00068
       3 <- 29        -0.00124
       3 <- 35         0.00139
       3 <- 40        -0.00147
       3 <- 42         0.00036
       3 <- 49        -0.00349
       3 <- 51         0.00019
       3 <- 53         0.00084
       4 <- 16        -0.00204
       4 <- 22         0.00247
       4 <- 25        -0.00070
       4 <- 29         0.00130
       4 <- 33        -0.00047
       4 <- 35         0.00072
       4 <- 40         0.00016
       4 <- 49         0.00046
       5 <- 10        -0.00069
       5 <- 11        -0.00113
       5 <- 14        -0.00075
       5 <- 15         0.00326
       5 <- 17         0.00020
       5 <- 20         0.00073
       5 <- 21         0.00196
       5 <- 24         0.00208
       5 <- 26        -0.00029
       5 <- 30        -0.00044
       5 <- 32        -0.00028
       5 <- 34         0.00012
       5 <- 39        -0.00035
       5 <- 41         0.00060
       5 <- 45         0.00033
       5 <- 47        -0.00059
       5 <- 50         0.00021
       6 <- 12        -0.00032
       6 <- 16         0.00678
       6 <- 19        -0.00326
       6 <- 22        -0.00482
       6 <- 25        -0.00089
       6 <- 29        -0.00559
       6 <- 33         0.00040
       6 <- 35        -0.00166
       6 <- 40         0.00139
       6 <- 42        -0.00069
       6 <- 49         0.00188
       6 <- 53        -0.00129
       7 <- 27        -0.00063
       7 <- 38         0.00045
       7 <- 46         0.00303
       8 <- 10        -0.02876
       8 <- 11        -0.00949
       8 <- 14         0.01001
       8 <- 15         0.00282
       8 <- 17         0.00103
       8 <- 20        -0.00285
       8 <- 21        -0.00190
       8 <- 24         0.00161
       8 <- 26         0.00167
       8 <- 32         0.00300
       8 <- 34        -0.00111
       8 <- 36        -0.00055
       8 <- 39         0.00143
       8 <- 41         0.00038
       8 <- 43         0.00049
       8 <- 45         0.00192
       8 <- 47        -0.00351
       8 <- 50         0.00135
       8 <- 54        -0.00058

 Excited State   5:      Singlet-B1     5.7647 eV  215.07 nm  f=0.0079  <S**2>=0.000
       3 ->  9        -0.01169
       3 -> 13         0.00064
       3 -> 18        -0.00291
       3 -> 23         0.00082
       3 -> 28        -0.00316
       3 -> 31        -0.00161
       3 -> 44         0.00043
       3 -> 48        -0.00255
       4 ->  9        -0.03287
       4 -> 13         0.00624
       4 -> 18         0.00127
       4 -> 23         0.00463
       4 -> 28         0.00169
       4 -> 37         0.00033
       4 -> 44        -0.00047
       4 -> 48         0.00066
       4 -> 52         0.00012
       5 -> 27        -0.00705
       5 -> 38        -0.00319
       5 -> 46         0.00042
       6 ->  9        -0.11465
       6 -> 13        -0.00182
       6 -> 18         0.00197
       6 -> 23        -0.00038
       6 -> 28         0.00331
       6 -> 31        -0.00367
       6 -> 37         0.00204
       6 -> 44         0.00026
       6 -> 48         0.00058
       6 -> 52        -0.00060
       7 -> 10         0.68338
       7 -> 11         0.10506
       7 -> 14        -0.08234
       7 -> 15        -0.04151
       7 -> 17        -0.00985
       7 -> 20        -0.00399
       7 -> 21         0.00384
       7 -> 24        -0.00998
       7 -> 26        -0.00708
       7 -> 30        -0.00695
       7 -> 32        -0.00200
       7 -> 34         0.00396
       7 -> 36        -0.00168
       7 -> 39        -0.00065
       7 -> 43         0.00062
       7 -> 45         0.00094
       7 -> 47         0.00171
       7 -> 50         0.00086
       7 -> 54        -0.00149
       8 -> 27         0.00095
       8 -> 38         0.00027
       8 -> 46         0.00204
       3 <-  9        -0.00252
       3 <- 13         0.00065
       3 <- 18        -0.00117
       3 <- 23         0.00060
       3 <- 28        -0.00202
       3 <- 31        -0.00030
       3 <- 37        -0.00020
       3 <- 44         0.00017
       3 <- 48        -0.00272
       3 <- 52         0.00039
       4 <-  9        -0.01177
       4 <- 13         0.00256
       4 <- 18         0.00047
       4 <- 23         0.00245
       4 <- 28         0.00158
       4 <- 31        -0.00017
       4 <- 37         0.00040
       4 <- 44        -0.00068
       4 <- 48         0.00024
       4 <- 52         0.00011
       5 <- 27        -0.00481
       5 <- 38        -0.00249
       5 <- 46         0.00040
       6 <-  9        -0.02679
       6 <- 18        -0.00374
       6 <- 23         0.00040
       6 <- 28        -0.00060
       6 <- 31        -0.00431
       6 <- 37         0.00180
       6 <- 44         0.00045
       6 <- 48         0.00102

 The electronic state is 1-A1.
 Alpha  occ. eigenvalues --  -19.17544 -10.33411  -0.90681  -0.70676  -0.49023
 Alpha  occ. eigenvalues --   -0.40176  -0.31713  -0.28845
 Alpha virt. eigenvalues --   -0.16037  -0.04109   0.00326   0.04065   0.06105
 Alpha virt. eigenvalues --    0.07168   0.12159   0.13815   0.18849   0.21195
 Alpha virt. eigenvalues --    0.23985   0.30313   0.38703   0.40225   0.50807

 Mulliken charges:
               1
     1  C   -0.081561
     2  H    0.187508
     3  H    0.187508
     4  O   -0.293455
 Sum of Mulliken charges =  -0.00000

 Dipole moment (field-independent basis, Debye):
    X=             -0.0000    Y=             -0.0000    Z=             -3.9902  Tot=              3.9902
 Quadrupole moment (field-independent basis, Debye-Ang):
   XX=            -12.9163   YY=            -11.9690   ZZ=            -10.9588
   XY=              0.0000   XZ=              0.0000   YZ=              0.0000

 Normal termination of Gaussian 16 at Fri Sep 17 10:53:05 2021.
