 Gaussian 16, Revision C.01,
 Gaussian 16:  ES64L-G16RevC.01  3-Jul-2019

 ----------------------------------------
 #P wB97XD/6-311+G* NoSymm #P Field=Y-272
 ----------------------------------------

 -------
 TitleMe
 -------
 Symbolic Z-matrix:
 Charge =  1 Multiplicity = 1

                          Input orientation:
 ---------------------------------------------------------------------
 Center     Atomic      Atomic             Coordinates (Angstroms)
 Number     Number       Type             X           Y           Z
 ---------------------------------------------------------------------
      1          6           0        0.519300    1.233000   -0.031900
      2          6           0        1.944500    1.269200   -0.036700
      3          6           0        2.620400    0.092800   -0.025000
      4          6           0       -0.196000    0.030100    0.001000
      5          1           0       -0.020700    2.174200   -0.043400
      6          1           0        2.482800    2.208900   -0.036100
      7          1           0       -1.277700    0.039900    0.011700
      8          7           0        4.092100    0.095900    0.036600
      9          8           0        4.639300   -1.021700    0.144600
     10          8           0        4.664900    1.198400   -0.023300
     11          6           0        0.494300   -1.167100    0.021000
     12          1           0       -0.032500   -2.114900    0.054500
     13          6           0        1.962900   -1.216500   -0.021100
     14          1           0        2.443600   -1.963100    0.615100
     15         35           0        2.173000   -1.949100   -1.906200
 ---------------------------------------------------------------------

 SCF Done:  E(RwB97XD) =  -3010.56509043     A.U. after   23 cycles

 Alpha  occ. eigenvalues -- -483.35782 -62.90843 -56.70474 -56.69995 -56.69983
 Alpha  occ. eigenvalues --  -19.47041 -19.46507 -14.86031 -10.62104 -10.59985
 Alpha  occ. eigenvalues --  -10.59437 -10.57586 -10.54408 -10.53140  -9.06678
 Alpha  occ. eigenvalues --   -6.89182  -6.87594  -6.87553  -2.99127  -2.98709
 Alpha  occ. eigenvalues --   -2.98677  -2.97404  -2.97403  -1.50359  -1.33318
 Alpha  occ. eigenvalues --   -1.24435  -1.15160  -1.13826  -1.07791  -1.01863
 Alpha  occ. eigenvalues --   -0.97006  -0.91856  -0.86415  -0.81954  -0.81666
 Alpha  occ. eigenvalues --   -0.80790  -0.79519  -0.77157  -0.76448  -0.74180
 Alpha  occ. eigenvalues --   -0.69627  -0.67903  -0.65074  -0.63089  -0.61549
 Alpha  occ. eigenvalues --   -0.58630  -0.57965  -0.56410  -0.55928
 Alpha virt. eigenvalues --   -0.32108  -0.22625  -0.21336  -0.19732  -0.17691
 Alpha virt. eigenvalues --   -0.16171  -0.13814  -0.11760  -0.11223  -0.09589
 Alpha virt. eigenvalues --   -0.07614  -0.06613  -0.05664  -0.04771  -0.02982

 Mulliken charges:
               1
     1  C   -0.123488
     2  C    0.252317
     3  C   -0.022651
     4  C   -0.276599
     5  H    0.449110
     6  H    0.444147
     7  H    0.340515
     8  N   -0.233778
     9  O   -0.054494
    10  O    0.226838
    11  C   -0.178940
    12  H    0.251288
    13  C   -0.400780
    14  H    0.343727
    15  Br  -0.017213
 Sum of Mulliken charges =   1.00000

 Dipole moment (field-independent basis, Debye):
    X=              2.3673    Y=              7.1499    Z=              0.3076  Tot=              7.5379
 Quadrupole moment (field-independent basis, Debye-Ang):
   XX=            -68.2988   YY=            -56.5557   ZZ=            -65.2690
   XY=             13.7731   XZ=             -0.2680   YZ=             -1.8516

 Normal termination of Gaussian 16 at Thu May  2 14:22:08 2024.
