 Gaussian 16, Revision A.03,
 Gaussian 16:  ES64L-G16RevA.03 25-Dec-2016

 --------------------------------------------------------------------
 #p B3LYP/6-311+G** #p TD=(singlets,nstates=30)IOp(6/8=3) IOp(9/40=4)
 --------------------------------------------------------------------

 -------------------------------
 Scan Step 27, Bond Length 0.635
 -------------------------------
 Symbolic Z-matrix:
 Charge =  0 Multiplicity = 1

                         Standard orientation:
 ---------------------------------------------------------------------
 Center     Atomic      Atomic             Coordinates (Angstroms)
 Number     Number       Type             X           Y           Z
 ---------------------------------------------------------------------
      1          6           0        0.000000   -0.000000   -0.243581
      2          1           0        0.000000    0.937260   -0.834931
      3          1           0       -0.000000   -0.937260   -0.834931
      4          8           0        0.000000    0.000000    0.391419
 ---------------------------------------------------------------------

 SCF Done:  E(RB3LYP) =  -112.196415225     A.U. after   10 cycles

 Excitation energies and oscillator strengths:

 Excited State   1:      Singlet-B2     4.6600 eV  266.06 nm  f=0.1322  <S**2>=0.000
       3 -> 11         0.00075
       3 -> 16         0.00076
       3 -> 19         0.00075
       3 -> 22         0.00060
       3 -> 24         0.00107
       3 -> 29         0.00017
       3 -> 32        -0.00022
       3 -> 40        -0.00029
       3 -> 43         0.00022
       3 -> 54         0.00016
       4 ->  9        -0.00275
       4 -> 12         0.00249
       4 -> 13         0.00329
       4 -> 15         0.00143
       4 -> 18         0.00245
       4 -> 20         0.00209
       4 -> 21         0.00162
       4 -> 25         0.00138
       4 -> 26        -0.00077
       4 -> 30         0.00103
       4 -> 31         0.00139
       4 -> 33         0.00013
       4 -> 38        -0.00061
       4 -> 42         0.00047
       4 -> 44        -0.00028
       4 -> 47         0.00075
       4 -> 49        -0.00012
       4 -> 51        -0.00010
       4 -> 53        -0.00010
       5 -> 28         0.00194
       5 -> 35         0.00087
       5 -> 45         0.00076
       6 -> 11        -0.00548
       6 -> 16         0.00347
       6 -> 19         0.00016
       6 -> 22        -0.00042
       6 -> 24         0.00453
       6 -> 29         0.00071
       6 -> 32        -0.00067
       6 -> 37         0.00011
       6 -> 40        -0.00012
       6 -> 43         0.00015
       6 -> 46         0.00035
       7 -> 11         0.00880
       7 -> 16         0.00364
       7 -> 19         0.00329
       7 -> 22         0.00027
       7 -> 24         0.00072
       7 -> 29        -0.00118
       7 -> 32         0.00095
       7 -> 37        -0.00069
       7 -> 43        -0.00039
       7 -> 46         0.00040
       7 -> 50         0.00042
       7 -> 54        -0.00011
       8 ->  9         0.70498
       8 -> 12        -0.00116
       8 -> 13         0.05348
       8 -> 15        -0.00547
       8 -> 18        -0.02255
       8 -> 20         0.00539
       8 -> 21         0.01067
       8 -> 25        -0.00025
       8 -> 26        -0.00060
       8 -> 30        -0.00330
       8 -> 31        -0.00195
       8 -> 33        -0.00089
       8 -> 38        -0.00109
       8 -> 42         0.00076
       8 -> 44         0.00039
       8 -> 47        -0.00070
       8 -> 49         0.00027
       3 <- 11         0.00034
       3 <- 16         0.00041
       3 <- 19         0.00048
       3 <- 22         0.00050
       3 <- 24         0.00080
       3 <- 29         0.00012
       3 <- 32        -0.00024
       3 <- 40        -0.00029
       3 <- 43         0.00022
       3 <- 54         0.00016
       4 <-  9        -0.00115
       4 <- 12        -0.00020
       4 <- 13         0.00270
       4 <- 15         0.00167
       4 <- 18         0.00041
       4 <- 20         0.00127
       4 <- 21         0.00130
       4 <- 25         0.00102
       4 <- 26        -0.00133
       4 <- 30         0.00078
       4 <- 31         0.00059
       4 <- 33         0.00017
       4 <- 38        -0.00040
       4 <- 39         0.00015
       4 <- 42         0.00038
       4 <- 44        -0.00023
       4 <- 47         0.00068
       5 <- 28         0.00164
       5 <- 35         0.00071
       5 <- 45         0.00064
       6 <- 11        -0.00127
       6 <- 16         0.00313
       6 <- 19         0.00044
       6 <- 22         0.00017
       6 <- 24         0.00337
       6 <- 29         0.00023
       6 <- 32        -0.00059
       6 <- 37         0.00017
       6 <- 40        -0.00010
       6 <- 43         0.00011
       6 <- 46         0.00032
       6 <- 50         0.00016
       7 <- 11         0.00202
       7 <- 16         0.00151
       7 <- 19         0.00052
       7 <- 29        -0.00169
       7 <- 32         0.00079
       7 <- 37        -0.00043
       7 <- 43        -0.00027
       7 <- 46         0.00044
       7 <- 50         0.00049
       8 <-  9        -0.01010
       8 <- 12        -0.00609
       8 <- 13         0.02206
       8 <- 15         0.00688
       8 <- 18         0.00110
       8 <- 20         0.00082
       8 <- 21         0.00551
       8 <- 25         0.00299
       8 <- 26        -0.00028
       8 <- 30        -0.00220
       8 <- 31        -0.00141
       8 <- 33        -0.00129
       8 <- 38        -0.00106
       8 <- 42         0.00066
       8 <- 44         0.00012
       8 <- 47        -0.00060
       8 <- 49         0.00018
 This state for optimization and/or second-order correction.
 Total Energy, E(TD-HF/TD-DFT) =  -112.025162471
 Copying the excited state density for this state as the 1-particle RhoCI density.

 Excited State   2:      Singlet-A2     5.0123 eV  247.36 nm  f=0.0000  <S**2>=0.000
       3 -> 28        -0.00184
       3 -> 35        -0.00108
       3 -> 45        -0.00036
       4 -> 10        -0.00080
       4 -> 17        -0.00309
       4 -> 23         0.00123
       4 -> 27        -0.00211
       4 -> 34         0.00014
       4 -> 36        -0.00129
       4 -> 41        -0.00011
       4 -> 48        -0.00014
       4 -> 52        -0.00024
       5 -> 11         0.00024
       5 -> 16        -0.00018
       5 -> 19         0.00034
       5 -> 22        -0.00081
       5 -> 24         0.00024
       5 -> 29         0.00028
       5 -> 37        -0.00032
       5 -> 40         0.00012
       5 -> 43        -0.00037
       5 -> 46        -0.00032
       5 -> 50         0.00018
       6 -> 28        -0.00312
       6 -> 35         0.00051
       7 -> 28         0.00167
       7 -> 35        -0.00035
       7 -> 45        -0.00038
       8 -> 10         0.70642
       8 -> 14        -0.01670
       8 -> 17         0.02718
       8 -> 23         0.00348
       8 -> 27         0.00098
       8 -> 34         0.00329
       8 -> 36        -0.00176
       8 -> 41         0.00038
       8 -> 48         0.00014
       8 -> 52         0.00033
       3 <- 28        -0.00153
       3 <- 35        -0.00093
       3 <- 45        -0.00035
       4 <- 10        -0.00019
       4 <- 14         0.00054
       4 <- 17        -0.00079
       4 <- 23         0.00014
       4 <- 27        -0.00042
       4 <- 34         0.00071
       4 <- 36        -0.00074
       4 <- 41        -0.00018
       5 <- 11         0.00054
       5 <- 16        -0.00052
       5 <- 19         0.00130
       5 <- 22        -0.00110
       5 <- 24         0.00097
       5 <- 29         0.00127
       5 <- 32         0.00017
       5 <- 37        -0.00066
       5 <- 43        -0.00041
       5 <- 46        -0.00033
       5 <- 54        -0.00022
       6 <- 28        -0.00302
       6 <- 35         0.00065
       7 <- 28         0.00172
       7 <- 35        -0.00047
       7 <- 45        -0.00039
       8 <- 10         0.00211
       8 <- 14         0.00415
       8 <- 17        -0.00672
       8 <- 23         0.00018
       8 <- 27        -0.00062
       8 <- 34         0.00315
       8 <- 36        -0.00140
       8 <- 41         0.00023
       8 <- 52         0.00012

 Excited State   3:      Singlet-B2     5.6517 eV  219.38 nm  f=0.0358  <S**2>=0.000
       3 -> 11        -0.00018
       3 -> 16         0.00044
       3 -> 19        -0.00034
       3 -> 22         0.00030
       3 -> 24         0.00026
       3 -> 29        -0.00030
       3 -> 32         0.00012
       3 -> 37        -0.00019
       3 -> 40         0.00013
       3 -> 43        -0.00020
       3 -> 46         0.00012
       3 -> 54        -0.00018
       4 ->  9         0.00139
       4 -> 12         0.00027
       4 -> 13         0.00109
       4 -> 15         0.00215
       4 -> 18        -0.00110
       4 -> 20        -0.00056
       4 -> 21         0.00111
       4 -> 25         0.00087
       4 -> 26         0.00043
       4 -> 30        -0.00215
       4 -> 31        -0.00032
       4 -> 38         0.00032
       4 -> 39        -0.00095
       4 -> 42        -0.00030
       4 -> 47        -0.00047
       5 -> 28        -0.00100
       5 -> 35        -0.00118
       5 -> 45        -0.00065
       6 -> 11        -0.00073
       6 -> 16         0.00356
       6 -> 19        -0.00190
       6 -> 24         0.00164
       6 -> 29         0.00191
       6 -> 32         0.00041
       6 -> 37         0.00060
       6 -> 40         0.00042
       6 -> 43         0.00029
       6 -> 46        -0.00031
       6 -> 50        -0.00025
       6 -> 54         0.00015
       7 -> 11        -0.00168
       7 -> 16        -0.00437
       7 -> 19        -0.00104
       7 -> 22         0.00040
       7 -> 24        -0.00318
       7 -> 29        -0.00114
       7 -> 32        -0.00048
       7 -> 37         0.00050
       7 -> 43         0.00011
       7 -> 46        -0.00055
       7 -> 50        -0.00027
       7 -> 54         0.00014
       8 ->  9        -0.00075
       8 -> 12         0.70561
       8 -> 13         0.03507
       8 -> 15         0.02676
       8 -> 18         0.00667
       8 -> 20         0.01575
       8 -> 21         0.00545
       8 -> 25        -0.00093
       8 -> 26         0.00191
       8 -> 30        -0.00276
       8 -> 31         0.00053
       8 -> 33        -0.00020
       8 -> 38        -0.00054
       8 -> 39         0.00142
       8 -> 42         0.00088
       8 -> 44        -0.00010
       8 -> 47         0.00035
       8 -> 53        -0.00015
       3 <- 16         0.00041
       3 <- 19        -0.00011
       3 <- 22         0.00015
       3 <- 24         0.00033
       3 <- 29        -0.00016
       3 <- 32         0.00013
       3 <- 37        -0.00020
       3 <- 40         0.00011
       3 <- 43        -0.00018
       3 <- 54        -0.00023
       4 <-  9        -0.00113
       4 <- 12        -0.00018
       4 <- 13         0.00117
       4 <- 15         0.00068
       4 <- 18         0.00058
       4 <- 20        -0.00042
       4 <- 21         0.00076
       4 <- 25         0.00097
       4 <- 26         0.00051
       4 <- 30        -0.00143
       4 <- 33        -0.00056
       4 <- 38         0.00021
       4 <- 39        -0.00070
       4 <- 42        -0.00032
       4 <- 47        -0.00044
       5 <- 28        -0.00061
       5 <- 35        -0.00103
       5 <- 45        -0.00058
       6 <- 11        -0.00053
       6 <- 16         0.00072
       6 <- 19         0.00022
       6 <- 22        -0.00056
       6 <- 24         0.00147
       6 <- 29         0.00149
       6 <- 32         0.00059
       6 <- 37         0.00055
       6 <- 40         0.00036
       6 <- 43         0.00021
       6 <- 46        -0.00026
       6 <- 50        -0.00019
       6 <- 54         0.00010
       7 <- 11         0.00015
       7 <- 16        -0.00143
       7 <- 19        -0.00058
       7 <- 22         0.00029
       7 <- 24        -0.00189
       7 <- 29        -0.00031
       7 <- 32        -0.00040
       7 <- 37         0.00016
       7 <- 46        -0.00049
       7 <- 50        -0.00035
       8 <-  9        -0.00558
       8 <- 12         0.00090
       8 <- 13         0.01169
       8 <- 15         0.00462
       8 <- 18        -0.00122
       8 <- 20        -0.00314
       8 <- 21         0.00330
       8 <- 25         0.00063
       8 <- 30        -0.00229
       8 <- 31         0.00053
       8 <- 33        -0.00013
       8 <- 38        -0.00037
       8 <- 39         0.00126
       8 <- 42         0.00076
       8 <- 47         0.00029

 Excited State   4:      Singlet-A1     5.8425 eV  212.21 nm  f=0.0044  <S**2>=0.000
       3 ->  9         0.00134
       3 -> 12        -0.00044
       3 -> 13         0.00021
       3 -> 15        -0.00078
       3 -> 18        -0.00158
       3 -> 20        -0.00014
       3 -> 21         0.00087
       3 -> 25        -0.00076
       3 -> 26        -0.00032
       3 -> 30         0.00067
       3 -> 31        -0.00081
       3 -> 33         0.00049
       3 -> 38         0.00040
       3 -> 39         0.00033
       3 -> 44        -0.00012
       3 -> 47         0.00011
       3 -> 51         0.00019
       4 -> 11        -0.00590
       4 -> 16        -0.00583
       4 -> 19        -0.00470
       4 -> 22        -0.00255
       4 -> 24        -0.00324
       4 -> 37        -0.00100
       4 -> 40        -0.00013
       4 -> 43         0.00023
       4 -> 50         0.00015
       5 -> 10        -0.00301
       5 -> 14        -0.00377
       5 -> 17        -0.00210
       5 -> 23        -0.00352
       5 -> 27        -0.00076
       5 -> 34        -0.00083
       5 -> 36        -0.00059
       5 -> 48         0.00017
       6 ->  9         0.01153
       6 -> 12         0.00609
       6 -> 13        -0.00374
       6 -> 15        -0.00462
       6 -> 18        -0.00724
       6 -> 20         0.00414
       6 -> 21         0.00169
       6 -> 25        -0.00550
       6 -> 26         0.00099
       6 -> 30        -0.00038
       6 -> 31         0.00182
       6 -> 33         0.00202
       6 -> 38         0.00136
       6 -> 39        -0.00111
       6 -> 42        -0.00018
       6 -> 44         0.00068
       6 -> 47         0.00012
       6 -> 49        -0.00042
       7 ->  9         0.00710
       7 -> 12        -0.01241
       7 -> 13         0.00085
       7 -> 15         0.00577
       7 -> 18        -0.00726
       7 -> 20        -0.00390
       7 -> 21        -0.00115
       7 -> 25         0.00153
       7 -> 26        -0.00343
       7 -> 30        -0.00078
       7 -> 31        -0.00181
       7 -> 33         0.00015
       7 -> 38        -0.00086
       7 -> 39         0.00056
       7 -> 42         0.00016
       7 -> 44        -0.00037
       7 -> 51        -0.00016
       8 -> 11         0.70460
       8 -> 16         0.05424
       8 -> 19        -0.02061
       8 -> 22        -0.00091
       8 -> 24         0.00795
       8 -> 29        -0.00355
       8 -> 32         0.00206
       8 -> 37        -0.00339
       8 -> 40        -0.00047
       8 -> 43         0.00187
       8 -> 46        -0.00100
       8 -> 50         0.00021
       3 <-  9         0.00076
       3 <- 12        -0.00021
       3 <- 13         0.00017
       3 <- 15        -0.00050
       3 <- 18        -0.00102
       3 <- 20        -0.00011
       3 <- 21         0.00060
       3 <- 25        -0.00058
       3 <- 26        -0.00026
       3 <- 30         0.00052
       3 <- 31        -0.00056
       3 <- 33         0.00041
       3 <- 38         0.00031
       3 <- 39         0.00027
       3 <- 44        -0.00011
       3 <- 47         0.00014
       3 <- 51         0.00016
       4 <- 11        -0.00250
       4 <- 16        -0.00244
       4 <- 19        -0.00273
       4 <- 22        -0.00181
       4 <- 24        -0.00180
       4 <- 32         0.00011
       4 <- 37        -0.00083
       4 <- 40        -0.00013
       4 <- 43         0.00022
       4 <- 50         0.00014
       5 <- 10        -0.00172
       5 <- 14        -0.00225
       5 <- 17        -0.00131
       5 <- 23        -0.00248
       5 <- 27        -0.00056
       5 <- 34        -0.00069
       5 <- 36        -0.00050
       5 <- 48         0.00016
       6 <-  9         0.00816
       6 <- 12         0.00314
       6 <- 13        -0.00298
       6 <- 15        -0.00365
       6 <- 18        -0.00390
       6 <- 20         0.00229
       6 <- 21         0.00196
       6 <- 25        -0.00372
       6 <- 26         0.00064
       6 <- 31         0.00135
       6 <- 33         0.00145
       6 <- 38         0.00132
       6 <- 39        -0.00085
       6 <- 42        -0.00017
       6 <- 44         0.00066
       6 <- 49        -0.00036
       7 <-  9        -0.00012
       7 <- 12        -0.00512
       7 <- 13         0.00152
       7 <- 15         0.00398
       7 <- 18        -0.00343
       7 <- 20        -0.00183
       7 <- 21        -0.00121
       7 <- 25         0.00110
       7 <- 26        -0.00229
       7 <- 30        -0.00077
       7 <- 31        -0.00138
       7 <- 33         0.00012
       7 <- 38        -0.00078
       7 <- 39         0.00032
       7 <- 44        -0.00037
       7 <- 47        -0.00011
       7 <- 51        -0.00015
       8 <- 11        -0.01136
       8 <- 16         0.00514
       8 <- 19        -0.01596
       8 <- 22        -0.00426
       8 <- 24         0.00373
       8 <- 29        -0.00262
       8 <- 32         0.00187
       8 <- 37        -0.00271
       8 <- 40        -0.00019
       8 <- 43         0.00151
       8 <- 46        -0.00095
       8 <- 50         0.00021

 Excited State   5:      Singlet-A2     8.2780 eV  149.78 nm  f=0.0000  <S**2>=0.000
       3 -> 28         0.00249
       3 -> 35         0.00155
       3 -> 45         0.00049
       4 -> 10        -0.00013
       4 -> 14        -0.00631
       4 -> 17         0.00175
       4 -> 23        -0.00321
       4 -> 27         0.00058
       4 -> 34         0.00073
       4 -> 36         0.00232
       4 -> 41        -0.00011
       4 -> 52         0.00027
       5 -> 16        -0.00031
       5 -> 19        -0.00048
       5 -> 22         0.00124
       5 -> 24        -0.00073
       5 -> 37         0.00042
       5 -> 40        -0.00016
       5 -> 43         0.00059
       5 -> 46         0.00041
       5 -> 50        -0.00013
       5 -> 54         0.00012
       6 -> 28         0.00266
       6 -> 35        -0.00064
       7 -> 28        -0.00152
       7 -> 35         0.00039
       7 -> 45         0.00043
       8 -> 10         0.01914
       8 -> 14         0.70325
       8 -> 17        -0.06852
       8 -> 23         0.01881
       8 -> 27        -0.00228
       8 -> 34        -0.00280
       8 -> 36         0.00279
       8 -> 41        -0.00017
       8 -> 52        -0.00036
       3 <- 28         0.00173
       3 <- 35         0.00126
       3 <- 45         0.00053
       4 <- 10         0.00032
       4 <- 14        -0.00060
       4 <- 17         0.00060
       4 <- 23        -0.00023
       4 <- 27         0.00029
       4 <- 34        -0.00061
       4 <- 36         0.00090
       4 <- 41         0.00024
       4 <- 52         0.00010
       5 <- 11         0.00039
       5 <- 16        -0.00016
       5 <- 19        -0.00037
       5 <- 22         0.00148
       5 <- 24        -0.00145
       5 <- 29        -0.00037
       5 <- 32        -0.00051
       5 <- 37         0.00103
       5 <- 43         0.00065
       5 <- 46         0.00014
       5 <- 54         0.00025
       6 <- 28         0.00278
       6 <- 35        -0.00058
       6 <- 45        -0.00012
       7 <- 28        -0.00144
       7 <- 35         0.00010
       7 <- 45         0.00025
       8 <- 10         0.00461
       8 <- 14        -0.00241
       8 <- 17         0.00454
       8 <- 23        -0.00080
       8 <- 27         0.00045
       8 <- 34        -0.00307
       8 <- 36         0.00149
       8 <- 41        -0.00023

 The electronic state is 1-A1.
 Alpha  occ. eigenvalues --  -19.23030 -10.37256  -1.29484  -0.83471  -0.80619
 Alpha  occ. eigenvalues --   -0.58253  -0.53573  -0.20020
 Alpha virt. eigenvalues --    0.00544   0.02695   0.04427   0.04696   0.14307
 Alpha virt. eigenvalues --    0.15530   0.17911   0.18095   0.21777   0.22752
 Alpha virt. eigenvalues --    0.27760   0.36595   0.50701   0.57530   0.59719

 Mulliken charges:
               1
     1  C    0.265560
     2  H   -0.113748
     3  H   -0.113748
     4  O   -0.038065
 Sum of Mulliken charges =  -0.00000

 Dipole moment (field-independent basis, Debye):
    X=              0.0000    Y=              0.0000    Z=              1.3796  Tot=              1.3796
 Quadrupole moment (field-independent basis, Debye-Ang):
   XX=            -10.1378   YY=            -13.9202   ZZ=            -13.6823
   XY=             -0.0000   XZ=             -0.0000   YZ=             -0.0000

 Normal termination of Gaussian 16 at Fri Sep 17 10:52:24 2021.
