 Gaussian 16, Revision A.03,
 Gaussian 16:  ES64L-G16RevA.03 25-Dec-2016

 --------------------------------------------------------------------
 #p B3LYP/6-311+G** #p TD=(singlets,nstates=30)IOp(6/8=3) IOp(9/40=4)
 --------------------------------------------------------------------

 -------------------------------
 Scan Step 35, Bond Length 0.675
 -------------------------------
 Symbolic Z-matrix:
 Charge =  0 Multiplicity = 1

                         Standard orientation:
 ---------------------------------------------------------------------
 Center     Atomic      Atomic             Coordinates (Angstroms)
 Number     Number       Type             X           Y           Z
 ---------------------------------------------------------------------
      1          6           0        0.000000    0.000000   -0.263581
      2          1           0        0.000000    0.937260   -0.854931
      3          1           0       -0.000000   -0.937260   -0.854931
      4          8           0        0.000000   -0.000000    0.411419
 ---------------------------------------------------------------------

 SCF Done:  E(RB3LYP) =  -112.765104789     A.U. after   10 cycles

 Excitation energies and oscillator strengths:

 Excited State   1:      Singlet-B2     4.8375 eV  256.30 nm  f=0.1240  <S**2>=0.000
       3 -> 11         0.00075
       3 -> 16         0.00062
       3 -> 19         0.00076
       3 -> 22         0.00045
       3 -> 24        -0.00100
       3 -> 29         0.00020
       3 -> 32        -0.00018
       3 -> 40        -0.00022
       3 -> 43         0.00021
       3 -> 50        -0.00010
       3 -> 53         0.00015
       4 ->  9        -0.00287
       4 -> 12         0.00300
       4 -> 13         0.00353
       4 -> 15         0.00151
       4 -> 18         0.00279
       4 -> 20         0.00204
       4 -> 21         0.00171
       4 -> 25         0.00146
       4 -> 26        -0.00077
       4 -> 30         0.00064
       4 -> 31         0.00157
       4 -> 33         0.00027
       4 -> 38        -0.00066
       4 -> 42        -0.00049
       4 -> 44        -0.00030
       4 -> 47        -0.00077
       4 -> 49         0.00016
       4 -> 51        -0.00010
       5 -> 28         0.00181
       5 -> 35         0.00080
       5 -> 45         0.00080
       6 -> 11        -0.00530
       6 -> 16         0.00348
       6 -> 19         0.00057
       6 -> 22        -0.00085
       6 -> 24        -0.00467
       6 -> 29         0.00071
       6 -> 32        -0.00075
       6 -> 37         0.00022
       6 -> 43         0.00016
       6 -> 46         0.00033
       7 -> 11         0.00812
       7 -> 16         0.00352
       7 -> 19         0.00294
       7 -> 24        -0.00058
       7 -> 29        -0.00108
       7 -> 32         0.00086
       7 -> 37        -0.00071
       7 -> 43        -0.00042
       7 -> 46         0.00041
       7 -> 50         0.00043
       7 -> 53        -0.00011
       8 ->  9         0.70530
       8 -> 12        -0.00024
       8 -> 13         0.04808
       8 -> 15        -0.00650
       8 -> 18        -0.02206
       8 -> 20         0.00546
       8 -> 21         0.01025
       8 -> 25        -0.00022
       8 -> 26        -0.00037
       8 -> 30        -0.00305
       8 -> 31        -0.00210
       8 -> 33        -0.00104
       8 -> 38        -0.00112
       8 -> 39         0.00010
       8 -> 42        -0.00074
       8 -> 44         0.00033
       8 -> 47         0.00077
       8 -> 49        -0.00028
       8 -> 51         0.00011
       3 <- 11         0.00032
       3 <- 16         0.00029
       3 <- 19         0.00049
       3 <- 22         0.00036
       3 <- 24        -0.00076
       3 <- 29         0.00016
       3 <- 32        -0.00020
       3 <- 40        -0.00023
       3 <- 43         0.00020
       3 <- 53         0.00016
       4 <-  9        -0.00128
       4 <- 12        -0.00022
       4 <- 13         0.00289
       4 <- 15         0.00179
       4 <- 18         0.00056
       4 <- 20         0.00117
       4 <- 21         0.00133
       4 <- 25         0.00120
       4 <- 26        -0.00132
       4 <- 30         0.00051
       4 <- 31         0.00065
       4 <- 33         0.00023
       4 <- 38        -0.00043
       4 <- 39         0.00015
       4 <- 42        -0.00040
       4 <- 44        -0.00024
       4 <- 47        -0.00069
       5 <- 28         0.00150
       5 <- 35         0.00065
       5 <- 45         0.00067
       6 <- 11        -0.00092
       6 <- 16         0.00307
       6 <- 19         0.00082
       6 <- 22        -0.00013
       6 <- 24        -0.00343
       6 <- 29         0.00024
       6 <- 32        -0.00065
       6 <- 37         0.00027
       6 <- 43         0.00011
       6 <- 46         0.00031
       6 <- 50         0.00017
       7 <- 11         0.00172
       7 <- 16         0.00149
       7 <- 19         0.00027
       7 <- 24         0.00012
       7 <- 29        -0.00157
       7 <- 32         0.00068
       7 <- 37        -0.00043
       7 <- 43        -0.00029
       7 <- 46         0.00043
       7 <- 50         0.00049
       8 <-  9        -0.00855
       8 <- 12        -0.00538
       8 <- 13         0.02020
       8 <- 15         0.00618
       8 <- 18         0.00139
       8 <- 20         0.00054
       8 <- 21         0.00522
       8 <- 25         0.00308
       8 <- 30        -0.00201
       8 <- 31        -0.00139
       8 <- 33        -0.00138
       8 <- 38        -0.00107
       8 <- 42        -0.00063
       8 <- 47         0.00066
       8 <- 49        -0.00020
 This state for optimization and/or second-order correction.
 Total Energy, E(TD-HF/TD-DFT) =  -112.587329214
 Copying the excited state density for this state as the 1-particle RhoCI density.

 Excited State   2:      Singlet-A2     5.1600 eV  240.28 nm  f=0.0000  <S**2>=0.000
       3 -> 28        -0.00186
       3 -> 35        -0.00116
       3 -> 45        -0.00042
       4 -> 10        -0.00091
       4 -> 14         0.00093
       4 -> 17        -0.00365
       4 -> 23         0.00164
       4 -> 27        -0.00221
       4 -> 36        -0.00150
       4 -> 41        -0.00016
       4 -> 48        -0.00013
       4 -> 52        -0.00028
       5 -> 11         0.00028
       5 -> 16        -0.00014
       5 -> 19         0.00035
       5 -> 22        -0.00092
       5 -> 24        -0.00023
       5 -> 29         0.00022
       5 -> 32        -0.00011
       5 -> 37        -0.00033
       5 -> 43        -0.00038
       5 -> 46        -0.00036
       5 -> 50         0.00019
       6 -> 28        -0.00327
       6 -> 35         0.00048
       7 -> 28         0.00145
       7 -> 35        -0.00032
       7 -> 45        -0.00046
       8 -> 10         0.70605
       8 -> 14        -0.02731
       8 -> 17         0.02803
       8 -> 23         0.00298
       8 -> 27         0.00157
       8 -> 34         0.00321
       8 -> 36        -0.00192
       8 -> 41         0.00026
       8 -> 48         0.00014
       8 -> 52         0.00037
       3 <- 28        -0.00153
       3 <- 35        -0.00100
       3 <- 45        -0.00040
       4 <- 10        -0.00018
       4 <- 14         0.00070
       4 <- 17        -0.00075
       4 <- 23         0.00012
       4 <- 27        -0.00037
       4 <- 34         0.00075
       4 <- 36        -0.00083
       4 <- 41        -0.00023
       5 <- 11         0.00061
       5 <- 16        -0.00058
       5 <- 19         0.00151
       5 <- 22        -0.00136
       5 <- 24        -0.00117
       5 <- 29         0.00132
       5 <- 32         0.00022
       5 <- 37        -0.00075
       5 <- 43        -0.00043
       5 <- 46        -0.00036
       5 <- 53        -0.00025
       6 <- 28        -0.00319
       6 <- 35         0.00062
       7 <- 28         0.00152
       7 <- 35        -0.00041
       7 <- 45        -0.00046
       8 <- 10         0.00135
       8 <- 14         0.00526
       8 <- 17        -0.00616
       8 <- 23         0.00019
       8 <- 27        -0.00052
       8 <- 34         0.00308
       8 <- 36        -0.00154
       8 <- 41         0.00018
       8 <- 52         0.00013

 Excited State   3:      Singlet-B2     5.7751 eV  214.69 nm  f=0.0338  <S**2>=0.000
       3 -> 11        -0.00015
       3 -> 16         0.00046
       3 -> 19        -0.00029
       3 -> 22         0.00029
       3 -> 24        -0.00034
       3 -> 29        -0.00040
       3 -> 32         0.00013
       3 -> 37        -0.00021
       3 -> 43        -0.00022
       3 -> 46         0.00015
       3 -> 50         0.00011
       3 -> 53        -0.00017
       4 ->  9         0.00182
       4 -> 12         0.00032
       4 -> 13         0.00127
       4 -> 15         0.00249
       4 -> 18        -0.00137
       4 -> 20        -0.00049
       4 -> 21         0.00122
       4 -> 25         0.00085
       4 -> 26         0.00059
       4 -> 30        -0.00217
       4 -> 31        -0.00057
       4 -> 38         0.00024
       4 -> 39        -0.00096
       4 -> 42         0.00032
       4 -> 47         0.00052
       5 -> 28        -0.00099
       5 -> 35        -0.00123
       5 -> 45        -0.00070
       6 -> 11        -0.00047
       6 -> 16         0.00377
       6 -> 19        -0.00167
       6 -> 24        -0.00205
       6 -> 29         0.00182
       6 -> 32         0.00041
       6 -> 37         0.00060
       6 -> 40         0.00042
       6 -> 43         0.00030
       6 -> 46        -0.00029
       6 -> 50        -0.00024
       6 -> 53         0.00013
       7 -> 11        -0.00219
       7 -> 16        -0.00418
       7 -> 19        -0.00129
       7 -> 22         0.00071
       7 -> 24         0.00311
       7 -> 29        -0.00095
       7 -> 32        -0.00045
       7 -> 37         0.00057
       7 -> 43         0.00018
       7 -> 46        -0.00057
       7 -> 50        -0.00031
       7 -> 53         0.00014
       8 ->  9        -0.00113
       8 -> 12         0.70572
       8 -> 13         0.03141
       8 -> 15         0.02706
       8 -> 18         0.00843
       8 -> 20         0.01580
       8 -> 21         0.00531
       8 -> 25        -0.00088
       8 -> 26         0.00175
       8 -> 30        -0.00256
       8 -> 31         0.00044
       8 -> 33        -0.00025
       8 -> 38        -0.00037
       8 -> 39         0.00142
       8 -> 42        -0.00086
       8 -> 47        -0.00044
       8 -> 49         0.00011
       8 -> 54        -0.00015
       3 <- 16         0.00045
       3 <- 22         0.00015
       3 <- 24        -0.00039
       3 <- 29        -0.00024
       3 <- 32         0.00013
       3 <- 37        -0.00022
       3 <- 43        -0.00019
       3 <- 46         0.00011
       3 <- 53        -0.00022
       4 <-  9        -0.00120
       4 <- 12        -0.00015
       4 <- 13         0.00129
       4 <- 15         0.00070
       4 <- 18         0.00061
       4 <- 20        -0.00043
       4 <- 21         0.00084
       4 <- 25         0.00097
       4 <- 26         0.00064
       4 <- 30        -0.00144
       4 <- 33        -0.00059
       4 <- 38         0.00017
       4 <- 39        -0.00072
       4 <- 42         0.00033
       4 <- 47         0.00049
       5 <- 28        -0.00059
       5 <- 35        -0.00106
       5 <- 45        -0.00062
       6 <- 11        -0.00042
       6 <- 16         0.00079
       6 <- 19         0.00036
       6 <- 22        -0.00060
       6 <- 24        -0.00164
       6 <- 29         0.00135
       6 <- 32         0.00058
       6 <- 37         0.00058
       6 <- 40         0.00037
       6 <- 43         0.00020
       6 <- 46        -0.00025
       6 <- 50        -0.00017
       7 <- 16        -0.00139
       7 <- 19        -0.00058
       7 <- 22         0.00046
       7 <- 24         0.00174
       7 <- 29        -0.00017
       7 <- 32        -0.00036
       7 <- 37         0.00021
       7 <- 43         0.00011
       7 <- 46        -0.00051
       7 <- 50        -0.00039
       8 <-  9        -0.00494
       8 <- 12         0.00109
       8 <- 13         0.01095
       8 <- 15         0.00422
       8 <- 18        -0.00117
       8 <- 20        -0.00301
       8 <- 21         0.00331
       8 <- 25         0.00065
       8 <- 30        -0.00220
       8 <- 31         0.00039
       8 <- 33        -0.00011
       8 <- 38        -0.00019
       8 <- 39         0.00122
       8 <- 42        -0.00075
       8 <- 47        -0.00036

 Excited State   4:      Singlet-A1     5.9436 eV  208.60 nm  f=0.0093  <S**2>=0.000
       3 ->  9         0.00126
       3 -> 12        -0.00050
       3 -> 13         0.00020
       3 -> 15        -0.00070
       3 -> 18        -0.00149
       3 -> 20        -0.00010
       3 -> 21         0.00077
       3 -> 25        -0.00061
       3 -> 26        -0.00029
       3 -> 30         0.00072
       3 -> 31        -0.00074
       3 -> 33         0.00040
       3 -> 38         0.00035
       3 -> 39         0.00033
       3 -> 47        -0.00012
       3 -> 51         0.00019
       3 -> 54        -0.00013
       4 -> 11        -0.00617
       4 -> 16        -0.00644
       4 -> 19        -0.00465
       4 -> 22        -0.00235
       4 -> 24         0.00327
       4 -> 29         0.00029
       4 -> 37        -0.00103
       4 -> 40        -0.00012
       4 -> 43         0.00026
       4 -> 50         0.00020
       5 -> 10        -0.00357
       5 -> 14        -0.00343
       5 -> 17        -0.00299
       5 -> 23        -0.00341
       5 -> 27        -0.00093
       5 -> 34        -0.00089
       5 -> 36        -0.00059
       5 -> 41        -0.00013
       5 -> 48         0.00023
       6 ->  9         0.01135
       6 -> 12         0.00644
       6 -> 13        -0.00425
       6 -> 15        -0.00419
       6 -> 18        -0.00705
       6 -> 20         0.00483
       6 -> 21         0.00110
       6 -> 25        -0.00580
       6 -> 26         0.00088
       6 -> 30        -0.00034
       6 -> 31         0.00145
       6 -> 33         0.00196
       6 -> 38         0.00118
       6 -> 39        -0.00115
       6 -> 42         0.00013
       6 -> 44         0.00058
       6 -> 49         0.00045
       7 ->  9         0.00717
       7 -> 12        -0.01203
       7 -> 13         0.00132
       7 -> 15         0.00485
       7 -> 18        -0.00705
       7 -> 20        -0.00365
       7 -> 21        -0.00051
       7 -> 25         0.00178
       7 -> 26        -0.00279
       7 -> 30        -0.00058
       7 -> 31        -0.00179
       7 -> 33         0.00014
       7 -> 38        -0.00061
       7 -> 39         0.00054
       7 -> 42        -0.00012
       7 -> 44        -0.00033
       7 -> 51        -0.00017
       8 -> 11         0.70476
       8 -> 16         0.05216
       8 -> 19        -0.01887
       8 -> 22        -0.00052
       8 -> 24        -0.00638
       8 -> 29        -0.00395
       8 -> 32         0.00193
       8 -> 37        -0.00323
       8 -> 40        -0.00037
       8 -> 43         0.00183
       8 -> 46        -0.00088
       8 -> 50         0.00018
       3 <-  9         0.00068
       3 <- 12        -0.00024
       3 <- 13         0.00015
       3 <- 15        -0.00044
       3 <- 18        -0.00095
       3 <- 21         0.00050
       3 <- 25        -0.00048
       3 <- 26        -0.00023
       3 <- 30         0.00053
       3 <- 31        -0.00049
       3 <- 33         0.00035
       3 <- 38         0.00026
       3 <- 39         0.00027
       3 <- 47        -0.00015
       3 <- 51         0.00016
       3 <- 54        -0.00012
       4 <- 11        -0.00250
       4 <- 16        -0.00262
       4 <- 19        -0.00264
       4 <- 22        -0.00170
       4 <- 24         0.00177
       4 <- 29         0.00012
       4 <- 32         0.00015
       4 <- 37        -0.00086
       4 <- 40        -0.00011
       4 <- 43         0.00024
       4 <- 50         0.00018
       5 <- 10        -0.00194
       5 <- 14        -0.00195
       5 <- 17        -0.00179
       5 <- 23        -0.00235
       5 <- 27        -0.00068
       5 <- 34        -0.00073
       5 <- 36        -0.00050
       5 <- 41        -0.00011
       5 <- 48         0.00021
       6 <-  9         0.00810
       6 <- 12         0.00322
       6 <- 13        -0.00333
       6 <- 15        -0.00342
       6 <- 18        -0.00382
       6 <- 20         0.00273
       6 <- 21         0.00156
       6 <- 25        -0.00388
       6 <- 26         0.00054
       6 <- 30         0.00011
       6 <- 31         0.00107
       6 <- 33         0.00141
       6 <- 38         0.00119
       6 <- 39        -0.00091
       6 <- 42         0.00012
       6 <- 44         0.00058
       6 <- 49         0.00038
       7 <-  9         0.00017
       7 <- 12        -0.00487
       7 <- 13         0.00169
       7 <- 15         0.00340
       7 <- 18        -0.00329
       7 <- 20        -0.00176
       7 <- 21        -0.00072
       7 <- 25         0.00123
       7 <- 26        -0.00180
       7 <- 30        -0.00063
       7 <- 31        -0.00137
       7 <- 38        -0.00057
       7 <- 39         0.00031
       7 <- 44        -0.00034
       7 <- 47         0.00010
       7 <- 51        -0.00016
       8 <- 11        -0.00937
       8 <- 16         0.00504
       8 <- 19        -0.01530
       8 <- 22        -0.00395
       8 <- 24        -0.00240
       8 <- 29        -0.00277
       8 <- 32         0.00173
       8 <- 37        -0.00255
       8 <- 40        -0.00012
       8 <- 43         0.00147
       8 <- 46        -0.00086
       8 <- 50         0.00018

 Excited State   5:      Singlet-A2     8.1190 eV  152.71 nm  f=0.0000  <S**2>=0.000
       3 -> 28         0.00264
       3 -> 35         0.00174
       3 -> 45         0.00060
       4 -> 10         0.00067
       4 -> 14        -0.00764
       4 -> 17         0.00154
       4 -> 23        -0.00344
       4 -> 27         0.00071
       4 -> 34         0.00106
       4 -> 36         0.00269
       4 -> 52         0.00036
       5 -> 16        -0.00058
       5 -> 19        -0.00047
       5 -> 22         0.00146
       5 -> 24         0.00067
       5 -> 32         0.00010
       5 -> 37         0.00047
       5 -> 40        -0.00013
       5 -> 43         0.00063
       5 -> 46         0.00048
       5 -> 50        -0.00013
       5 -> 53         0.00015
       6 -> 28         0.00286
       6 -> 35        -0.00068
       6 -> 45         0.00014
       7 -> 28        -0.00128
       7 -> 35         0.00044
       7 -> 45         0.00057
       8 -> 10         0.02942
       8 -> 14         0.70380
       8 -> 17        -0.05792
       8 -> 23         0.02051
       8 -> 27        -0.00272
       8 -> 34        -0.00282
       8 -> 36         0.00284
       8 -> 52        -0.00042
       3 <- 28         0.00181
       3 <- 35         0.00143
       3 <- 45         0.00066
       4 <- 10         0.00033
       4 <- 14        -0.00075
       4 <- 17         0.00046
       4 <- 23        -0.00019
       4 <- 27         0.00024
       4 <- 34        -0.00065
       4 <- 36         0.00103
       4 <- 41         0.00030
       4 <- 52         0.00012
       5 <- 11         0.00035
       5 <- 16        -0.00023
       5 <- 19        -0.00059
       5 <- 22         0.00190
       5 <- 24         0.00161
       5 <- 29        -0.00043
       5 <- 32        -0.00060
       5 <- 37         0.00122
       5 <- 43         0.00075
       5 <- 46         0.00020
       5 <- 53         0.00032
       6 <- 28         0.00304
       6 <- 35        -0.00054
       7 <- 28        -0.00131
       7 <- 45         0.00037
       8 <- 10         0.00551
       8 <- 14        -0.00351
       8 <- 17         0.00408
       8 <- 23        -0.00077
       8 <- 27         0.00048
       8 <- 34        -0.00308
       8 <- 36         0.00166
       8 <- 41        -0.00021
       8 <- 52        -0.00017

 Excited State   6:      Singlet-B2     9.0082 eV  137.63 nm  f=0.0908  <S**2>=0.000
       3 -> 11         0.00042

 The electronic state is 1-A1.
 Alpha  occ. eigenvalues --  -19.19489 -10.31828  -1.31815  -0.78685  -0.75595
 Alpha  occ. eigenvalues --   -0.58034  -0.54500  -0.20511
 Alpha virt. eigenvalues --    0.00803   0.02789   0.04431   0.04664   0.14387
 Alpha virt. eigenvalues --    0.14661   0.17780   0.18540   0.21695   0.23402
 Alpha virt. eigenvalues --    0.27015   0.36570   0.50703   0.57339   0.58166

 Mulliken charges:
               1
     1  C    0.313711
     2  H   -0.097444
     3  H   -0.097444
     4  O   -0.118823
 Sum of Mulliken charges =   0.00000

 Dipole moment (field-independent basis, Debye):
    X=              0.0000    Y=             -0.0000    Z=              1.1214  Tot=              1.1214
 Quadrupole moment (field-independent basis, Debye-Ang):
   XX=            -10.2270   YY=            -13.6241   ZZ=            -13.6340
   XY=             -0.0000   XZ=             -0.0000   YZ=             -0.0000

 Normal termination of Gaussian 16 at Fri Sep 17 10:52:24 2021.
