 Gaussian 16, Revision C.01,
 Gaussian 16:  ES64L-G16RevC.01  3-Jul-2019

 ----------------------------------------
 #P wB97XD/6-311+G* NoSymm #P Field=X+107
 ----------------------------------------

 -------
 TitleMe
 -------
 Symbolic Z-matrix:
 Charge =  1 Multiplicity = 1

                          Input orientation:
 ---------------------------------------------------------------------
 Center     Atomic      Atomic             Coordinates (Angstroms)
 Number     Number       Type             X           Y           Z
 ---------------------------------------------------------------------
      1          6           0        0.519300    1.233000   -0.031900
      2          6           0        1.944500    1.269200   -0.036700
      3          6           0        2.620400    0.092800   -0.025000
      4          6           0       -0.196000    0.030100    0.001000
      5          1           0       -0.020700    2.174200   -0.043400
      6          1           0        2.482800    2.208900   -0.036100
      7          1           0       -1.277700    0.039900    0.011700
      8          7           0        4.092100    0.095900    0.036600
      9          8           0        4.639300   -1.021700    0.144600
     10          8           0        4.664900    1.198400   -0.023300
     11          6           0        0.494300   -1.167100    0.021000
     12          1           0       -0.032500   -2.114900    0.054500
     13          6           0        1.962900   -1.216500   -0.021100
     14          1           0        2.443600   -1.963100    0.615100
     15         35           0        2.173000   -1.949100   -1.906200
 ---------------------------------------------------------------------

 SCF Done:  E(RwB97XD) =  -3010.52659287     A.U. after   18 cycles

 Alpha  occ. eigenvalues -- -483.34772 -62.89801 -56.69488 -56.68927 -56.68918
 Alpha  occ. eigenvalues --  -19.52905 -19.52835 -14.92134 -10.62996 -10.61763
 Alpha  occ. eigenvalues --  -10.60194 -10.59676 -10.57505 -10.55057  -9.05613
 Alpha  occ. eigenvalues --   -6.88276  -6.86431  -6.86405  -2.98184  -2.97697
 Alpha  occ. eigenvalues --   -2.97675  -2.96199  -2.96199  -1.56518  -1.39548
 Alpha  occ. eigenvalues --   -1.26036  -1.16484  -1.16071  -1.08470  -1.04431
 Alpha  occ. eigenvalues --   -0.98631  -0.94323  -0.90190  -0.86705  -0.85174
 Alpha  occ. eigenvalues --   -0.84289  -0.81704  -0.80799  -0.79183  -0.75359
 Alpha  occ. eigenvalues --   -0.71123  -0.70709  -0.66576  -0.64288  -0.63609
 Alpha  occ. eigenvalues --   -0.63024  -0.62723  -0.60007  -0.58428
 Alpha virt. eigenvalues --   -0.33643  -0.25559  -0.19374  -0.16933  -0.12321
 Alpha virt. eigenvalues --   -0.09599  -0.09062  -0.08542  -0.07286  -0.06056
 Alpha virt. eigenvalues --   -0.05427  -0.05089  -0.04792  -0.03945  -0.03354

 Mulliken charges:
               1
     1  C   -0.123167
     2  C    0.184103
     3  C   -0.130373
     4  C   -0.324332
     5  H    0.372289
     6  H    0.337241
     7  H    0.379720
     8  N   -0.237055
     9  O    0.046687
    10  O    0.018220
    11  C   -0.166134
    12  H    0.382969
    13  C   -0.300280
    14  H    0.398124
    15  Br   0.161987
 Sum of Mulliken charges =   1.00000

 Dipole moment (field-independent basis, Debye):
    X=             -0.2610    Y=             -0.7502    Z=             -0.6025  Tot=              0.9970
 Quadrupole moment (field-independent basis, Debye-Ang):
   XX=            -79.9399   YY=            -51.3601   ZZ=            -62.5071
   XY=             -2.2001   XZ=             -1.7189   YZ=              2.1049

 Normal termination of Gaussian 16 at Thu May  2 14:17:28 2024.
