 Gaussian 16, Revision C.01,
 Gaussian 16:  ES64L-G16RevC.01  3-Jul-2019

 ----------------------------------------
 #P wB97XD/6-311+G* NoSymm #P Field=X+214
 ----------------------------------------

 -------
 TitleMe
 -------
 Symbolic Z-matrix:
 Charge =  1 Multiplicity = 1

                          Input orientation:
 ---------------------------------------------------------------------
 Center     Atomic      Atomic             Coordinates (Angstroms)
 Number     Number       Type             X           Y           Z
 ---------------------------------------------------------------------
      1          6           0        0.029500    1.339700    0.068200
      2          6           0        1.434800    1.286700    0.006400
      3          6           0        2.111800    0.051100   -0.005400
      4          6           0        1.445100   -1.137200    0.031200
      5          6           0       -0.687900    0.168200    0.110000
      6          1           0       -0.471300    2.298400    0.078100
      7          1           0        2.027300    2.196500   -0.032200
      8          1           0        1.989700   -2.076400    0.023200
      9          1           0       -1.771600    0.180400    0.158200
     10          7           0        3.586400    0.051000   -0.067500
     11          8           0        4.147100   -1.059700   -0.088100
     12          8           0        4.145000    1.163900   -0.090100
     13          6           0       -0.023600   -1.145800    0.083500
     14          1           0       -0.436700   -1.872500    0.788900
     15         35           0       -0.535900   -1.869700   -1.740800
 ---------------------------------------------------------------------

 SCF Done:  E(RwB97XD) =  -3010.56964257     A.U. after   19 cycles

 Alpha  occ. eigenvalues -- -483.32895 -62.87880 -56.67603 -56.66996 -56.66983
 Alpha  occ. eigenvalues --  -19.56645 -19.56556 -14.95785 -10.62368 -10.61380
 Alpha  occ. eigenvalues --  -10.60851 -10.60102 -10.58977 -10.55112  -9.03656
 Alpha  occ. eigenvalues --   -6.86411  -6.84430  -6.84383  -2.96296  -2.95780
 Alpha  occ. eigenvalues --   -2.95741  -2.94157  -2.94157  -1.60354  -1.43449
 Alpha  occ. eigenvalues --   -1.26520  -1.18274  -1.14828  -1.07689  -1.05899
 Alpha  occ. eigenvalues --   -0.98521  -0.95775  -0.92709  -0.90177  -0.88687
 Alpha  occ. eigenvalues --   -0.85597  -0.82676  -0.80800  -0.79023  -0.75340
 Alpha  occ. eigenvalues --   -0.71689  -0.70332  -0.67907  -0.67809  -0.66830
 Alpha  occ. eigenvalues --   -0.66664  -0.62670  -0.57404  -0.56886
 Alpha virt. eigenvalues --   -0.32270  -0.30216  -0.18753  -0.17282  -0.16302
 Alpha virt. eigenvalues --   -0.13362  -0.12274  -0.10967  -0.10281  -0.07906
 Alpha virt. eigenvalues --   -0.07015  -0.06189  -0.05215  -0.04565  -0.03825

 Mulliken charges:
               1
     1  C   -0.624642
     2  C    0.575425
     3  C   -0.749621
     4  C    0.154796
     5  C    0.080652
     6  H    0.378205
     7  H    0.326799
     8  H    0.343284
     9  H    0.440069
    10  N   -0.106111
    11  O   -0.065418
    12  O   -0.068432
    13  C   -0.425593
    14  H    0.439962
    15  Br   0.300625
 Sum of Mulliken charges =   1.00000

 Dipole moment (field-independent basis, Debye):
    X=             -7.4133    Y=             -1.3622    Z=             -0.5778  Tot=              7.5595
 Quadrupole moment (field-independent basis, Debye-Ang):
   XX=            -87.5086   YY=            -51.3405   ZZ=            -61.0879
   XY=              2.2543   XZ=              2.7976   YZ=              3.2219

 Normal termination of Gaussian 16 at Wed May  1 14:47:19 2024.
