 Gaussian 16, Revision A.03,
 Gaussian 16:  ES64L-G16RevA.03 25-Dec-2016

 --------------------------------------------------------------------
 #p B3LYP/6-311+G** #p TD=(singlets,nstates=30)IOp(6/8=3) IOp(9/40=4)
 --------------------------------------------------------------------

 -------------------------------
 Scan Step 106, Bond Length 1.03
 -------------------------------
 Symbolic Z-matrix:
 Charge =  0 Multiplicity = 1

                         Standard orientation:
 ---------------------------------------------------------------------
 Center     Atomic      Atomic             Coordinates (Angstroms)
 Number     Number       Type             X           Y           Z
 ---------------------------------------------------------------------
      1          6           0        0.000000    0.000000   -0.441081
      2          1           0        0.000000    0.937260   -1.032431
      3          1           0       -0.000000   -0.937260   -1.032431
      4          8           0        0.000000    0.000000    0.588919
 ---------------------------------------------------------------------

 SCF Done:  E(RB3LYP) =  -114.472837591     A.U. after    9 cycles

 Excitation energies and oscillator strengths:

 Excited State   1:      Singlet-A2     4.9504 eV  250.45 nm  f=0.0000  <S**2>=0.000
       3 -> 27         0.00296
       3 -> 37         0.00246
       3 -> 45         0.00182
       4 -> 27         0.00284
       4 -> 37        -0.00074
       4 -> 45        -0.00100
       5 ->  9         0.01780
       5 -> 13        -0.00799
       5 -> 17         0.00620
       5 -> 23        -0.00247
       5 -> 28         0.00372
       5 -> 31         0.00287
       5 -> 36         0.00402
       5 -> 44         0.00067
       5 -> 47         0.00011
       5 -> 52         0.00085
       6 -> 27         0.00055
       6 -> 37        -0.00059
       6 -> 45         0.00159
       7 -> 12        -0.00062
       7 -> 16         0.00180
       7 -> 18         0.00165
       7 -> 22         0.00156
       7 -> 24         0.00113
       7 -> 29        -0.00069
       7 -> 34         0.00035
       7 -> 35         0.00050
       7 -> 40        -0.00033
       7 -> 42        -0.00030
       7 -> 48         0.00062
       7 -> 51        -0.00019
       7 -> 53         0.00039
       8 ->  9         0.70085
       8 -> 13        -0.08868
       8 -> 17         0.02597
       8 -> 23        -0.01174
       8 -> 28         0.00682
       8 -> 31         0.00349
       8 -> 36        -0.00147
       8 -> 44        -0.00025
       8 -> 47        -0.00016
       8 -> 52         0.00131
       3 <- 27         0.00207
       3 <- 37         0.00209
       3 <- 45         0.00190
       4 <- 27         0.00359
       4 <- 37        -0.00023
       4 <- 45        -0.00091
       5 <-  9         0.00011
       5 <- 13        -0.00098
       5 <- 17        -0.00057
       5 <- 23         0.00048
       5 <- 28        -0.00038
       5 <- 31        -0.00111
       5 <- 36         0.00180
       5 <- 44         0.00039
       5 <- 47         0.00017
       5 <- 52         0.00022
       6 <- 27         0.00092
       6 <- 37        -0.00058
       6 <- 45         0.00124
       7 <- 12        -0.00097
       7 <- 16        -0.00486
       7 <- 18         0.00176
       7 <- 22         0.00630
       7 <- 24        -0.00094
       7 <- 29         0.00226
       7 <- 34        -0.00124
       7 <- 35         0.00248
       7 <- 40        -0.00064
       7 <- 42        -0.00084
       7 <- 48         0.00045
       7 <- 53         0.00103
       8 <-  9        -0.01596
       8 <- 13         0.00588
       8 <- 17        -0.00385
       8 <- 23         0.00070
       8 <- 28        -0.00050
       8 <- 31         0.00193
       8 <- 36        -0.00209
       8 <- 52         0.00039
 This state for optimization and/or second-order correction.
 Total Energy, E(TD-HF/TD-DFT) =  -114.290913951
 Copying the excited state density for this state as the 1-particle RhoCI density.

 Excited State   2:      Singlet-B2     6.4610 eV  191.90 nm  f=0.0606  <S**2>=0.000
       3 -> 12         0.00113
       3 -> 16         0.00048
       3 -> 18        -0.00112
       3 -> 22        -0.00020
       3 -> 24         0.00128
       3 -> 29        -0.00013
       3 -> 35        -0.00022
       3 -> 51        -0.00011
       4 -> 12        -0.00481
       4 -> 16         0.00062
       4 -> 18        -0.00236
       4 -> 22        -0.00321
       4 -> 24         0.00389
       4 -> 29        -0.00011
       4 -> 34        -0.00085
       4 -> 35         0.00085
       4 -> 40        -0.00040
       4 -> 42        -0.00030
       5 -> 10        -0.00172
       5 -> 11        -0.00889
       5 -> 14         0.00650
       5 -> 15        -0.00136
       5 -> 19         0.00319
       5 -> 20        -0.00022
       5 -> 21         0.00421
       5 -> 25         0.00048
       5 -> 26        -0.00205
       5 -> 30         0.00243
       5 -> 32        -0.00033
       5 -> 33        -0.00049
       5 -> 38        -0.00050
       5 -> 39        -0.00027
       5 -> 43        -0.00053
       5 -> 46        -0.00056
       5 -> 49         0.00023
       6 -> 12         0.00150
       6 -> 16         0.00045
       6 -> 18        -0.00400
       6 -> 22        -0.00268
       6 -> 24         0.00185
       6 -> 29        -0.00024
       6 -> 34        -0.00011
       6 -> 42         0.00036
       6 -> 48         0.00036
       6 -> 51         0.00051
       7 -> 27         0.00058
       7 -> 37        -0.00018
       7 -> 45         0.00075
       8 -> 10         0.70539
       8 -> 11        -0.04214
       8 -> 14        -0.00275
       8 -> 15        -0.01018
       8 -> 19         0.01813
       8 -> 20         0.01003
       8 -> 21        -0.00562
       8 -> 25         0.00083
       8 -> 26        -0.00112
       8 -> 30         0.00046
       8 -> 32         0.00161
       8 -> 33         0.00202
       8 -> 38         0.00059
       8 -> 39         0.00056
       8 -> 41        -0.00017
       8 -> 43         0.00069
       8 -> 46        -0.00091
       8 -> 49         0.00010
       8 -> 54         0.00017
       3 <- 12         0.00033
       3 <- 16         0.00044
       3 <- 18        -0.00051
       3 <- 22        -0.00029
       3 <- 24         0.00085
       3 <- 29        -0.00012
       3 <- 35        -0.00021
       4 <- 12         0.00045
       4 <- 16         0.00112
       4 <- 18        -0.00263
       4 <- 22        -0.00195
       4 <- 24         0.00281
       4 <- 34        -0.00059
       4 <- 35         0.00059
       4 <- 40        -0.00028
       5 <- 10         0.00241
       5 <- 11        -0.00014
       5 <- 14         0.00483
       5 <- 15        -0.00130
       5 <- 19         0.00078
       5 <- 20         0.00017
       5 <- 21         0.00220
       5 <- 25         0.00167
       5 <- 26        -0.00143
       5 <- 30         0.00078
       5 <- 32        -0.00056
       5 <- 33        -0.00050
       5 <- 38        -0.00042
       5 <- 39        -0.00017
       5 <- 41         0.00017
       5 <- 43        -0.00036
       5 <- 46        -0.00048
       5 <- 49         0.00021
       6 <- 12         0.00043
       6 <- 16        -0.00046
       6 <- 18        -0.00179
       6 <- 22        -0.00099
       6 <- 24         0.00074
       6 <- 29         0.00045
       6 <- 34        -0.00018
       6 <- 35         0.00022
       6 <- 42         0.00034
       6 <- 48         0.00031
       6 <- 51         0.00053
       7 <- 27         0.00045
       7 <- 37        -0.00013
       7 <- 45         0.00064
       8 <- 10        -0.00303
       8 <- 11        -0.00097
       8 <- 14        -0.00925
       8 <- 15         0.00046
       8 <- 19        -0.00059
       8 <- 20        -0.00037
       8 <- 21        -0.00334
       8 <- 25        -0.00291
       8 <- 26        -0.00025
       8 <- 30        -0.00066
       8 <- 32         0.00043
       8 <- 33         0.00162
       8 <- 38         0.00060
       8 <- 39         0.00045
       8 <- 43         0.00054
       8 <- 46        -0.00062
       8 <- 49         0.00014
       8 <- 50         0.00013

 Excited State   3:      Singlet-B2     7.2522 eV  170.96 nm  f=0.0207  <S**2>=0.000
       3 -> 12        -0.00018
       3 -> 16        -0.00066
       3 -> 18        -0.00045
       3 -> 22         0.00022
       3 -> 24         0.00034
       3 -> 29         0.00139
       3 -> 34         0.00014
       3 -> 35        -0.00033
       3 -> 40         0.00016
       3 -> 42         0.00030
       3 -> 48         0.00024
       3 -> 51         0.00026
       4 -> 12         0.00313
       4 -> 16        -0.00156
       4 -> 18        -0.00336
       4 -> 22        -0.00156
       4 -> 24         0.00339
       4 -> 29        -0.00106
       4 -> 34         0.00054
       4 -> 35        -0.00036
       4 -> 40        -0.00014
       4 -> 42         0.00015
       4 -> 48         0.00017
       4 -> 51         0.00016
       5 -> 10        -0.00711
       5 -> 11         0.00034
       5 -> 14         0.00510
       5 -> 15        -0.00620
       5 -> 19        -0.00387
       5 -> 20        -0.00235
       5 -> 21         0.00106
       5 -> 25         0.00134
       5 -> 26         0.00094
       5 -> 30         0.00118
       5 -> 32        -0.00155
       5 -> 33        -0.00103
       5 -> 39         0.00052
       5 -> 41        -0.00086
       5 -> 46         0.00073
       5 -> 49        -0.00038
       5 -> 50        -0.00031
       6 -> 12        -0.00321
       6 -> 16        -0.00167
       6 -> 18         0.00176
       6 -> 22         0.00147
       6 -> 29         0.00040
       6 -> 34        -0.00039
       6 -> 35         0.00141
       6 -> 40        -0.00063
       6 -> 42        -0.00062
       6 -> 48        -0.00074
       6 -> 51        -0.00068
       6 -> 53         0.00013
       7 -> 27        -0.00057
       7 -> 37        -0.00121
       7 -> 45        -0.00135
       8 -> 10         0.04278
       8 -> 11         0.70486
       8 -> 14        -0.01297
       8 -> 15         0.01845
       8 -> 19        -0.02279
       8 -> 20         0.01293
       8 -> 21        -0.00206
       8 -> 25         0.00040
       8 -> 26         0.00112
       8 -> 30        -0.00120
       8 -> 32        -0.00018
       8 -> 33         0.00037
       8 -> 39         0.00012
       8 -> 41        -0.00142
       8 -> 46         0.00107
       8 -> 49        -0.00072
       8 -> 50        -0.00042
       8 -> 54        -0.00017
       3 <- 12         0.00030
       3 <- 16        -0.00034
       3 <- 18        -0.00069
       3 <- 24         0.00043
       3 <- 29         0.00087
       3 <- 34         0.00020
       3 <- 35        -0.00038
       3 <- 40         0.00015
       3 <- 42         0.00026
       3 <- 48         0.00019
       3 <- 51         0.00016
       3 <- 53        -0.00022
       4 <- 12         0.00035
       4 <- 16         0.00031
       4 <- 18        -0.00106
       4 <- 22        -0.00123
       4 <- 24         0.00144
       4 <- 29        -0.00044
       4 <- 34         0.00051
       4 <- 40        -0.00011
       4 <- 42         0.00020
       4 <- 48         0.00011
       4 <- 51         0.00022
       5 <- 10         0.00133
       5 <- 11        -0.00068
       5 <- 14         0.00213
       5 <- 15        -0.00046
       5 <- 19         0.00072
       5 <- 21         0.00093
       5 <- 25         0.00106
       5 <- 26         0.00071
       5 <- 30         0.00076
       5 <- 33        -0.00127
       5 <- 38         0.00016
       5 <- 39         0.00028
       5 <- 41        -0.00088
       5 <- 46         0.00069
       5 <- 49        -0.00025
       5 <- 50        -0.00030
       6 <- 12        -0.00035
       6 <- 16        -0.00010
       6 <- 18         0.00027
       6 <- 22         0.00041
       6 <- 34        -0.00019
       6 <- 35         0.00103
       6 <- 40        -0.00046
       6 <- 42        -0.00044
       6 <- 48        -0.00063
       6 <- 51        -0.00059
       7 <- 27        -0.00016
       7 <- 37        -0.00098
       7 <- 45        -0.00115
       8 <- 10        -0.00099
       8 <- 11         0.00060
       8 <- 14        -0.00475
       8 <- 15         0.00075
       8 <- 19         0.00269
       8 <- 20        -0.00151
       8 <- 21        -0.00222
       8 <- 26         0.00140
       8 <- 30        -0.00069
       8 <- 32         0.00123
       8 <- 38        -0.00020
       8 <- 39        -0.00012
       8 <- 41        -0.00120
       8 <- 46         0.00088
       8 <- 49        -0.00045
       8 <- 50        -0.00036

 Excited State   4:      Singlet-A1     7.3954 eV  167.65 nm  f=0.0532  <S**2>=0.000
       3 -> 10         0.00155
       3 -> 11        -0.00100
       3 -> 14         0.00043
       3 -> 15        -0.00042
       3 -> 19         0.00105
       3 -> 20         0.00089
       3 -> 21         0.00017
       3 -> 26        -0.00055
       3 -> 30         0.00121
       3 -> 32        -0.00033
       3 -> 33        -0.00025
       3 -> 38        -0.00033
       3 -> 39         0.00015
       3 -> 41        -0.00020
       3 -> 50        -0.00036
       3 -> 54        -0.00021
       4 -> 10         0.00544
       4 -> 11         0.00853
       4 -> 14         0.00594
       4 -> 15        -0.00046
       4 -> 19         0.00057
       4 -> 20         0.00579
       4 -> 21         0.00247
       4 -> 25         0.00710
       4 -> 26        -0.00087
       4 -> 30        -0.00053
       4 -> 33        -0.00085
       4 -> 39        -0.00041
       4 -> 41         0.00021
       4 -> 43         0.00013
       4 -> 46        -0.00027
       4 -> 49        -0.00022
       5 -> 12         0.00770
       5 -> 16        -0.00166
       5 -> 18        -0.01148
       5 -> 22        -0.00075
       5 -> 24         0.00492
       5 -> 29         0.00027
       5 -> 34        -0.00016
       5 -> 35         0.00085
       5 -> 42         0.00015
       5 -> 51        -0.00035
       5 -> 53        -0.00015
       6 -> 10         0.01337
       6 -> 11        -0.00436
       6 -> 14         0.00400
       6 -> 15         0.00150
       6 -> 19         0.00553
       6 -> 20         0.00430
       6 -> 21         0.00178
       6 -> 25         0.00236
       6 -> 26        -0.00058
       6 -> 30        -0.00071
       6 -> 32         0.00056
       6 -> 33        -0.00068
       6 -> 39        -0.00010
       6 -> 43         0.00011
       6 -> 49        -0.00022
       6 -> 50         0.00055
       7 ->  9         0.01084
       7 -> 13         0.00670
       7 -> 17         0.00473
       7 -> 23         0.00493
       7 -> 28         0.00012
       7 -> 31         0.00085
       7 -> 36         0.00055
       7 -> 44         0.00063
       7 -> 47        -0.00036
       8 -> 12         0.70567
       8 -> 16        -0.02631
       8 -> 18        -0.02503
       8 -> 22         0.00514
       8 -> 24         0.00193
       8 -> 29         0.00190
       8 -> 34         0.00151
       8 -> 35        -0.00222
       8 -> 40        -0.00040
       8 -> 42        -0.00098
       8 -> 48        -0.00036
       8 -> 51        -0.00026
       8 -> 53        -0.00018
       3 <- 10         0.00058
       3 <- 11        -0.00026
       3 <- 14         0.00027
       3 <- 15        -0.00013
       3 <- 19         0.00049
       3 <- 20         0.00040
       3 <- 21         0.00021
       3 <- 25         0.00016
       3 <- 26        -0.00029
       3 <- 30         0.00075
       3 <- 32        -0.00027
       3 <- 33        -0.00012
       3 <- 38        -0.00026
       3 <- 39         0.00013
       3 <- 41        -0.00017
       3 <- 46         0.00015
       3 <- 49        -0.00011
       3 <- 50        -0.00031
       3 <- 54        -0.00019
       4 <- 10         0.00513
       4 <- 11         0.00251
       4 <- 14         0.00435
       4 <- 15        -0.00083
       4 <- 19         0.00043
       4 <- 20         0.00328
       4 <- 21         0.00100
       4 <- 25         0.00407
       4 <- 26        -0.00048
       4 <- 32        -0.00038
       4 <- 33        -0.00100
       4 <- 38        -0.00014
       4 <- 39        -0.00041
       4 <- 46        -0.00025
       4 <- 49        -0.00019
       5 <- 12         0.00277
       5 <- 16         0.00087
       5 <- 18        -0.00438
       5 <- 24         0.00266
       5 <- 34        -0.00033
       5 <- 35         0.00077
       5 <- 42         0.00013
       5 <- 51        -0.00025
       5 <- 53        -0.00014
       6 <- 10         0.00394
       6 <- 11        -0.00067
       6 <- 14         0.00174
       6 <- 15         0.00050
       6 <- 19         0.00206
       6 <- 20         0.00224
       6 <- 21         0.00070
       6 <- 25         0.00129
       6 <- 26        -0.00058
       6 <- 30        -0.00034
       6 <- 32         0.00031
       6 <- 33        -0.00056
       6 <- 39        -0.00018
       6 <- 41         0.00014
       6 <- 49        -0.00011
       6 <- 50         0.00051
       7 <-  9         0.00221
       7 <- 13         0.00206
       7 <- 17         0.00173
       7 <- 23         0.00268
       7 <- 31         0.00061
       7 <- 36         0.00044
       7 <- 44         0.00052
       7 <- 47        -0.00031
       8 <- 12        -0.00213
       8 <- 16        -0.00823
       8 <- 18         0.00430
       8 <- 22         0.00056
       8 <- 24        -0.00234
       8 <- 29         0.00051
       8 <- 34         0.00091
       8 <- 35        -0.00133
       8 <- 40        -0.00038
       8 <- 42        -0.00082
       8 <- 48        -0.00043
       8 <- 51        -0.00022
       8 <- 53        -0.00019

 Excited State   5:      Singlet-A2     7.9206 eV  156.53 nm  f=0.0000  <S**2>=0.000
       3 -> 27        -0.00087
       3 -> 37        -0.00077
       3 -> 45        -0.00044
       4 -> 37         0.00059
       4 -> 45         0.00014
       5 ->  9        -0.00978
       5 -> 13         0.00104
       5 -> 17         0.00516
       5 -> 23        -0.00079
       5 -> 31        -0.00192
       5 -> 36        -0.00150
       5 -> 44        -0.00026
       5 -> 52        -0.00020
       6 -> 27         0.00015
       6 -> 37         0.00028
       6 -> 45        -0.00046
       7 -> 12        -0.00049
       7 -> 16        -0.00186
       7 -> 18        -0.00159
       7 -> 22        -0.00080
       7 -> 24        -0.00022
       7 -> 29         0.00020
       7 -> 35        -0.00021
       7 -> 40         0.00012
       7 -> 42         0.00014
       7 -> 48        -0.00016
       7 -> 53        -0.00011
       8 ->  9         0.08882
       8 -> 13         0.70107
       8 -> 17         0.01004
       8 -> 23         0.01994
       8 -> 28        -0.00040
       8 -> 31        -0.00125
       8 -> 47         0.00018
       8 -> 52        -0.00026
       3 <- 27        -0.00041
       3 <- 37        -0.00058
       3 <- 45        -0.00054
       4 <- 27        -0.00045
       4 <- 45         0.00014
       5 <-  9        -0.00025
       5 <- 13        -0.00020
       5 <- 17         0.00063
       5 <- 36        -0.00038
       6 <- 27        -0.00013
       6 <- 37         0.00023
       6 <- 45        -0.00017
       7 <- 12        -0.00064
       7 <- 16        -0.00066
       7 <- 18        -0.00061
       7 <- 22        -0.00157
       7 <- 24        -0.00023
       7 <- 29         0.00015
       7 <- 34         0.00052
       7 <- 35        -0.00088
       7 <- 40         0.00027
       7 <- 42         0.00043
       7 <- 53        -0.00020
       8 <-  9         0.00396
       8 <- 13         0.00122
       8 <- 17         0.00028
       8 <- 23        -0.00033
       8 <- 28         0.00012
       8 <- 31        -0.00028
       8 <- 36         0.00037
       8 <- 52        -0.00011

 Excited State   6:      Singlet-B2    10.2254 eV  121.25 nm  f=0.2214  <S**2>=0.000
       3 -> 12        -0.00038
       3 -> 16        -0.00197

 The electronic state is 1-A1.
 Alpha  occ. eigenvalues --  -19.14077 -10.25054  -1.18081  -0.61797  -0.54806
 Alpha  occ. eigenvalues --   -0.49213  -0.48203  -0.26409
 Alpha virt. eigenvalues --   -0.01667   0.01237   0.04228   0.04364   0.07187
 Alpha virt. eigenvalues --    0.13701   0.18105   0.19817   0.22003   0.22589
 Alpha virt. eigenvalues --    0.26999   0.35543   0.48991   0.50219   0.51393

 Mulliken charges:
               1
     1  C    0.091908
     2  H    0.057446
     3  H    0.057446
     4  O   -0.206801
 Sum of Mulliken charges =   0.00000

 Dipole moment (field-independent basis, Debye):
    X=              0.0000    Y=              0.0000    Z=             -1.5223  Tot=              1.5223
 Quadrupole moment (field-independent basis, Debye-Ang):
   XX=            -11.2146   YY=            -11.9318   ZZ=            -12.8798
   XY=              0.0000   XZ=              0.0000   YZ=              0.0000

 Normal termination of Gaussian 16 at Fri Sep 17 10:52:36 2021.
