 Gaussian 16, Revision C.01,
 Gaussian 16:  ES64L-G16RevC.01  3-Jul-2019

 ----------------------------------------
 #P wB97XD/6-311+G* NoSymm #P Field=X-204
 ----------------------------------------

 -------
 TitleMe
 -------
 Symbolic Z-matrix:
 Charge =  1 Multiplicity = 1

                          Input orientation:
 ---------------------------------------------------------------------
 Center     Atomic      Atomic             Coordinates (Angstroms)
 Number     Number       Type             X           Y           Z
 ---------------------------------------------------------------------
      1          6           0        0.519300    1.233000   -0.031900
      2          6           0        1.944500    1.269200   -0.036700
      3          6           0        2.620400    0.092800   -0.025000
      4          6           0       -0.196000    0.030100    0.001000
      5          1           0       -0.020700    2.174200   -0.043400
      6          1           0        2.482800    2.208900   -0.036100
      7          1           0       -1.277700    0.039900    0.011700
      8          7           0        4.092100    0.095900    0.036600
      9          8           0        4.639300   -1.021700    0.144600
     10          8           0        4.664900    1.198400   -0.023300
     11          6           0        0.494300   -1.167100    0.021000
     12          1           0       -0.032500   -2.114900    0.054500
     13          6           0        1.962900   -1.216500   -0.021100
     14          1           0        2.443600   -1.963100    0.615100
     15         35           0        2.173000   -1.949100   -1.906200
 ---------------------------------------------------------------------

 SCF Done:  E(RwB97XD) =  -3010.57777584     A.U. after   26 cycles

 Alpha  occ. eigenvalues -- -483.24236 -62.79231 -56.58941 -56.58357 -56.58335
 Alpha  occ. eigenvalues --  -19.33787 -19.33622 -14.73388 -10.52041 -10.51680
 Alpha  occ. eigenvalues --  -10.51353 -10.50836 -10.48338 -10.45849  -8.95016
 Alpha  occ. eigenvalues --   -6.77734  -6.75821  -6.75754  -2.87628  -2.87134
 Alpha  occ. eigenvalues --   -2.87080  -2.85550  -2.85549  -1.37466  -1.20272
 Alpha  occ. eigenvalues --   -1.15851  -1.06477  -1.05323  -0.97760  -0.92360
 Alpha  occ. eigenvalues --   -0.89026  -0.83734  -0.77898  -0.73576  -0.72091
 Alpha  occ. eigenvalues --   -0.70162  -0.69660  -0.68265  -0.65149  -0.63733
 Alpha  occ. eigenvalues --   -0.62669  -0.60754  -0.57355  -0.52737  -0.48950
 Alpha  occ. eigenvalues --   -0.48107  -0.44504  -0.42942  -0.42836
 Alpha virt. eigenvalues --   -0.23460  -0.12561  -0.12350  -0.08514  -0.07918
 Alpha virt. eigenvalues --   -0.05162  -0.04459  -0.02911  -0.00846  -0.00098
 Alpha virt. eigenvalues --    0.01181   0.01974   0.03714   0.04354   0.05439

 Mulliken charges:
               1
     1  C   -0.095878
     2  C    0.143093
     3  C    0.049427
     4  C   -0.295565
     5  H    0.290705
     6  H    0.376289
     7  H    0.224534
     8  N   -0.242723
     9  O    0.167612
    10  O    0.168722
    11  C   -0.322654
    12  H    0.305067
    13  C   -0.439582
    14  H    0.436757
    15  Br   0.234196
 Sum of Mulliken charges =   1.00000

 Dipole moment (field-independent basis, Debye):
    X=              8.7040    Y=             -1.2018    Z=             -1.0505  Tot=              8.8492
 Quadrupole moment (field-independent basis, Debye-Ang):
   XX=            -45.3642   YY=            -50.8722   ZZ=            -61.6393
   XY=             -4.2901   XZ=             -4.1891   YZ=              3.1711

 Normal termination of Gaussian 16 at Thu May  2 14:25:40 2024.
