 Gaussian 16, Revision C.01,
 Gaussian 16:  ES64L-G16RevC.01  3-Jul-2019

 ----------------------------------------
 #P wB97XD/6-311+G* NoSymm #P Field=X+262
 ----------------------------------------

 -------
 TitleMe
 -------
 Symbolic Z-matrix:
 Charge =  1 Multiplicity = 1

                          Input orientation:
 ---------------------------------------------------------------------
 Center     Atomic      Atomic             Coordinates (Angstroms)
 Number     Number       Type             X           Y           Z
 ---------------------------------------------------------------------
      1          6           0        0.519300    1.233000   -0.031900
      2          6           0        1.944500    1.269200   -0.036700
      3          6           0        2.620400    0.092800   -0.025000
      4          6           0       -0.196000    0.030100    0.001000
      5          1           0       -0.020700    2.174200   -0.043400
      6          1           0        2.482800    2.208900   -0.036100
      7          1           0       -1.277700    0.039900    0.011700
      8          7           0        4.092100    0.095900    0.036600
      9          8           0        4.639300   -1.021700    0.144600
     10          8           0        4.664900    1.198400   -0.023300
     11          6           0        0.494300   -1.167100    0.021000
     12          1           0       -0.032500   -2.114900    0.054500
     13          6           0        1.962900   -1.216500   -0.021100
     14          1           0        2.443600   -1.963100    0.615100
     15         35           0        2.173000   -1.949100   -1.906200
 ---------------------------------------------------------------------

 SCF Done:  E(RwB97XD) =  -3010.54191138     A.U. after   19 cycles

 Alpha  occ. eigenvalues -- -483.40520 -62.95555 -56.75230 -56.74687 -56.74677
 Alpha  occ. eigenvalues --  -19.62607 -19.62460 -15.01514 -10.68893 -10.67571
 Alpha  occ. eigenvalues --  -10.64809 -10.64047 -10.63777 -10.58902  -9.11372
 Alpha  occ. eigenvalues --   -6.93999  -6.92212  -6.92182  -3.03915  -3.03444
 Alpha  occ. eigenvalues --   -3.03419  -3.01989  -3.01989  -1.66134  -1.49254
 Alpha  occ. eigenvalues --   -1.31903  -1.22687  -1.21403  -1.14260  -1.10650
 Alpha  occ. eigenvalues --   -1.03806  -1.01147  -0.97816  -0.95962  -0.94551
 Alpha  occ. eigenvalues --   -0.89894  -0.87432  -0.85312  -0.84823  -0.80743
 Alpha  occ. eigenvalues --   -0.75406  -0.75081  -0.73930  -0.73600  -0.72585
 Alpha  occ. eigenvalues --   -0.71680  -0.68457  -0.65916  -0.63981
 Alpha virt. eigenvalues --   -0.39694  -0.33465  -0.25109  -0.23355  -0.22594
 Alpha virt. eigenvalues --   -0.20053  -0.18337  -0.17588  -0.16133  -0.13614
 Alpha virt. eigenvalues --   -0.13132  -0.11957  -0.11557  -0.10055  -0.09268

 Mulliken charges:
               1
     1  C   -0.149386
     2  C    0.157120
     3  C   -0.196585
     4  C   -0.282772
     5  H    0.409516
     6  H    0.320239
     7  H    0.443915
     8  N   -0.239771
     9  O   -0.015144
    10  O   -0.057977
    11  C   -0.138570
    12  H    0.420269
    13  C   -0.190691
    14  H    0.380752
    15  Br   0.139085
 Sum of Mulliken charges =   1.00000

 Dipole moment (field-independent basis, Debye):
    X=             -4.8155    Y=             -0.5579    Z=             -0.4172  Tot=              4.8656
 Quadrupole moment (field-independent basis, Debye-Ang):
   XX=            -98.9605   YY=            -51.7353   ZZ=            -63.0283
   XY=             -1.0571   XZ=             -0.5428   YZ=              1.6626

 Normal termination of Gaussian 16 at Thu May  2 14:18:01 2024.
