 Gaussian 16, Revision A.03,
 Gaussian 16:  ES64L-G16RevA.03 25-Dec-2016

 --------------------------------------------------------------------
 #p B3LYP/6-311+G** #p TD=(singlets,nstates=30)IOp(6/8=3) IOp(9/40=4)
 --------------------------------------------------------------------

 --------------------------------------------
 Scan Step 84, Bond Length 0.9199999999999999
 --------------------------------------------
 Symbolic Z-matrix:
 Charge =  0 Multiplicity = 1

                         Standard orientation:
 ---------------------------------------------------------------------
 Center     Atomic      Atomic             Coordinates (Angstroms)
 Number     Number       Type             X           Y           Z
 ---------------------------------------------------------------------
      1          6           0        0.000000   -0.000000   -0.386081
      2          1           0        0.000000    0.937260   -0.977431
      3          1           0       -0.000000   -0.937260   -0.977431
      4          8           0        0.000000    0.000000    0.533919
 ---------------------------------------------------------------------

 SCF Done:  E(RB3LYP) =  -114.295134960     A.U. after    9 cycles

 Excitation energies and oscillator strengths:

 Excited State   1:      Singlet-A2     5.4381 eV  227.99 nm  f=0.0000  <S**2>=0.000
       3 -> 27         0.00293
       3 -> 36         0.00234
       3 -> 46         0.00134
       4 -> 27         0.00339
       4 -> 36        -0.00073
       4 -> 46        -0.00075
       5 ->  9         0.01040
       5 -> 13        -0.00941
       5 -> 17         0.00614
       5 -> 22        -0.00346
       5 -> 28         0.00318
       5 -> 32         0.00217
       5 -> 37         0.00372
       5 -> 43         0.00057
       5 -> 52         0.00076
       6 -> 12        -0.00058
       6 -> 16        -0.00125
       6 -> 18        -0.00064
       6 -> 23         0.00177
       6 -> 24         0.00064
       6 -> 29        -0.00047
       6 -> 33         0.00028
       6 -> 35         0.00055
       6 -> 40        -0.00013
       6 -> 42         0.00049
       6 -> 47         0.00066
       6 -> 50        -0.00017
       6 -> 53         0.00030
       7 -> 27         0.00094
       7 -> 36        -0.00035
       7 -> 46         0.00127
       8 ->  9         0.69572
       8 -> 13        -0.12228
       8 -> 17         0.02937
       8 -> 22        -0.00905
       8 -> 28         0.00553
       8 -> 32         0.00347
       8 -> 37        -0.00222
       8 -> 43        -0.00023
       8 -> 52         0.00101
       3 <- 27         0.00215
       3 <- 36         0.00200
       3 <- 46         0.00140
       4 <- 27         0.00394
       4 <- 36        -0.00042
       4 <- 46        -0.00072
       5 <-  9         0.00026
       5 <- 13        -0.00113
       5 <- 22         0.00029
       5 <- 28        -0.00014
       5 <- 32        -0.00110
       5 <- 37         0.00168
       5 <- 43         0.00044
       5 <- 49         0.00012
       5 <- 52         0.00019
       6 <- 12        -0.00094
       6 <- 16         0.00243
       6 <- 18        -0.00312
       6 <- 23         0.00500
       6 <- 24        -0.00151
       6 <- 29         0.00178
       6 <- 33        -0.00099
       6 <- 35         0.00210
       6 <- 40        -0.00020
       6 <- 42         0.00092
       6 <- 47         0.00050
       6 <- 53         0.00080
       7 <- 27         0.00112
       7 <- 36        -0.00039
       7 <- 46         0.00101
       8 <-  9        -0.01029
       8 <- 13         0.00818
       8 <- 17        -0.00409
       8 <- 22         0.00053
       8 <- 28        -0.00041
       8 <- 32         0.00266
       8 <- 37        -0.00228
       8 <- 52         0.00031
 This state for optimization and/or second-order correction.
 Total Energy, E(TD-HF/TD-DFT) =  -114.095289731
 Copying the excited state density for this state as the 1-particle RhoCI density.

 Excited State   2:      Singlet-B2     6.0381 eV  205.34 nm  f=0.0808  <S**2>=0.000
       3 -> 12         0.00094
       3 -> 18         0.00108
       3 -> 24         0.00118
       3 -> 29        -0.00017
       3 -> 35        -0.00013
       3 -> 42         0.00013
       3 -> 50        -0.00014
       4 -> 12        -0.00593
       4 -> 16         0.00089
       4 -> 18         0.00174
       4 -> 23        -0.00272
       4 -> 24         0.00405
       4 -> 29        -0.00046
       4 -> 33        -0.00098
       4 -> 35         0.00089
       4 -> 40        -0.00020
       4 -> 42         0.00045
       5 -> 10         0.00093
       5 -> 11        -0.00731
       5 -> 14         0.00563
       5 -> 15         0.00156
       5 -> 19         0.00371
       5 -> 20        -0.00101
       5 -> 21         0.00316
       5 -> 25         0.00107
       5 -> 26        -0.00133
       5 -> 30         0.00237
       5 -> 34         0.00020
       5 -> 38        -0.00075
       5 -> 39         0.00017
       5 -> 41         0.00033
       5 -> 44         0.00044
       5 -> 45        -0.00057
       5 -> 48         0.00036
       6 -> 27         0.00091
       6 -> 36         0.00013
       6 -> 46         0.00085
       7 -> 12         0.00216
       7 -> 16         0.00228
       7 -> 18         0.00408
       7 -> 23        -0.00236
       7 -> 24         0.00231
       7 -> 35        -0.00014
       7 -> 42        -0.00038
       7 -> 47         0.00038
       7 -> 50         0.00050
       8 -> 10         0.70619
       8 -> 11        -0.02063
       8 -> 14        -0.01539
       8 -> 15         0.01147
       8 -> 19         0.01985
       8 -> 20         0.00847
       8 -> 21        -0.00732
       8 -> 25         0.00076
       8 -> 26        -0.00067
       8 -> 30         0.00011
       8 -> 31         0.00262
       8 -> 34         0.00164
       8 -> 38         0.00078
       8 -> 39        -0.00057
       8 -> 41        -0.00030
       8 -> 44        -0.00050
       8 -> 45        -0.00104
       8 -> 48         0.00030
       8 -> 54        -0.00015
       3 <- 12         0.00030
       3 <- 16        -0.00014
       3 <- 18         0.00061
       3 <- 23        -0.00014
       3 <- 24         0.00084
       3 <- 29        -0.00016
       3 <- 35        -0.00013
       4 <- 16         0.00057
       4 <- 18         0.00264
       4 <- 23        -0.00164
       4 <- 24         0.00306
       4 <- 29        -0.00037
       4 <- 33        -0.00073
       4 <- 35         0.00066
       4 <- 40        -0.00022
       4 <- 42         0.00017
       5 <- 10         0.00218
       5 <- 14         0.00437
       5 <- 15         0.00164
       5 <- 19         0.00094
       5 <- 20        -0.00026
       5 <- 21         0.00188
       5 <- 25         0.00167
       5 <- 26        -0.00127
       5 <- 30         0.00086
       5 <- 31        -0.00035
       5 <- 38        -0.00051
       5 <- 39         0.00016
       5 <- 41         0.00037
       5 <- 44         0.00029
       5 <- 45        -0.00050
       5 <- 48         0.00031
       6 <- 27         0.00071
       6 <- 36         0.00010
       6 <- 46         0.00072
       7 <- 12         0.00061
       7 <- 16         0.00164
       7 <- 18         0.00155
       7 <- 23        -0.00094
       7 <- 24         0.00104
       7 <- 29         0.00064
       7 <- 33        -0.00011
       7 <- 42        -0.00034
       7 <- 47         0.00034
       7 <- 50         0.00055
       8 <- 10        -0.00406
       8 <- 11        -0.00176
       8 <- 14        -0.01206
       8 <- 15        -0.00159
       8 <- 19        -0.00094
       8 <- 20        -0.00030
       8 <- 21        -0.00403
       8 <- 25        -0.00309
       8 <- 26        -0.00060
       8 <- 30        -0.00053
       8 <- 31         0.00128
       8 <- 34         0.00158
       8 <- 38         0.00078
       8 <- 39        -0.00046
       8 <- 41        -0.00017
       8 <- 44        -0.00045
       8 <- 45        -0.00073
       8 <- 48         0.00029

 Excited State   3:      Singlet-B2     6.8258 eV  181.64 nm  f=0.0214  <S**2>=0.000
       3 -> 12        -0.00013
       3 -> 16         0.00069
       3 -> 23         0.00018
       3 -> 24         0.00042
       3 -> 29         0.00105
       3 -> 33         0.00014
       3 -> 35        -0.00030
       3 -> 42        -0.00032
       3 -> 47         0.00020
       3 -> 50         0.00023
       4 -> 12         0.00290
       4 -> 16         0.00382
       4 -> 18         0.00227
       4 -> 23        -0.00149
       4 -> 24         0.00363
       4 -> 29        -0.00114
       4 -> 33         0.00056
       4 -> 35        -0.00019
       4 -> 40        -0.00024
       4 -> 47         0.00014
       4 -> 50         0.00014
       5 -> 10        -0.00558
       5 -> 11         0.00010
       5 -> 14         0.00339
       5 -> 15         0.00500
       5 -> 19        -0.00351
       5 -> 20        -0.00105
       5 -> 21         0.00131
       5 -> 25         0.00104
       5 -> 26         0.00125
       5 -> 30         0.00077
       5 -> 31        -0.00208
       5 -> 34        -0.00057
       5 -> 39        -0.00071
       5 -> 41        -0.00076
       5 -> 44         0.00011
       5 -> 45         0.00061
       5 -> 48        -0.00045
       5 -> 51        -0.00023
       6 -> 27        -0.00081
       6 -> 36        -0.00132
       6 -> 46        -0.00113
       7 -> 12        -0.00299
       7 -> 16         0.00040
       7 -> 18        -0.00240
       7 -> 23         0.00136
       7 -> 24        -0.00025
       7 -> 33        -0.00028
       7 -> 35         0.00126
       7 -> 40        -0.00033
       7 -> 42         0.00070
       7 -> 47        -0.00067
       7 -> 50        -0.00062
       7 -> 53         0.00016
       8 -> 10         0.02111
       8 -> 11         0.70578
       8 -> 14        -0.01638
       8 -> 15        -0.02251
       8 -> 19        -0.01867
       8 -> 20         0.01464
       8 -> 21        -0.00262
       8 -> 25         0.00033
       8 -> 30        -0.00171
       8 -> 31         0.00028
       8 -> 34         0.00041
       8 -> 38        -0.00014
       8 -> 39        -0.00057
       8 -> 41        -0.00135
       8 -> 44         0.00011
       8 -> 45         0.00072
       8 -> 48        -0.00069
       8 -> 51        -0.00017
       8 -> 54         0.00017
       3 <- 12         0.00025
       3 <- 16         0.00058
       3 <- 18         0.00036
       3 <- 24         0.00048
       3 <- 29         0.00069
       3 <- 33         0.00018
       3 <- 35        -0.00033
       3 <- 42        -0.00027
       3 <- 47         0.00016
       3 <- 50         0.00013
       3 <- 53        -0.00021
       4 <- 12         0.00029
       4 <- 16         0.00051
       4 <- 18         0.00119
       4 <- 23        -0.00128
       4 <- 24         0.00170
       4 <- 29        -0.00048
       4 <- 33         0.00056
       4 <- 35         0.00014
       4 <- 40        -0.00023
       4 <- 50         0.00021
       5 <- 10         0.00136
       5 <- 11        -0.00036
       5 <- 14         0.00188
       5 <- 15         0.00054
       5 <- 19         0.00064
       5 <- 20         0.00022
       5 <- 21         0.00101
       5 <- 25         0.00094
       5 <- 26         0.00092
       5 <- 30         0.00083
       5 <- 31        -0.00069
       5 <- 34        -0.00108
       5 <- 39        -0.00049
       5 <- 41        -0.00077
       5 <- 44         0.00013
       5 <- 45         0.00062
       5 <- 48        -0.00031
       5 <- 51        -0.00022
       6 <- 27        -0.00035
       6 <- 36        -0.00108
       6 <- 46        -0.00097
       7 <- 12        -0.00036
       7 <- 16        -0.00028
       7 <- 18        -0.00026
       7 <- 23         0.00027
       7 <- 29        -0.00028
       7 <- 35         0.00089
       7 <- 40        -0.00026
       7 <- 42         0.00049
       7 <- 47        -0.00058
       7 <- 50        -0.00057
       8 <- 10        -0.00166
       8 <- 11         0.00119
       8 <- 14        -0.00611
       8 <- 15        -0.00129
       8 <- 19         0.00210
       8 <- 20        -0.00187
       8 <- 21        -0.00257
       8 <- 25        -0.00034
       8 <- 26         0.00096
       8 <- 30        -0.00109
       8 <- 31         0.00112
       8 <- 34        -0.00011
       8 <- 38        -0.00030
       8 <- 39        -0.00033
       8 <- 41        -0.00113
       8 <- 45         0.00062
       8 <- 48        -0.00045
       8 <- 51        -0.00018

 Excited State   4:      Singlet-A1     6.9634 eV  178.05 nm  f=0.0454  <S**2>=0.000
       3 -> 10         0.00136
       3 -> 11        -0.00087
       3 -> 14         0.00017
       3 -> 15         0.00056
       3 -> 19         0.00128
       3 -> 20         0.00045
       3 -> 21        -0.00020
       3 -> 25         0.00019
       3 -> 26        -0.00012
       3 -> 30         0.00109
       3 -> 31        -0.00027
       3 -> 34        -0.00020
       3 -> 38        -0.00035
       3 -> 39        -0.00023
       3 -> 41        -0.00015
       3 -> 48        -0.00015
       3 -> 51        -0.00030
       3 -> 54         0.00021
       4 -> 10         0.00557
       4 -> 11         0.01013
       4 -> 14         0.00626
       4 -> 15         0.00158
       4 -> 19         0.00091
       4 -> 20         0.00655
       4 -> 21         0.00231
       4 -> 25         0.00691
       4 -> 26        -0.00082
       4 -> 30        -0.00073
       4 -> 31        -0.00059
       4 -> 34        -0.00098
       4 -> 38        -0.00021
       4 -> 39         0.00076
       4 -> 41         0.00017
       4 -> 45        -0.00033
       4 -> 48        -0.00026
       5 -> 12         0.00763
       5 -> 16         0.00703
       5 -> 18         0.00843
       5 -> 23         0.00042
       5 -> 24         0.00433
       5 -> 29         0.00058
       5 -> 33        -0.00016
       5 -> 35         0.00093
       5 -> 42        -0.00022
       5 -> 50        -0.00036
       5 -> 53        -0.00014
       6 ->  9         0.00818
       6 -> 13         0.00400
       6 -> 17         0.00518
       6 -> 22         0.00430
       6 -> 28         0.00058
       6 -> 32         0.00088
       6 -> 37         0.00053
       6 -> 43         0.00053
       6 -> 49        -0.00037
       7 -> 10         0.01323
       7 -> 11        -0.00505
       7 -> 14         0.00315
       7 -> 15        -0.00120
       7 -> 19         0.00745
       7 -> 20         0.00335
       7 -> 21         0.00123
       7 -> 25         0.00206
       7 -> 26        -0.00023
       7 -> 31         0.00060
       7 -> 34        -0.00092
       7 -> 39         0.00022
       7 -> 48        -0.00020
       7 -> 51         0.00047
       8 -> 12         0.70551
       8 -> 16         0.04048
       8 -> 18         0.00536
       8 -> 23         0.00404
       8 -> 24         0.00145
       8 -> 29         0.00301
       8 -> 33         0.00153
       8 -> 35        -0.00247
       8 -> 42         0.00134
       8 -> 47        -0.00042
       8 -> 50        -0.00014
       8 -> 53        -0.00013
       3 <- 10         0.00057
       3 <- 11        -0.00031
       3 <- 14         0.00013
       3 <- 15         0.00026
       3 <- 19         0.00069
       3 <- 20         0.00019
       3 <- 25         0.00028
       3 <- 30         0.00064
       3 <- 31        -0.00021
       3 <- 34        -0.00014
       3 <- 38        -0.00027
       3 <- 39        -0.00020
       3 <- 41        -0.00015
       3 <- 48        -0.00017
       3 <- 51        -0.00026
       3 <- 54         0.00019
       4 <- 10         0.00565
       4 <- 11         0.00348
       4 <- 14         0.00465
       4 <- 15         0.00165
       4 <- 19         0.00069
       4 <- 20         0.00370
       4 <- 21         0.00080
       4 <- 25         0.00415
       4 <- 26        -0.00036
       4 <- 31        -0.00085
       4 <- 34        -0.00089
       4 <- 38        -0.00031
       4 <- 39         0.00065
       4 <- 45        -0.00031
       4 <- 48        -0.00022
       5 <- 12         0.00267
       5 <- 16         0.00177
       5 <- 18         0.00389
       5 <- 23         0.00060
       5 <- 24         0.00234
       5 <- 29         0.00017
       5 <- 33        -0.00030
       5 <- 35         0.00081
       5 <- 42        -0.00019
       5 <- 50        -0.00028
       5 <- 53        -0.00013
       6 <-  9         0.00266
       6 <- 13         0.00153
       6 <- 17         0.00227
       6 <- 22         0.00251
       6 <- 28         0.00034
       6 <- 32         0.00066
       6 <- 37         0.00043
       6 <- 43         0.00045
       6 <- 49        -0.00032
       7 <- 10         0.00443
       7 <- 11        -0.00111
       7 <- 14         0.00150
       7 <- 15        -0.00041
       7 <- 19         0.00312
       7 <- 20         0.00191
       7 <- 21         0.00044
       7 <- 25         0.00121
       7 <- 26        -0.00030
       7 <- 30         0.00020
       7 <- 31         0.00034
       7 <- 34        -0.00066
       7 <- 38        -0.00010
       7 <- 39         0.00029
       7 <- 41         0.00011
       7 <- 51         0.00044
       8 <- 12        -0.00330
       8 <- 16         0.00661
       8 <- 18        -0.00934
       8 <- 23        -0.00042
       8 <- 24        -0.00223
       8 <- 29         0.00141
       8 <- 33         0.00111
       8 <- 35        -0.00170
       8 <- 42         0.00110
       8 <- 47        -0.00049
       8 <- 50        -0.00012
       8 <- 53        -0.00015

 Excited State   5:      Singlet-A2     7.6449 eV  162.18 nm  f=0.0000  <S**2>=0.000
       3 -> 27        -0.00151
       3 -> 36        -0.00127
       3 -> 46        -0.00065
       4 -> 27        -0.00065
       4 -> 36         0.00071
       4 -> 46         0.00022
       5 ->  9        -0.00911
       5 -> 13         0.00650
       5 -> 17         0.00302
       5 -> 22         0.00079
       5 -> 28        -0.00020
       5 -> 32        -0.00219
       5 -> 37        -0.00225
       5 -> 43        -0.00031
       5 -> 52        -0.00036
       6 -> 12        -0.00028
       6 -> 16         0.00207
       6 -> 18         0.00065
       6 -> 23        -0.00117
       6 -> 24        -0.00024
       6 -> 29         0.00034
       6 -> 35        -0.00033
       6 -> 42        -0.00031
       6 -> 47        -0.00031
       6 -> 53        -0.00016
       7 -> 27        -0.00011
       7 -> 36         0.00024
       7 -> 46        -0.00069
       8 ->  9         0.12278
       8 -> 13         0.69592
       8 -> 17        -0.00137
       8 -> 22         0.02255
       8 -> 28        -0.00154
       8 -> 32        -0.00146
       8 -> 37         0.00081
       8 -> 43         0.00014
       8 -> 49         0.00017
       8 -> 52        -0.00041
       3 <- 27        -0.00088
       3 <- 36        -0.00102
       3 <- 46        -0.00075
       4 <- 27        -0.00120
       4 <- 46         0.00026
       5 <-  9        -0.00030
       5 <- 13         0.00014
       5 <- 17         0.00057
       5 <- 22        -0.00012
       5 <- 32         0.00021
       5 <- 37        -0.00070
       5 <- 43        -0.00019
       5 <- 52        -0.00011
       6 <- 12        -0.00050
       6 <- 16         0.00048
       6 <- 18         0.00068
       6 <- 23        -0.00235
       6 <- 24         0.00027
       6 <- 33         0.00068
       6 <- 35        -0.00123
       6 <- 40         0.00010
       6 <- 42        -0.00067
       6 <- 47        -0.00013
       6 <- 53        -0.00034
       7 <- 27        -0.00038
       7 <- 36         0.00026
       7 <- 46        -0.00034
       8 <-  9         0.00627
       8 <- 13        -0.00045
       8 <- 17         0.00070
       8 <- 22        -0.00050
       8 <- 28         0.00022
       8 <- 32        -0.00087
       8 <- 37         0.00083
       8 <- 52        -0.00016

 Excited State   6:      Singlet-B2    10.0035 eV  123.94 nm  f=0.2766  <S**2>=0.000
       3 -> 12        -0.00042
       3 -> 16         0.00165

 The electronic state is 1-A1.
 Alpha  occ. eigenvalues --  -19.13789 -10.23768  -1.25237  -0.60033  -0.59476
 Alpha  occ. eigenvalues --   -0.54263  -0.51398  -0.24688
 Alpha virt. eigenvalues --    0.00998   0.01389   0.04362   0.04412   0.08476
 Alpha virt. eigenvalues --    0.14114   0.17816   0.20449   0.21911   0.22924
 Alpha virt. eigenvalues --    0.26348   0.36248   0.49958   0.52317   0.52886

 Mulliken charges:
               1
     1  C    0.183767
     2  H    0.014103
     3  H    0.014103
     4  O   -0.211974
 Sum of Mulliken charges =   0.00000

 Dipole moment (field-independent basis, Debye):
    X=              0.0000    Y=              0.0000    Z=             -0.7580  Tot=              0.7580
 Quadrupole moment (field-independent basis, Debye-Ang):
   XX=            -10.8762   YY=            -12.2355   ZZ=            -13.1446
   XY=             -0.0000   XZ=             -0.0000   YZ=             -0.0000

 Normal termination of Gaussian 16 at Fri Sep 17 10:52:34 2021.
