 Gaussian 16, Revision A.03,
 Gaussian 16:  ES64L-G16RevA.03 25-Dec-2016

 --------------------------------------------------------------------
 #p B3LYP/6-311+G** #p TD=(singlets,nstates=30)IOp(6/8=3) IOp(9/40=4)
 --------------------------------------------------------------------

 --------------------------------
 Scan Step 227, Bond Length 1.635
 --------------------------------
 Symbolic Z-matrix:
 Charge =  0 Multiplicity = 1

                         Standard orientation:
 ---------------------------------------------------------------------
 Center     Atomic      Atomic             Coordinates (Angstroms)
 Number     Number       Type             X           Y           Z
 ---------------------------------------------------------------------
      1          6           0        0.000000    0.000000   -0.743581
      2          1           0        0.000000    0.937260   -1.334931
      3          1           0       -0.000000   -0.937260   -1.334931
      4          8           0        0.000000   -0.000000    0.891419
 ---------------------------------------------------------------------

 SCF Done:  E(RB3LYP) =  -114.414804194     A.U. after   11 cycles

 Excitation energies and oscillator strengths:

 Excited State   1:      Singlet-A2     1.8573 eV  667.53 nm  f=0.0000  <S**2>=0.000
       3 -> 27         0.00110
       3 -> 38         0.00079
       3 -> 46         0.00332
       4 -> 27         0.00064
       4 -> 38        -0.00011
       4 -> 46        -0.00125
       5 ->  9         0.00631
       5 -> 13         0.00100
       5 -> 18         0.00267
       5 -> 23         0.00161
       5 -> 28         0.00229
       5 -> 31        -0.00013
       5 -> 37         0.00126
       5 -> 44         0.00031
       5 -> 52         0.00031
       6 -> 27        -0.00063
       6 -> 38        -0.00074
       6 -> 46         0.00127
       7 -> 12        -0.00096
       7 -> 16         0.00486
       7 -> 19        -0.00414
       7 -> 22        -0.00086
       7 -> 25         0.00088
       7 -> 30        -0.00160
       7 -> 33         0.00035
       7 -> 49         0.00012
       7 -> 50         0.00014
       7 -> 53         0.00044
       8 ->  9         0.70883
       8 -> 13        -0.01196
       8 -> 18         0.02152
       8 -> 23        -0.00295
       8 -> 28         0.01097
       8 -> 31         0.00121
       8 -> 37         0.00061
       8 -> 48        -0.00031
       8 -> 52         0.00193
       3 <- 27         0.00048
       3 <- 38         0.00053
       3 <- 46         0.00336
       4 <- 27         0.00113
       4 <- 38         0.00023
       4 <- 46        -0.00101
       5 <-  9        -0.00015
       5 <- 13        -0.00049
       5 <- 18        -0.00063
       5 <- 23         0.00025
       5 <- 28        -0.00044
       5 <- 31         0.00033
       5 <- 37         0.00071
       5 <- 44         0.00010
       6 <- 38        -0.00060
       6 <- 46         0.00098
       7 <- 12         0.00083
       7 <- 16        -0.01018
       7 <- 19         0.00404
       7 <- 22         0.00676
       7 <- 25         0.00056
       7 <- 30         0.00535
       7 <- 33        -0.00047
       7 <- 36         0.00069
       7 <- 40        -0.00043
       7 <- 42         0.00015
       7 <- 49        -0.00042
       7 <- 53         0.00146
       8 <-  9        -0.05507
       8 <- 13         0.00031
       8 <- 18        -0.00679
       8 <- 28        -0.00245
       8 <- 31        -0.00066
       8 <- 37        -0.00041
       8 <- 48         0.00010
       8 <- 52         0.00050
 This state for optimization and/or second-order correction.
 Total Energy, E(TD-HF/TD-DFT) =  -114.346547852
 Copying the excited state density for this state as the 1-particle RhoCI density.

 Excited State   2:      Singlet-A1     4.7987 eV  258.37 nm  f=0.0668  <S**2>=0.000
       3 -> 10        -0.01719
       3 -> 11        -0.01148
       3 -> 14         0.00945
       3 -> 15         0.00452
       3 -> 17        -0.00346
       3 -> 20        -0.00397
       3 -> 21        -0.00081
       3 -> 24         0.00212
       3 -> 26         0.00349
       3 -> 29        -0.00125
       3 -> 32         0.00276
       3 -> 34         0.00215
       3 -> 35        -0.00114
       3 -> 39         0.00076
       3 -> 43         0.00046
       3 -> 45         0.00023
       3 -> 47         0.00228
       3 -> 51         0.00113
       3 -> 54         0.00015
       4 -> 10        -0.00956
       4 -> 11         0.01291
       4 -> 14         0.00486
       4 -> 15        -0.00972
       4 -> 17         0.00302
       4 -> 20         0.00472
       4 -> 21         0.00041
       4 -> 24        -0.00483
       4 -> 26         0.00481
       4 -> 29         0.00104
       4 -> 32        -0.00135
       4 -> 34        -0.00154
       4 -> 35         0.00042
       4 -> 41         0.00012
       4 -> 43        -0.00048
       4 -> 45        -0.00082
       4 -> 47        -0.00115
       4 -> 51        -0.00032
       4 -> 54         0.00011
       5 -> 12         0.01597
       5 -> 16         0.00944
       5 -> 19         0.00146
       5 -> 22         0.00749
       5 -> 25         0.00769
       5 -> 30        -0.00010
       5 -> 33        -0.00297
       5 -> 36         0.00277
       5 -> 40        -0.00144
       5 -> 42         0.00067
       5 -> 49         0.00042
       5 -> 50        -0.00070
       5 -> 53        -0.00012
       6 -> 10         0.16765
       6 -> 11         0.09657
       6 -> 14        -0.09087
       6 -> 15        -0.05528
       6 -> 17        -0.01957
       6 -> 20        -0.00926
       6 -> 21         0.01226
       6 -> 24        -0.01305
       6 -> 26        -0.00622
       6 -> 29        -0.00760
       6 -> 32         0.00114
       6 -> 34         0.00143
       6 -> 35        -0.00053
       6 -> 39         0.00091
       6 -> 41        -0.00036
       6 -> 43         0.00083
       6 -> 45         0.00082
       6 -> 47         0.00117
       6 -> 51         0.00080
       6 -> 54        -0.00072
       7 ->  9         0.68310
       7 -> 13        -0.00075
       7 -> 18        -0.01715
       7 -> 23        -0.00043
       7 -> 28        -0.00094
       7 -> 31        -0.00308
       7 -> 37         0.00097
       7 -> 44        -0.00104
       7 -> 48         0.00036
       7 -> 52         0.00105
       8 -> 12        -0.00762
       8 -> 16         0.06396
       8 -> 19        -0.02351
       8 -> 22        -0.02423
       8 -> 25         0.00047
       8 -> 30        -0.01145
       8 -> 33         0.00200
       8 -> 36        -0.00233
       8 -> 40         0.00113
       8 -> 42        -0.00036
       8 -> 49         0.00053
       8 -> 50         0.00022
       8 -> 53        -0.00067
       3 <- 10        -0.01185
       3 <- 11        -0.00834
       3 <- 14         0.00712
       3 <- 15         0.00294
       3 <- 17        -0.00181
       3 <- 20        -0.00295
       3 <- 21        -0.00118
       3 <- 24         0.00127
       3 <- 26         0.00202
       3 <- 29        -0.00076
       3 <- 32         0.00252
       3 <- 34         0.00135
       3 <- 35        -0.00098
       3 <- 39         0.00069
       3 <- 43         0.00055
       3 <- 45         0.00043
       3 <- 47         0.00236
       3 <- 51         0.00110
       3 <- 54         0.00026
       4 <- 10        -0.00459
       4 <- 11         0.00827
       4 <- 14         0.00257
       4 <- 15        -0.00589
       4 <- 17         0.00157
       4 <- 20         0.00415
       4 <- 21         0.00028
       4 <- 24        -0.00335
       4 <- 26         0.00386
       4 <- 29         0.00026
       4 <- 32        -0.00164
       4 <- 34        -0.00134
       4 <- 35         0.00067
       4 <- 39        -0.00010
       4 <- 43        -0.00046
       4 <- 45        -0.00089
       4 <- 47        -0.00076
       4 <- 51        -0.00017
       5 <- 12         0.00750
       5 <- 16         0.00501
       5 <- 19         0.00103
       5 <- 22         0.00475
       5 <- 25         0.00534
       5 <- 33        -0.00233
       5 <- 36         0.00228
       5 <- 40        -0.00126
       5 <- 42         0.00056
       5 <- 49         0.00037
       5 <- 50        -0.00065
       5 <- 53        -0.00011
       6 <- 10         0.05118
       6 <- 11         0.03181
       6 <- 14        -0.03655
       6 <- 15        -0.02431
       6 <- 17        -0.00982
       6 <- 20        -0.00620
       6 <- 21         0.00729
       6 <- 24        -0.00804
       6 <- 26        -0.00361
       6 <- 29        -0.00525
       6 <- 32         0.00156
       6 <- 34         0.00174
       6 <- 35        -0.00079
       6 <- 39         0.00096
       6 <- 41        -0.00026
       6 <- 43         0.00071
       6 <- 45         0.00071
       6 <- 47         0.00072
       6 <- 51         0.00064
       6 <- 54        -0.00062
       7 <-  9        -0.12593
       7 <- 13         0.00684
       7 <- 18        -0.01355
       7 <- 23         0.00308
       7 <- 28        -0.00354
       7 <- 31        -0.00145
       7 <- 37         0.00038
       7 <- 44        -0.00065
       7 <- 48        -0.00021
       7 <- 52         0.00093
       8 <- 12        -0.00195
       8 <- 16         0.02388
       8 <- 19        -0.01057
       8 <- 22        -0.01354
       8 <- 30        -0.00840
       8 <- 33         0.00151
       8 <- 36        -0.00179
       8 <- 40         0.00091
       8 <- 42        -0.00028
       8 <- 49         0.00034
       8 <- 50         0.00018
       8 <- 53        -0.00062

 Excited State   3:      Singlet-B1     5.1578 eV  240.38 nm  f=0.0013  <S**2>=0.000
       3 ->  9        -0.02805
       3 -> 13         0.00157
       3 -> 18        -0.00449
       3 -> 23         0.00168
       3 -> 28        -0.00088
       3 -> 31        -0.00048
       3 -> 44         0.00023
       3 -> 48         0.00098
       3 -> 52         0.00093
       4 ->  9         0.01313
       4 -> 13        -0.00264
       4 -> 18         0.00022
       4 -> 23        -0.00238
       4 -> 28         0.00026
       4 -> 31        -0.00149
       4 -> 37        -0.00040
       4 -> 44         0.00013
       4 -> 48        -0.00103
       4 -> 52        -0.00055
       5 -> 38         0.00201
       5 -> 46         0.00083
       6 ->  9         0.70431
       6 -> 13        -0.01960
       6 -> 18         0.01640
       6 -> 23        -0.01085
       6 -> 28         0.00410
       6 -> 31         0.00315
       6 -> 37        -0.00210
       6 -> 44        -0.00272
       6 -> 48         0.00404
       6 -> 52         0.00139
       7 -> 10         0.05275
       7 -> 11         0.02643
       7 -> 14        -0.01900
       7 -> 15        -0.00652
       7 -> 17        -0.00904
       7 -> 20         0.00306
       7 -> 21         0.00037
       7 -> 24        -0.00078
       7 -> 26        -0.00166
       7 -> 29        -0.00387
       7 -> 32        -0.00051
       7 -> 34         0.00084
       7 -> 35         0.00175
       7 -> 39         0.00015
       7 -> 41        -0.00048
       7 -> 43         0.00053
       7 -> 45        -0.00019
       7 -> 47         0.00415
       7 -> 51         0.00119
       7 -> 54         0.00036
       8 -> 27         0.00042
       8 -> 46         0.00518
       3 <-  9        -0.00944
       3 <- 13        -0.00069
       3 <- 18        -0.00284
       3 <- 23        -0.00058
       3 <- 28        -0.00055
       3 <- 31        -0.00069
       3 <- 44        -0.00023
       3 <- 48         0.00115
       3 <- 52         0.00076
       4 <-  9         0.00673
       4 <- 13        -0.00032
       4 <- 18         0.00186
       4 <- 23        -0.00066
       4 <- 28         0.00158
       4 <- 31        -0.00100
       4 <- 37        -0.00022
       4 <- 48        -0.00089
       4 <- 52        -0.00031
       5 <- 27        -0.00057
       5 <- 38         0.00165
       5 <- 46         0.00074
       6 <-  9        -0.02638
       6 <- 13         0.00172
       6 <- 18        -0.00338
       6 <- 23        -0.00026
       6 <- 28        -0.00345
       6 <- 31         0.00111
       6 <- 37        -0.00181
       6 <- 44        -0.00141
       6 <- 48         0.00362
       6 <- 52         0.00045
       7 <- 10        -0.02013
       7 <- 11        -0.01240
       7 <- 14         0.01513
       7 <- 15         0.01157
       7 <- 17         0.00170
       7 <- 20         0.00477
       7 <- 21        -0.00415
       7 <- 24         0.00443
       7 <- 26         0.00172
       7 <- 29         0.00123
       7 <- 34         0.00088
       7 <- 35         0.00254
       7 <- 39         0.00046
       7 <- 41        -0.00014
       7 <- 43         0.00038
       7 <- 45        -0.00034
       7 <- 47         0.00380
       7 <- 51         0.00109
       7 <- 54         0.00105
       8 <- 27         0.00089
       8 <- 38         0.00025
       8 <- 46         0.00483

 Excited State   4:      Singlet-B2     5.7283 eV  216.44 nm  f=0.0109  <S**2>=0.000
       3 -> 12        -0.00152
       3 -> 16         0.00200
       3 -> 19        -0.00461
       3 -> 22         0.00060
       3 -> 25         0.00053
       3 -> 30        -0.00338
       3 -> 33        -0.00020
       3 -> 36         0.00215
       3 -> 40        -0.00181
       3 -> 42         0.00028
       3 -> 49        -0.00292
       3 -> 50         0.00022
       3 -> 53         0.00030
       4 -> 12         0.00045
       4 -> 16        -0.00256
       4 -> 19         0.00024
       4 -> 22         0.00293
       4 -> 25        -0.00170
       4 -> 30         0.00145
       4 -> 33        -0.00047
       4 -> 36         0.00054
       4 -> 40         0.00049
       4 -> 49         0.00049
       4 -> 50        -0.00012
       5 -> 10         0.00858
       5 -> 11         0.00523
       5 -> 14        -0.01073
       5 -> 15         0.00404
       5 -> 17         0.00034
       5 -> 20         0.00214
       5 -> 21         0.00578
       5 -> 24         0.00185
       5 -> 26        -0.00162
       5 -> 29        -0.00200
       5 -> 32        -0.00179
       5 -> 34        -0.00111
       5 -> 35        -0.00038
       5 -> 39        -0.00102
       5 -> 41         0.00070
       5 -> 45         0.00015
       5 -> 47        -0.00080
       5 -> 51         0.00048
       5 -> 54        -0.00024
       6 -> 12         0.00312
       6 -> 16        -0.00188
       6 -> 19         0.00328
       6 -> 22        -0.00026
       6 -> 25        -0.00087
       6 -> 30        -0.00049
       6 -> 33         0.00026
       6 -> 36        -0.00206
       6 -> 40         0.00169
       6 -> 42        -0.00046
       6 -> 49         0.00164
       6 -> 53        -0.00038
       7 -> 27        -0.00068
       7 -> 38         0.00078
       7 -> 46         0.00375
       8 -> 10         0.65465
       8 -> 11         0.23179
       8 -> 14        -0.12104
       8 -> 15        -0.05465
       8 -> 17        -0.01455
       8 -> 20        -0.00053
       8 -> 21         0.00732
       8 -> 24        -0.00683
       8 -> 26        -0.00561
       8 -> 29        -0.01047
       8 -> 32        -0.00331
       8 -> 34        -0.00196
       8 -> 35        -0.00014
       8 -> 39        -0.00069
       8 -> 41         0.00016
       8 -> 43        -0.00035
       8 -> 45         0.00161
       8 -> 47        -0.00450
       8 -> 51         0.00220
       8 -> 54        -0.00181
       3 <- 12        -0.00055
       3 <- 16         0.00056
       3 <- 19        -0.00218
       3 <- 22         0.00092
       3 <- 25         0.00049
       3 <- 30        -0.00134
       3 <- 33        -0.00016
       3 <- 36         0.00164
       3 <- 40        -0.00160
       3 <- 42         0.00024
       3 <- 49        -0.00300
       3 <- 50         0.00020
       3 <- 53         0.00086
       4 <- 12        -0.00013
       4 <- 16        -0.00228
       4 <- 22         0.00271
       4 <- 25        -0.00106
       4 <- 30         0.00133
       4 <- 33        -0.00054
       4 <- 36         0.00076
       4 <- 40         0.00017
       4 <- 49         0.00037
       5 <- 11        -0.00153
       5 <- 14        -0.00133
       5 <- 15         0.00378
       5 <- 17         0.00022
       5 <- 20         0.00061
       5 <- 21         0.00211
       5 <- 24         0.00245
       5 <- 26        -0.00046
       5 <- 29        -0.00049
       5 <- 34        -0.00026
       5 <- 39        -0.00036
       5 <- 41         0.00071
       5 <- 43         0.00011
       5 <- 45         0.00044
       5 <- 47        -0.00069
       5 <- 51         0.00026
       6 <- 16         0.00584
       6 <- 19        -0.00265
       6 <- 22        -0.00424
       6 <- 25        -0.00060
       6 <- 30        -0.00497
       6 <- 33         0.00056
       6 <- 36        -0.00205
       6 <- 40         0.00170
       6 <- 42        -0.00052
       6 <- 49         0.00183
       6 <- 53        -0.00112
       7 <- 27        -0.00066
       7 <- 38         0.00061
       7 <- 46         0.00311
       8 <- 10        -0.01836
       8 <- 11        -0.01179
       8 <- 14         0.01159
       8 <- 15         0.00405
       8 <- 17         0.00050
       8 <- 20        -0.00257
       8 <- 21        -0.00224
       8 <- 24         0.00145
       8 <- 26         0.00194
       8 <- 29        -0.00071
       8 <- 32         0.00260
       8 <- 34         0.00135
       8 <- 35        -0.00034
       8 <- 39         0.00151
       8 <- 41         0.00052
       8 <- 43         0.00037
       8 <- 45         0.00229
       8 <- 47        -0.00340
       8 <- 51         0.00138
       8 <- 54        -0.00046

 Excited State   5:      Singlet-B1     6.8455 eV  181.12 nm  f=0.0066  <S**2>=0.000
       3 ->  9        -0.01521
       3 -> 13         0.00096
       3 -> 18        -0.00312
       3 -> 23         0.00111
       3 -> 28        -0.00345
       3 -> 31        -0.00152
       3 -> 44         0.00052
       3 -> 48        -0.00204
       4 ->  9        -0.03595
       4 -> 13         0.00639
       4 -> 18         0.00159
       4 -> 23         0.00465
       4 -> 28         0.00214
       4 -> 31        -0.00034
       4 -> 37         0.00038
       4 -> 44        -0.00044
       4 -> 48         0.00048
       4 -> 52         0.00010
       5 -> 27        -0.00744
       5 -> 38        -0.00302
       5 -> 46         0.00061
       6 ->  9        -0.05928
       6 -> 13        -0.00407
       6 -> 18         0.00234
       6 -> 23        -0.00146
       6 -> 28         0.00323
       6 -> 31        -0.00357
       6 -> 37         0.00177
       6 -> 44        -0.00014
       6 -> 48         0.00106
       6 -> 52        -0.00045
       7 -> 10         0.66555
       7 -> 11         0.19527
       7 -> 14        -0.10634
       7 -> 15        -0.05557
       7 -> 17        -0.00896
       7 -> 20        -0.00559
       7 -> 21         0.00310
       7 -> 24        -0.00900
       7 -> 26        -0.00782
       7 -> 29        -0.00628
       7 -> 32        -0.00121
       7 -> 34        -0.00384
       7 -> 35        -0.00216
       7 -> 39        -0.00069
       7 -> 43         0.00053
       7 -> 45         0.00070
       7 -> 47         0.00215
       7 -> 51         0.00110
       7 -> 54        -0.00119
       8 -> 27         0.00132
       8 -> 38         0.00037
       8 -> 46         0.00247
       3 <-  9        -0.00314
       3 <- 13         0.00067
       3 <- 18        -0.00127
       3 <- 23         0.00065
       3 <- 28        -0.00208
       3 <- 31        -0.00029
       3 <- 37        -0.00022
       3 <- 44         0.00023
       3 <- 48        -0.00224
       3 <- 52         0.00043
       4 <-  9        -0.01008
       4 <- 13         0.00221
       4 <- 18         0.00056
       4 <- 23         0.00211
       4 <- 28         0.00186
       4 <- 31        -0.00045
       4 <- 37         0.00045
       4 <- 44        -0.00068
       5 <- 27        -0.00478

 The electronic state is 1-A1.
 Alpha  occ. eigenvalues --  -19.17317 -10.32878  -0.92180  -0.69967  -0.48889
 Alpha  occ. eigenvalues --   -0.41186  -0.32651  -0.28937
 Alpha virt. eigenvalues --   -0.14982  -0.01944   0.00887   0.04082   0.06119
 Alpha virt. eigenvalues --    0.08317   0.12678   0.14264   0.18917   0.21345
 Alpha virt. eigenvalues --    0.23978   0.30206   0.38973   0.40853   0.50910

 Mulliken charges:
               1
     1  C   -0.067101
     2  H    0.181886
     3  H    0.181886
     4  O   -0.296670
 Sum of Mulliken charges =  -0.00000

 Dipole moment (field-independent basis, Debye):
    X=             -0.0000    Y=              0.0000    Z=             -3.8267  Tot=              3.8267
 Quadrupole moment (field-independent basis, Debye-Ang):
   XX=            -12.7905   YY=            -11.9112   ZZ=            -11.2100
   XY=              0.0000   XZ=              0.0000   YZ=             -0.0000

 Normal termination of Gaussian 16 at Fri Sep 17 10:53:02 2021.
