 Gaussian 16, Revision C.01,
 Gaussian 16:  ES64L-G16RevC.01  3-Jul-2019

 ----------------------------------------
 #P wB97XD/6-311+G* NoSymm #P Field=X-252
 ----------------------------------------

 -------
 TitleMe
 -------
 Symbolic Z-matrix:
 Charge =  1 Multiplicity = 1

                          Input orientation:
 ---------------------------------------------------------------------
 Center     Atomic      Atomic             Coordinates (Angstroms)
 Number     Number       Type             X           Y           Z
 ---------------------------------------------------------------------
      1          6           0        0.519300    1.233000   -0.031900
      2          6           0        1.944500    1.269200   -0.036700
      3          6           0        2.620400    0.092800   -0.025000
      4          6           0       -0.196000    0.030100    0.001000
      5          1           0       -0.020700    2.174200   -0.043400
      6          1           0        2.482800    2.208900   -0.036100
      7          1           0       -1.277700    0.039900    0.011700
      8          7           0        4.092100    0.095900    0.036600
      9          8           0        4.639300   -1.021700    0.144600
     10          8           0        4.664900    1.198400   -0.023300
     11          6           0        0.494300   -1.167100    0.021000
     12          1           0       -0.032500   -2.114900    0.054500
     13          6           0        1.962900   -1.216500   -0.021100
     14          1           0        2.443600   -1.963100    0.615100
     15         35           0        2.173000   -1.949100   -1.906200
 ---------------------------------------------------------------------

 SCF Done:  E(RwB97XD) =  -3010.59559170     A.U. after   27 cycles

 Alpha  occ. eigenvalues -- -483.22685 -62.77672 -56.57384 -56.56800 -56.56774
 Alpha  occ. eigenvalues --  -19.31036 -19.30780 -14.70625 -10.50414 -10.50400
 Alpha  occ. eigenvalues --  -10.50014 -10.49214 -10.47361 -10.44213  -8.93451
 Alpha  occ. eigenvalues --   -6.76174  -6.74259  -6.74179  -2.86066  -2.85575
 Alpha  occ. eigenvalues --   -2.85512  -2.83980  -2.83979  -1.34670  -1.17440
 Alpha  occ. eigenvalues --   -1.14416  -1.05045  -1.03773  -0.96196  -0.90599
 Alpha  occ. eigenvalues --   -0.87592  -0.82189  -0.76647  -0.72123  -0.70598
 Alpha  occ. eigenvalues --   -0.68215  -0.67639  -0.66279  -0.63161  -0.61365
 Alpha  occ. eigenvalues --   -0.61018  -0.58803  -0.55986  -0.51112  -0.47294
 Alpha  occ. eigenvalues --   -0.46465  -0.41600  -0.39960  -0.39880
 Alpha virt. eigenvalues --   -0.21968  -0.14307  -0.10911  -0.09000  -0.07061
 Alpha virt. eigenvalues --   -0.05810  -0.03777  -0.01630  -0.00409  -0.00243
 Alpha virt. eigenvalues --    0.01364   0.02544   0.04502   0.04835   0.05702

 Mulliken charges:
               1
     1  C   -0.094770
     2  C    0.125449
     3  C    0.082167
     4  C   -0.273987
     5  H    0.277120
     6  H    0.382448
     7  H    0.197178
     8  N   -0.241566
     9  O    0.186550
    10  O    0.193306
    11  C   -0.362099
    12  H    0.292768
    13  C   -0.454916
    14  H    0.442591
    15  Br   0.247761
 Sum of Mulliken charges =   1.00000

 Dipole moment (field-independent basis, Debye):
    X=             10.1729    Y=             -1.2618    Z=             -1.1191  Tot=             10.3117
 Quadrupole moment (field-independent basis, Debye-Ang):
   XX=            -39.9322   YY=            -50.8537   ZZ=            -61.5641
   XY=             -4.5404   XZ=             -4.5677   YZ=              3.3344

 Normal termination of Gaussian 16 at Thu May  2 14:26:21 2024.
