 Gaussian 16, Revision A.03,
 Gaussian 16:  ES64L-G16RevA.03 25-Dec-2016

 --------------------------------------------------------------------
 #p B3LYP/6-311+G** #p TD=(singlets,nstates=30)IOp(6/8=3) IOp(9/40=4)
 --------------------------------------------------------------------

 -------------------------------
 Scan Step 124, Bond Length 1.12
 -------------------------------
 Symbolic Z-matrix:
 Charge =  0 Multiplicity = 1

                         Standard orientation:
 ---------------------------------------------------------------------
 Center     Atomic      Atomic             Coordinates (Angstroms)
 Number     Number       Type             X           Y           Z
 ---------------------------------------------------------------------
      1          6           0        0.000000   -0.000000   -0.486081
      2          1           0        0.000000    0.937260   -1.077431
      3          1           0       -0.000000   -0.937260   -1.077431
      4          8           0        0.000000    0.000000    0.633919
 ---------------------------------------------------------------------

 SCF Done:  E(RB3LYP) =  -114.529227099     A.U. after    9 cycles

 Excitation energies and oscillator strengths:

 Excited State   1:      Singlet-A2     4.4435 eV  279.02 nm  f=0.0000  <S**2>=0.000
       3 -> 27         0.00276
       3 -> 38         0.00234
       3 -> 45         0.00217
       4 -> 27         0.00237
       4 -> 38        -0.00067
       4 -> 45        -0.00116
       5 ->  9         0.02086
       5 -> 13        -0.00551
       5 -> 17         0.00604
       5 -> 23        -0.00133
       5 -> 29         0.00413
       5 -> 31         0.00282
       5 -> 36         0.00384
       5 -> 44         0.00067
       5 -> 47         0.00014
       5 -> 52         0.00084
       6 -> 27         0.00020
       6 -> 38        -0.00074
       6 -> 45         0.00173
       7 -> 12        -0.00062
       7 -> 16         0.00225
       7 -> 18        -0.00230
       7 -> 22         0.00117
       7 -> 24         0.00135
       7 -> 30        -0.00081
       7 -> 34         0.00040
       7 -> 35         0.00040
       7 -> 40        -0.00035
       7 -> 48         0.00051
       7 -> 50         0.00025
       7 -> 53         0.00043
       8 ->  9         0.70385
       8 -> 13        -0.06157
       8 -> 17         0.02412
       8 -> 23        -0.01155
       8 -> 29         0.00790
       8 -> 31         0.00325
       8 -> 36        -0.00077
       8 -> 44        -0.00020
       8 -> 47        -0.00021
       8 -> 52         0.00151
       3 <- 27         0.00187
       3 <- 38         0.00197
       3 <- 45         0.00226
       4 <- 27         0.00318
       4 <- 45        -0.00102
       5 <-  9        -0.00015
       5 <- 13        -0.00089
       5 <- 17        -0.00084
       5 <- 23         0.00055
       5 <- 29        -0.00055
       5 <- 31        -0.00104
       5 <- 36         0.00176
       5 <- 44         0.00033
       5 <- 47         0.00017
       5 <- 52         0.00022
       6 <- 27         0.00068
       6 <- 38        -0.00068
       6 <- 45         0.00134
       7 <- 12        -0.00092
       7 <- 16        -0.00614
       7 <- 18        -0.00065
       7 <- 22         0.00694
       7 <- 24        -0.00050
       7 <- 30         0.00279
       7 <- 34        -0.00134
       7 <- 35         0.00253
       7 <- 40        -0.00102
       7 <- 42         0.00024
       7 <- 48         0.00034
       7 <- 50         0.00013
       7 <- 53         0.00117
       8 <-  9        -0.01989
       8 <- 13         0.00425
       8 <- 17        -0.00397
       8 <- 23         0.00078
       8 <- 29        -0.00067
       8 <- 31         0.00133
       8 <- 36        -0.00179
       8 <- 52         0.00044
 This state for optimization and/or second-order correction.
 Total Energy, E(TD-HF/TD-DFT) =  -114.365929728
 Copying the excited state density for this state as the 1-particle RhoCI density.

 Excited State   2:      Singlet-B2     6.7072 eV  184.85 nm  f=0.0443  <S**2>=0.000
       3 -> 12         0.00131
       3 -> 16         0.00067
       3 -> 18         0.00112
       3 -> 22        -0.00027
       3 -> 24         0.00131
       3 -> 30        -0.00011
       3 -> 34         0.00013
       3 -> 35        -0.00030
       4 -> 12        -0.00397
       4 -> 16         0.00140
       4 -> 18         0.00228
       4 -> 22        -0.00335
       4 -> 24         0.00367
       4 -> 30         0.00012
       4 -> 34        -0.00070
       4 -> 35         0.00076
       4 -> 40        -0.00049
       5 -> 10        -0.00427
       5 -> 11        -0.00931
       5 -> 14         0.00690
       5 -> 15        -0.00112
       5 -> 19         0.00221
       5 -> 20         0.00080
       5 -> 21         0.00512
       5 -> 26         0.00260
       5 -> 28         0.00181
       5 -> 32         0.00029
       5 -> 33        -0.00102
       5 -> 37        -0.00031
       5 -> 39        -0.00031
       5 -> 41        -0.00017
       5 -> 43        -0.00056
       5 -> 46        -0.00048
       5 -> 49         0.00011
       6 -> 12         0.00085
       6 -> 16         0.00131
       6 -> 18         0.00310
       6 -> 22        -0.00270
       6 -> 24         0.00150
       6 -> 30        -0.00040
       6 -> 34        -0.00016
       6 -> 35         0.00017
       6 -> 40         0.00021
       6 -> 42        -0.00024
       6 -> 48         0.00041
       6 -> 50        -0.00045
       7 -> 27         0.00037
       7 -> 38        -0.00039
       7 -> 45         0.00062
       8 -> 10         0.70422
       8 -> 11        -0.05848
       8 -> 14         0.00598
       8 -> 15        -0.00839
       8 -> 19         0.01588
       8 -> 20         0.01164
       8 -> 21        -0.00423
       8 -> 25         0.00060
       8 -> 26         0.00174
       8 -> 28         0.00060
       8 -> 32        -0.00031
       8 -> 33         0.00208
       8 -> 37         0.00048
       8 -> 39         0.00047
       8 -> 41        -0.00015
       8 -> 43         0.00067
       8 -> 46        -0.00079
       8 -> 54         0.00017
       3 <- 12         0.00035
       3 <- 16         0.00053
       3 <- 18         0.00046
       3 <- 22        -0.00038
       3 <- 24         0.00082
       3 <- 30        -0.00011
       3 <- 34         0.00011
       3 <- 35        -0.00028
       4 <- 12         0.00064
       4 <- 16         0.00171
       4 <- 18         0.00230
       4 <- 22        -0.00204
       4 <- 24         0.00257
       4 <- 34        -0.00046
       4 <- 35         0.00048
       4 <- 40        -0.00019
       4 <- 42        -0.00020
       4 <- 48        -0.00011
       5 <- 10         0.00245
       5 <- 11        -0.00023
       5 <- 14         0.00496
       5 <- 15        -0.00101
       5 <- 19         0.00051
       5 <- 20         0.00052
       5 <- 21         0.00230
       5 <- 25         0.00171
       5 <- 26         0.00157
       5 <- 28         0.00043
       5 <- 33        -0.00100
       5 <- 37        -0.00034
       5 <- 39        -0.00017
       5 <- 43        -0.00041
       5 <- 46        -0.00041
       5 <- 49         0.00011
       5 <- 51        -0.00010
       6 <- 12         0.00027
       6 <- 16        -0.00012
       6 <- 18         0.00151
       6 <- 22        -0.00090
       6 <- 24         0.00055
       6 <- 30         0.00034
       6 <- 34        -0.00023
       6 <- 35         0.00033
       6 <- 40         0.00020
       6 <- 42        -0.00023
       6 <- 48         0.00034
       6 <- 50        -0.00046
       6 <- 53         0.00012
       7 <- 27         0.00029
       7 <- 38        -0.00029
       7 <- 45         0.00053
       8 <- 10        -0.00234
       8 <- 11        -0.00064
       8 <- 14        -0.00723
       8 <- 19        -0.00038
       8 <- 20        -0.00042
       8 <- 21        -0.00264
       8 <- 25        -0.00268
       8 <- 26        -0.00025
       8 <- 28        -0.00069
       8 <- 32        -0.00086
       8 <- 33         0.00110
       8 <- 37         0.00047
       8 <- 39         0.00039
       8 <- 43         0.00050
       8 <- 46        -0.00053
       8 <- 51        -0.00012

 Excited State   3:      Singlet-B2     7.5026 eV  165.26 nm  f=0.0225  <S**2>=0.000
       3 -> 12        -0.00024
       3 -> 16        -0.00068
       3 -> 18         0.00065
       3 -> 22         0.00031
       3 -> 24         0.00026
       3 -> 30         0.00173
       3 -> 34         0.00013
       3 -> 35        -0.00038
       3 -> 40         0.00036
       3 -> 42        -0.00012
       3 -> 48         0.00032
       3 -> 50        -0.00027
       4 -> 12         0.00301
       4 -> 16        -0.00053
       4 -> 18         0.00300
       4 -> 22        -0.00153
       4 -> 24         0.00320
       4 -> 30        -0.00111
       4 -> 34         0.00052
       4 -> 35        -0.00046
       4 -> 42        -0.00017
       4 -> 48         0.00021
       4 -> 50        -0.00013
       5 -> 10        -0.00765
       5 -> 11         0.00020
       5 -> 14         0.00681
       5 -> 15        -0.00691
       5 -> 19        -0.00348
       5 -> 20        -0.00353
       5 -> 21         0.00104
       5 -> 25         0.00139
       5 -> 28         0.00157
       5 -> 32        -0.00031
       5 -> 33        -0.00149
       5 -> 37        -0.00014
       5 -> 39         0.00042
       5 -> 41        -0.00082
       5 -> 46         0.00083
       5 -> 51         0.00043
       6 -> 12        -0.00323
       6 -> 16        -0.00190
       6 -> 18        -0.00125
       6 -> 22         0.00143
       6 -> 24         0.00010
       6 -> 30         0.00072
       6 -> 34        -0.00048
       6 -> 35         0.00147
       6 -> 40        -0.00095
       6 -> 42         0.00014
       6 -> 48        -0.00090
       6 -> 50         0.00063
       6 -> 53         0.00012
       7 -> 27        -0.00030
       7 -> 38        -0.00107
       7 -> 45        -0.00155
       8 -> 10         0.05907
       8 -> 11         0.70372
       8 -> 14        -0.00997
       8 -> 15         0.01446
       8 -> 19        -0.02603
       8 -> 20         0.01069
       8 -> 21        -0.00231
       8 -> 25         0.00059
       8 -> 26        -0.00164
       8 -> 28        -0.00011
       8 -> 32        -0.00037
       8 -> 41        -0.00135
       8 -> 43         0.00019
       8 -> 46         0.00148
       8 -> 49        -0.00018
       8 -> 51         0.00087
       8 -> 54        -0.00016
       3 <- 12         0.00033
       3 <- 16        -0.00024
       3 <- 18         0.00081
       3 <- 24         0.00038
       3 <- 30         0.00103
       3 <- 34         0.00022
       3 <- 35        -0.00043
       3 <- 40         0.00032
       3 <- 42        -0.00011
       3 <- 48         0.00027
       3 <- 50        -0.00017
       3 <- 53        -0.00024
       4 <- 12         0.00035
       4 <- 16         0.00060
       4 <- 18         0.00080
       4 <- 22        -0.00117
       4 <- 24         0.00132
       4 <- 30        -0.00049
       4 <- 34         0.00048
       4 <- 42        -0.00018
       4 <- 48         0.00015
       4 <- 50        -0.00018
       5 <- 10         0.00130
       5 <- 11        -0.00095
       5 <- 14         0.00236
       5 <- 15        -0.00044
       5 <- 19         0.00085
       5 <- 20        -0.00028
       5 <- 21         0.00083
       5 <- 25         0.00122
       5 <- 26        -0.00038
       5 <- 28         0.00077
       5 <- 32         0.00092
       5 <- 33        -0.00076
       5 <- 37         0.00018
       5 <- 39         0.00016
       5 <- 41        -0.00085
       5 <- 46         0.00076
       5 <- 51         0.00035
       6 <- 12        -0.00034
       6 <- 16        -0.00040
       6 <- 22         0.00055
       6 <- 30         0.00038
       6 <- 34        -0.00030
       6 <- 35         0.00113
       6 <- 40        -0.00070
       6 <- 48        -0.00075
       6 <- 50         0.00052
       7 <- 38        -0.00086
       7 <- 45        -0.00131
       8 <- 10        -0.00074
       8 <- 14        -0.00407
       8 <- 15         0.00054
       8 <- 19         0.00333
       8 <- 20        -0.00130
       8 <- 21        -0.00208
       8 <- 25         0.00019
       8 <- 26        -0.00165
       8 <- 28        -0.00014
       8 <- 32         0.00123
       8 <- 33         0.00079
       8 <- 37        -0.00010
       8 <- 39        -0.00037
       8 <- 41        -0.00115
       8 <- 46         0.00119
       8 <- 51         0.00062

 Excited State   4:      Singlet-A1     7.6640 eV  161.78 nm  f=0.0534  <S**2>=0.000
       3 -> 10         0.00175
       3 -> 11        -0.00099
       3 -> 14         0.00067
       3 -> 15        -0.00027
       3 -> 19         0.00057
       3 -> 20         0.00139
       3 -> 21         0.00054
       3 -> 25        -0.00042
       3 -> 26         0.00101
       3 -> 28         0.00111
       3 -> 32        -0.00019
       3 -> 33        -0.00049
       3 -> 37        -0.00026
       3 -> 39         0.00011
       3 -> 41        -0.00021
       3 -> 46         0.00011
       3 -> 49         0.00021
       3 -> 51         0.00031
       3 -> 54        -0.00021
       4 -> 10         0.00514
       4 -> 11         0.00701
       4 -> 14         0.00539
       4 -> 15         0.00011
       4 -> 19         0.00039
       4 -> 20         0.00488
       4 -> 21         0.00174
       4 -> 25         0.00721
       4 -> 26         0.00123
       4 -> 28        -0.00044
       4 -> 32         0.00054
       4 -> 33        -0.00045
       4 -> 39        -0.00019
       4 -> 41         0.00015
       4 -> 43         0.00016
       4 -> 46        -0.00023
       4 -> 49        -0.00012
       4 -> 51         0.00014
       5 -> 12         0.00711
       5 -> 16         0.00105
       5 -> 18         0.01131
       5 -> 22        -0.00164
       5 -> 24         0.00524
       5 -> 34        -0.00016
       5 -> 35         0.00080
       5 -> 50         0.00030
       5 -> 53        -0.00015
       6 -> 10         0.01297
       6 -> 11        -0.00342
       6 -> 14         0.00436
       6 -> 15         0.00138
       6 -> 19         0.00370
       6 -> 20         0.00446
       6 -> 21         0.00150
       6 -> 25         0.00291
       6 -> 26         0.00031
       6 -> 28        -0.00143
       6 -> 32         0.00061
       6 -> 33        -0.00017
       6 -> 43         0.00012
       6 -> 49        -0.00056
       6 -> 51        -0.00034
       7 ->  9         0.01427
       7 -> 13         0.00893
       7 -> 17         0.00372
       7 -> 23         0.00520
       7 -> 29        -0.00027
       7 -> 31         0.00086
       7 -> 36         0.00057
       7 -> 44         0.00066
       7 -> 47        -0.00035
       7 -> 52        -0.00011
       8 -> 12         0.70575
       8 -> 16        -0.01531
       8 -> 18         0.02953
       8 -> 22         0.00502
       8 -> 24         0.00286
       8 -> 30         0.00093
       8 -> 34         0.00153
       8 -> 35        -0.00206
       8 -> 40        -0.00072
       8 -> 42         0.00037
       8 -> 48        -0.00038
       8 -> 50         0.00031
       8 -> 53        -0.00021
       3 <- 10         0.00060
       3 <- 11        -0.00013
       3 <- 14         0.00039
       3 <- 19         0.00017
       3 <- 20         0.00064
       3 <- 21         0.00043
       3 <- 26         0.00061
       3 <- 28         0.00072
       3 <- 32        -0.00024
       3 <- 33        -0.00030
       3 <- 37        -0.00020
       3 <- 41        -0.00016
       3 <- 46         0.00020
       3 <- 49         0.00017
       3 <- 51         0.00028
       3 <- 54        -0.00019
       4 <- 10         0.00464
       4 <- 11         0.00182
       4 <- 14         0.00395
       4 <- 15        -0.00040
       4 <- 19         0.00026
       4 <- 20         0.00278
       4 <- 21         0.00068
       4 <- 25         0.00400
       4 <- 26         0.00078
       4 <- 32         0.00050
       4 <- 33        -0.00083
       4 <- 39        -0.00025
       4 <- 46        -0.00020
       4 <- 51         0.00014
       5 <- 12         0.00277
       5 <- 16         0.00207
       5 <- 18         0.00403
       5 <- 22        -0.00050
       5 <- 24         0.00283
       5 <- 30        -0.00010
       5 <- 34        -0.00034
       5 <- 35         0.00074
       5 <- 40         0.00010
       5 <- 50         0.00019
       5 <- 53        -0.00013
       6 <- 10         0.00344
       6 <- 11        -0.00032
       6 <- 14         0.00177
       6 <- 15         0.00043
       6 <- 19         0.00121
       6 <- 20         0.00218
       6 <- 21         0.00053
       6 <- 25         0.00149
       6 <- 26         0.00043
       6 <- 28        -0.00088
       6 <- 32         0.00047
       6 <- 33        -0.00025
       6 <- 41         0.00014
       6 <- 46        -0.00010
       6 <- 49        -0.00044
       6 <- 51        -0.00036
       7 <-  9         0.00142
       7 <- 13         0.00228
       7 <- 17         0.00111
       7 <- 23         0.00269
       7 <- 29        -0.00026
       7 <- 31         0.00060
       7 <- 36         0.00045
       7 <- 44         0.00055
       7 <- 47        -0.00030
       8 <- 12        -0.00138
       8 <- 16        -0.00701
       8 <- 18        -0.00245
       8 <- 22         0.00081
       8 <- 24        -0.00206
       8 <- 30        -0.00016
       8 <- 34         0.00076
       8 <- 35        -0.00105
       8 <- 40        -0.00067
       8 <- 42         0.00031
       8 <- 48        -0.00043
       8 <- 50         0.00024
       8 <- 53        -0.00022

 Excited State   5:      Singlet-A2     8.1655 eV  151.84 nm  f=0.0000  <S**2>=0.000
       3 -> 27        -0.00059
       3 -> 38        -0.00053
       3 -> 45        -0.00031
       4 -> 27         0.00018
       4 -> 38         0.00053
       5 ->  9        -0.00849
       5 -> 13        -0.00241
       5 -> 17         0.00619
       5 -> 23        -0.00158
       5 -> 31        -0.00167
       5 -> 36        -0.00114
       5 -> 44        -0.00022
       5 -> 52        -0.00011
       6 -> 27         0.00022
       6 -> 38         0.00029
       6 -> 45        -0.00032
       7 -> 12        -0.00049
       7 -> 16        -0.00181
       7 -> 18         0.00191
       7 -> 22        -0.00070
       7 -> 24        -0.00013
       7 -> 35        -0.00016
       7 -> 40         0.00013
       7 -> 48        -0.00011
       8 ->  9         0.06147
       8 -> 13         0.70393
       8 -> 17         0.01591
       8 -> 23         0.01813
       8 -> 31        -0.00139
       8 -> 36        -0.00020
       8 -> 47         0.00018
       8 -> 52        -0.00016
       3 <- 27        -0.00021
       3 <- 38        -0.00037
       3 <- 45        -0.00040
       4 <- 27        -0.00019
       5 <-  9        -0.00027
       5 <- 13        -0.00031
       5 <- 17         0.00059
       5 <- 36        -0.00025
       6 <- 38         0.00020
       7 <- 12        -0.00065
       7 <- 16        -0.00086
       7 <- 18         0.00069
       7 <- 22        -0.00116
       7 <- 24        -0.00038
       7 <- 30         0.00020
       7 <- 34         0.00043
       7 <- 35        -0.00070
       7 <- 40         0.00039
       7 <- 42        -0.00014
       7 <- 53        -0.00012
       8 <-  9         0.00257
       8 <- 13         0.00141
       8 <- 17         0.00023
       8 <- 23        -0.00022
       8 <- 31        -0.00012
       8 <- 36         0.00020

 Excited State   6:      Singlet-B1    10.1083 eV  122.66 nm  f=0.0004  <S**2>=0.000
       3 ->  9        -0.03057
       3 -> 13         0.00801
       3 -> 17        -0.00776
       3 -> 23         0.00537
       3 -> 29        -0.00341
       3 -> 31        -0.00044
       3 -> 36        -0.00015
       3 -> 44         0.00079
       3 -> 47        -0.00024
       3 -> 52         0.00109
       4 ->  9         0.01653

 The electronic state is 1-A1.
 Alpha  occ. eigenvalues --  -19.14579 -10.26525  -1.12387  -0.63250  -0.52250
 Alpha  occ. eigenvalues --   -0.47701  -0.44313  -0.27490
 Alpha virt. eigenvalues --   -0.04192   0.01017   0.04092   0.04313   0.06709
 Alpha virt. eigenvalues --    0.13307   0.18361   0.18768   0.22015   0.22893
 Alpha virt. eigenvalues --    0.27201   0.34444   0.47573   0.48190   0.51054

 Mulliken charges:
               1
     1  C    0.045158
     2  H    0.087829
     3  H    0.087829
     4  O   -0.220816
 Sum of Mulliken charges =  -0.00000

 Dipole moment (field-independent basis, Debye):
    X=             -0.0000    Y=              0.0000    Z=             -2.0601  Tot=              2.0601
 Quadrupole moment (field-independent basis, Debye-Ang):
   XX=            -11.4968   YY=            -11.7980   ZZ=            -12.6543
   XY=              0.0000   XZ=              0.0000   YZ=             -0.0000

 Normal termination of Gaussian 16 at Fri Sep 17 10:52:39 2021.
