 Gaussian 16, Revision A.03,
 Gaussian 16:  ES64L-G16RevA.03 25-Dec-2016

 --------------------------------------------------------------------
 #p B3LYP/6-311+G** #p TD=(singlets,nstates=30)IOp(6/8=3) IOp(9/40=4)
 --------------------------------------------------------------------

 ------------------------------
 Scan Step 3, Bond Length 0.515
 ------------------------------
 Symbolic Z-matrix:
 Charge =  0 Multiplicity = 1

                         Standard orientation:
 ---------------------------------------------------------------------
 Center     Atomic      Atomic             Coordinates (Angstroms)
 Number     Number       Type             X           Y           Z
 ---------------------------------------------------------------------
      1          6           0        0.000000    0.000000   -0.183581
      2          1           0        0.000000    0.937260   -0.774931
      3          1           0       -0.000000   -0.937260   -0.774931
      4          8           0        0.000000    0.000000    0.331419
 ---------------------------------------------------------------------

 SCF Done:  E(RB3LYP) =  -109.320810825     A.U. after   10 cycles

 Excitation energies and oscillator strengths:

 Excited State   1:      Singlet-B2     4.3027 eV  288.16 nm  f=0.1606  <S**2>=0.000
       3 -> 11         0.00064
       3 -> 14         0.00165
       3 -> 19         0.00069
       3 -> 22         0.00148
       3 -> 25        -0.00175
       3 -> 31        -0.00039
       3 -> 38         0.00023
       3 -> 40         0.00067
       3 -> 43         0.00025
       3 -> 46         0.00012
       3 -> 53         0.00014
       4 ->  9        -0.00225
       4 -> 12         0.00137
       4 -> 13         0.00272
       4 -> 16         0.00109
       4 -> 17         0.00130
       4 -> 20         0.00193
       4 -> 21         0.00153
       4 -> 24         0.00093
       4 -> 27         0.00059
       4 -> 30         0.00169
       4 -> 32         0.00021
       4 -> 33         0.00090
       4 -> 37        -0.00045
       4 -> 42         0.00041
       4 -> 44        -0.00022
       4 -> 47        -0.00061
       4 -> 48        -0.00013
       4 -> 51        -0.00014
       4 -> 54        -0.00014
       5 -> 26         0.00221
       5 -> 35         0.00098
       5 -> 45         0.00061
       6 -> 11         0.01106
       6 -> 14        -0.00072
       6 -> 19         0.00346
       6 -> 22         0.00048
       6 -> 25         0.00286
       6 -> 29        -0.00119
       6 -> 31         0.00085
       6 -> 40        -0.00011
       6 -> 43        -0.00019
       6 -> 46        -0.00012
       6 -> 50         0.00016
       7 -> 11         0.00737
       7 -> 14         0.00605
       7 -> 19         0.00385
       7 -> 22         0.00077
       7 -> 25        -0.00321
       7 -> 29        -0.00060
       7 -> 31         0.00115
       7 -> 38        -0.00064
       7 -> 43        -0.00031
       7 -> 46         0.00049
       7 -> 50         0.00037
       7 -> 53        -0.00018
       8 ->  9         0.70370
       8 -> 12        -0.00904
       8 -> 13         0.06994
       8 -> 16        -0.01026
       8 -> 17        -0.02446
       8 -> 20         0.00683
       8 -> 21         0.01231
       8 -> 24        -0.00098
       8 -> 27         0.00136
       8 -> 30        -0.00363
       8 -> 32        -0.00132
       8 -> 33        -0.00167
       8 -> 37        -0.00082
       8 -> 39        -0.00034
       8 -> 42         0.00072
       8 -> 44         0.00067
       8 -> 47         0.00045
       8 -> 48         0.00025
       3 <- 11         0.00035
       3 <- 14         0.00123
       3 <- 19         0.00038
       3 <- 22         0.00127
       3 <- 25        -0.00137
       3 <- 29        -0.00013
       3 <- 31        -0.00040
       3 <- 38         0.00026
       3 <- 40         0.00064
       3 <- 43         0.00026
       3 <- 46         0.00014
       3 <- 53         0.00016
       4 <-  9        -0.00088
       4 <- 13         0.00221
       4 <- 16         0.00099
       4 <- 17        -0.00018
       4 <- 20         0.00136
       4 <- 21         0.00127
       4 <- 24         0.00043
       4 <- 27         0.00112
       4 <- 30         0.00135
       4 <- 32         0.00014
       4 <- 33         0.00037
       4 <- 37        -0.00030
       4 <- 39         0.00015
       4 <- 42         0.00032
       4 <- 44        -0.00020
       4 <- 47        -0.00057
       5 <- 26         0.00193
       5 <- 35         0.00081
       5 <- 45         0.00051
       6 <- 11         0.00392
       6 <- 14        -0.00177
       6 <- 19         0.00161
       6 <- 22        -0.00020
       6 <- 25         0.00230
       6 <- 29        -0.00103
       6 <- 31         0.00079
       6 <- 40        -0.00012
       6 <- 43        -0.00014
       6 <- 50         0.00014
       7 <- 11         0.00147
       7 <- 14         0.00320
       7 <- 19         0.00089
       7 <- 22         0.00048
       7 <- 25        -0.00225
       7 <- 29        -0.00144
       7 <- 31         0.00102
       7 <- 38        -0.00040
       7 <- 43        -0.00021
       7 <- 46         0.00052
       7 <- 50         0.00048
       8 <-  9        -0.01704
       8 <- 12        -0.00838
       8 <- 13         0.02904
       8 <- 16         0.00714
       8 <- 17        -0.00249
       8 <- 20         0.00209
       8 <- 21         0.00691
       8 <- 24         0.00237
       8 <- 27         0.00121
       8 <- 30        -0.00252
       8 <- 32        -0.00160
       8 <- 33        -0.00113
       8 <- 37        -0.00082
       8 <- 39        -0.00038
       8 <- 42         0.00070
       8 <- 44         0.00034
       8 <- 47         0.00041
       8 <- 48         0.00015
 This state for optimization and/or second-order correction.
 Total Energy, E(TD-HF/TD-DFT) =  -109.162690566
 Copying the excited state density for this state as the 1-particle RhoCI density.

 Excited State   2:      Singlet-A2     4.7093 eV  263.28 nm  f=0.0000  <S**2>=0.000
       3 -> 26        -0.00221
       3 -> 35        -0.00101
       3 -> 45        -0.00027
       4 -> 10        -0.00077
       4 -> 15        -0.00105
       4 -> 18        -0.00154
       4 -> 23        -0.00021
       4 -> 28        -0.00172
       4 -> 34         0.00029
       4 -> 36        -0.00088
       4 -> 49        -0.00016
       4 -> 52        -0.00019
       5 -> 11         0.00015
       5 -> 14        -0.00021
       5 -> 19         0.00028
       5 -> 22        -0.00058
       5 -> 25        -0.00021
       5 -> 29         0.00039
       5 -> 38        -0.00034
       5 -> 40        -0.00012
       5 -> 43        -0.00035
       5 -> 46        -0.00022
       5 -> 50         0.00014
       6 -> 26         0.00324
       6 -> 35        -0.00095
       6 -> 45        -0.00025
       7 -> 26         0.00113
       7 -> 35         0.00013
       7 -> 45        -0.00014
       8 -> 10         0.70676
       8 -> 15         0.00449
       8 -> 18         0.02297
       8 -> 23        -0.00331
       8 -> 28        -0.00067
       8 -> 34         0.00368
       8 -> 36        -0.00109
       8 -> 41         0.00084
       8 -> 49         0.00016
       8 -> 52         0.00023
       3 <- 26        -0.00187
       3 <- 35        -0.00087
       3 <- 45        -0.00027
       4 <- 10        -0.00023
       4 <- 18        -0.00074
       4 <- 28        -0.00053
       4 <- 34         0.00057
       4 <- 36        -0.00055
       5 <- 11         0.00036
       5 <- 14        -0.00040
       5 <- 19         0.00082
       5 <- 22        -0.00068
       5 <- 25        -0.00046
       5 <- 29         0.00108
       5 <- 38        -0.00053
       5 <- 43        -0.00039
       5 <- 46        -0.00026
       5 <- 53        -0.00016
       6 <- 26         0.00324
       6 <- 35        -0.00109
       6 <- 45        -0.00025
       7 <- 26         0.00105
       7 <- 45        -0.00018
       8 <- 10         0.00298
       8 <- 15         0.00036
       8 <- 18        -0.00780
       8 <- 28        -0.00107
       8 <- 34         0.00347
       8 <- 36        -0.00093
       8 <- 41         0.00047
       8 <- 52         0.00011

 Excited State   3:      Singlet-B2     5.4954 eV  225.62 nm  f=0.0401  <S**2>=0.000
       3 -> 11        -0.00033
       3 -> 14         0.00037
       3 -> 19        -0.00065
       3 -> 22         0.00011
       3 -> 25         0.00013
       3 -> 31         0.00014
       3 -> 38        -0.00017
       3 -> 40        -0.00030
       3 -> 43        -0.00015
       3 -> 53        -0.00019
       4 ->  9         0.00050
       4 -> 13         0.00071
       4 -> 16         0.00128
       4 -> 17        -0.00084
       4 -> 20        -0.00048
       4 -> 21         0.00072
       4 -> 24         0.00086
       4 -> 27         0.00013
       4 -> 30        -0.00186
       4 -> 32        -0.00014
       4 -> 37         0.00052
       4 -> 39        -0.00080
       4 -> 42        -0.00031
       4 -> 47         0.00032
       5 -> 26        -0.00098
       5 -> 35        -0.00102
       5 -> 45        -0.00053
       6 -> 11         0.00110
       6 -> 14        -0.00465
       6 -> 19         0.00191
       6 -> 22         0.00033
       6 -> 25         0.00194
       6 -> 29        -0.00253
       6 -> 31        -0.00068
       6 -> 38        -0.00024
       6 -> 40         0.00031
       6 -> 43        -0.00028
       6 -> 50         0.00012
       6 -> 53        -0.00010
       7 -> 11        -0.00100
       7 -> 14        -0.00289
       7 -> 19        -0.00164
       7 -> 22        -0.00073
       7 -> 25         0.00230
       7 -> 29        -0.00050
       7 -> 31        -0.00032
       7 -> 38         0.00061
       7 -> 40        -0.00028
       7 -> 43         0.00016
       7 -> 46        -0.00059
       7 -> 50        -0.00027
       7 -> 53         0.00024
       8 ->  9         0.00521
       8 -> 12         0.70520
       8 -> 13         0.04688
       8 -> 16         0.02051
       8 -> 17        -0.00209
       8 -> 20         0.01559
       8 -> 21         0.00497
       8 -> 24        -0.00111
       8 -> 27        -0.00195
       8 -> 30        -0.00345
       8 -> 32         0.00040
       8 -> 33         0.00035
       8 -> 37        -0.00097
       8 -> 39         0.00116
       8 -> 42         0.00101
       8 -> 44        -0.00018
       8 -> 51        -0.00011
       8 -> 54        -0.00011
       3 <- 11        -0.00017
       3 <- 14         0.00020
       3 <- 19        -0.00024
       3 <- 29         0.00017
       3 <- 31         0.00019
       3 <- 38        -0.00021
       3 <- 40        -0.00024
       3 <- 43        -0.00016
       3 <- 53        -0.00023
       4 <-  9        -0.00085
       4 <- 12        -0.00021
       4 <- 13         0.00079
       4 <- 16         0.00065
       4 <- 17         0.00025
       4 <- 20        -0.00029
       4 <- 21         0.00052
       4 <- 24         0.00087
       4 <- 30        -0.00132
       4 <- 32        -0.00045
       4 <- 33         0.00024
       4 <- 37         0.00033
       4 <- 39        -0.00056
       4 <- 42        -0.00034
       4 <- 44         0.00011
       4 <- 47         0.00030
       5 <- 26        -0.00065
       5 <- 35        -0.00090
       5 <- 45        -0.00048
       6 <- 11         0.00109
       6 <- 14        -0.00097
       6 <- 22         0.00044
       6 <- 25         0.00175
       6 <- 29        -0.00187
       6 <- 31        -0.00080
       6 <- 38        -0.00032
       6 <- 40         0.00024
       6 <- 43        -0.00025
       6 <- 53        -0.00011
       7 <- 11         0.00032
       7 <- 14        -0.00107
       7 <- 19        -0.00050
       7 <- 22        -0.00057
       7 <- 25         0.00135
       7 <- 29         0.00013
       7 <- 31        -0.00016
       7 <- 38         0.00032
       7 <- 40        -0.00016
       7 <- 46        -0.00051
       7 <- 50        -0.00033
       7 <- 53         0.00017
       8 <-  9        -0.00767
       8 <- 12         0.00049
       8 <- 13         0.01321
       8 <- 16         0.00400
       8 <- 17        -0.00300
       8 <- 20        -0.00325
       8 <- 21         0.00307
       8 <- 24         0.00043
       8 <- 30        -0.00262
       8 <- 32         0.00023
       8 <- 33         0.00042
       8 <- 37        -0.00086
       8 <- 39         0.00114
       8 <- 42         0.00086
       8 <- 44        -0.00012
       8 <- 47        -0.00011

 Excited State   4:      Singlet-A1     5.8154 eV  213.20 nm  f=0.0009  <S**2>=0.000
       3 ->  9         0.00205
       3 -> 16        -0.00174
       3 -> 17        -0.00182
       3 -> 21         0.00110
       3 -> 24        -0.00164
       3 -> 27         0.00034
       3 -> 30         0.00070
       3 -> 32         0.00039
       3 -> 33        -0.00095
       3 -> 37         0.00072
       3 -> 39         0.00033
       3 -> 44        -0.00022
       3 -> 51        -0.00011
       3 -> 54         0.00019
       4 -> 11        -0.00482
       4 -> 14        -0.00387
       4 -> 19        -0.00474
       4 -> 22        -0.00273
       4 -> 25         0.00301
       4 -> 29        -0.00162
       4 -> 31        -0.00013
       4 -> 38        -0.00063
       4 -> 40         0.00014
       4 -> 43         0.00012
       4 -> 46        -0.00013
       5 -> 10        -0.00146
       5 -> 15        -0.00346
       5 -> 18         0.00094
       5 -> 23         0.00382
       5 -> 28         0.00059
       5 -> 34        -0.00045
       5 -> 36        -0.00048
       6 ->  9        -0.00793
       6 -> 12        -0.01016
       6 -> 13         0.00204
       6 -> 16         0.00849
       6 -> 17         0.00079
       6 -> 20        -0.00384
       6 -> 21        -0.00421
       6 -> 24         0.00379
       6 -> 27         0.00340
       6 -> 30         0.00036
       6 -> 32        -0.00311
       6 -> 33        -0.00284
       6 -> 37        -0.00224
       6 -> 39         0.00108
       6 -> 42         0.00048
       6 -> 44        -0.00107
       6 -> 47         0.00023
       6 -> 48         0.00041
       6 -> 51         0.00021
       7 ->  9         0.02237
       7 -> 12        -0.01101
       7 -> 13        -0.00498
       7 -> 16         0.00310
       7 -> 17        -0.01431
       7 -> 20        -0.00193
       7 -> 21        -0.00281
       7 -> 24        -0.00218
       7 -> 27         0.00372
       7 -> 30        -0.00133
       7 -> 32         0.00114
       7 -> 33        -0.00028
       7 -> 37        -0.00084
       7 -> 39        -0.00014
       7 -> 44         0.00023
       7 -> 47        -0.00013
       7 -> 54        -0.00017
       8 -> 11         0.70398
       8 -> 14         0.05713
       8 -> 19        -0.02596
       8 -> 22        -0.00195
       8 -> 25        -0.01163
       8 -> 29        -0.00111
       8 -> 31         0.00243
       8 -> 38        -0.00366
       8 -> 40         0.00181
       8 -> 43         0.00182
       8 -> 46        -0.00129
       8 -> 50         0.00022
       3 <-  9         0.00141
       3 <- 12         0.00010
       3 <- 16        -0.00122
       3 <- 17        -0.00116
       3 <- 21         0.00087
       3 <- 24        -0.00123
       3 <- 27         0.00027
       3 <- 30         0.00059
       3 <- 32         0.00031
       3 <- 33        -0.00075
       3 <- 37         0.00060
       3 <- 39         0.00029
       3 <- 44        -0.00017
       3 <- 54         0.00017
       4 <- 11        -0.00237
       4 <- 14        -0.00174
       4 <- 19        -0.00298
       4 <- 22        -0.00190
       4 <- 25         0.00185
       4 <- 29        -0.00120
       4 <- 38        -0.00052
       4 <- 40         0.00015
       4 <- 43         0.00013
       4 <- 46        -0.00010
       5 <- 10        -0.00095
       5 <- 15        -0.00230
       5 <- 18         0.00064
       5 <- 23         0.00285
       5 <- 28         0.00048
       5 <- 34        -0.00039
       5 <- 36        -0.00042
       6 <-  9        -0.00750
       6 <- 12        -0.00482
       6 <- 13         0.00230
       6 <- 16         0.00574
       6 <- 20        -0.00165
       6 <- 21        -0.00386
       6 <- 24         0.00264
       6 <- 27         0.00250
       6 <- 30         0.00011
       6 <- 32        -0.00230
       6 <- 33        -0.00223
       6 <- 37        -0.00201
       6 <- 39         0.00070
       6 <- 42         0.00042
       6 <- 44        -0.00099
       6 <- 47         0.00018
       6 <- 48         0.00037
       6 <- 51         0.00019
       7 <-  9         0.00470
       7 <- 12        -0.00356
       7 <- 13        -0.00129
       7 <- 16         0.00205
       7 <- 17        -0.00634
       7 <- 20        -0.00059
       7 <- 21        -0.00182
       7 <- 24        -0.00121
       7 <- 27         0.00255
       7 <- 30        -0.00097
       7 <- 32         0.00083
       7 <- 33        -0.00017
       7 <- 37        -0.00068
       7 <- 39        -0.00022
       7 <- 44         0.00018
       7 <- 54        -0.00015
       8 <- 11        -0.01768
       8 <- 14         0.00428
       8 <- 19        -0.01773
       8 <- 22        -0.00483
       8 <- 25        -0.00700
       8 <- 29        -0.00112
       8 <- 31         0.00222
       8 <- 38        -0.00304
       8 <- 40         0.00124
       8 <- 43         0.00151
       8 <- 46        -0.00116
       8 <- 50         0.00023

 Excited State   5:      Singlet-A2     8.6431 eV  143.45 nm  f=0.0000  <S**2>=0.000
       3 -> 26         0.00113
       3 -> 35         0.00047
       4 -> 10        -0.00120
       4 -> 15        -0.00278
       4 -> 18         0.00119
       4 -> 23         0.00192
       4 -> 28        -0.00011
       4 -> 34         0.00013
       4 -> 36         0.00077
       4 -> 41        -0.00038
       4 -> 49        -0.00010
       5 -> 14         0.00015
       5 -> 19        -0.00027
       5 -> 22         0.00045
       5 -> 25         0.00044
       5 -> 29        -0.00015
       5 -> 38         0.00016
       5 -> 43         0.00023
       5 -> 46         0.00013
       6 -> 26        -0.00136
       6 -> 35         0.00039
       7 -> 26        -0.00075
       7 -> 35        -0.00018
       8 -> 10        -0.00278
       8 -> 15         0.70483
       8 -> 18        -0.05502
       8 -> 23        -0.01345
       8 -> 28        -0.00036
       8 -> 34        -0.00153
       8 -> 36         0.00177
       8 -> 41        -0.00026
       8 -> 52        -0.00015
       3 <- 26         0.00086
       3 <- 35         0.00034
       4 <- 10         0.00019
       4 <- 18         0.00044
       4 <- 23         0.00013
       4 <- 28         0.00021
       4 <- 34        -0.00026
       4 <- 36         0.00031
       5 <- 11         0.00043
       5 <- 19         0.00024
       5 <- 22         0.00043
       5 <- 25         0.00062
       5 <- 31        -0.00021
       5 <- 38         0.00031
       5 <- 40        -0.00013
       5 <- 43         0.00022
       6 <- 26        -0.00127
       6 <- 35         0.00040
       7 <- 26        -0.00032
       7 <- 35        -0.00027
       7 <- 45        -0.00012
       8 <- 10         0.00083
       8 <- 15         0.00236
       8 <- 18         0.00342
       8 <- 23         0.00083
       8 <- 34        -0.00172
       8 <- 36         0.00060
       8 <- 41        -0.00018

 Excited State   6:      Singlet-A1     8.7230 eV  142.13 nm  f=0.0474  <S**2>=0.000
       3 ->  9        -0.00055
       3 -> 12         0.00016
       3 -> 13        -0.00053
       3 -> 16         0.00098
       3 -> 17         0.00050
       3 -> 20        -0.00029
       3 -> 21        -0.00059
       3 -> 24         0.00091
       3 -> 27        -0.00024
       3 -> 30        -0.00092
       3 -> 32        -0.00070
       3 -> 39        -0.00018
       3 -> 42        -0.00026
       3 -> 47         0.00028
       3 -> 48        -0.00027
       3 -> 51        -0.00021
       4 -> 11        -0.00091

 The electronic state is 1-A1.
 Alpha  occ. eigenvalues --  -19.49279 -10.73729  -1.17020  -1.03218  -1.00969
 Alpha  occ. eigenvalues --   -0.56426  -0.43586  -0.19498
 Alpha virt. eigenvalues --   -0.00567   0.02059   0.04442   0.04632   0.13705
 Alpha virt. eigenvalues --    0.16649   0.16781   0.18476   0.21027   0.22477
 Alpha virt. eigenvalues --    0.29699   0.36820   0.50302   0.56779   0.64138

 Mulliken charges:
               1
     1  C    0.120373
     2  H   -0.145687
     3  H   -0.145687
     4  O    0.171002
 Sum of Mulliken charges =  -0.00000

 Dipole moment (field-independent basis, Debye):
    X=              0.0000    Y=              0.0000    Z=              1.7933  Tot=              1.7933
 Quadrupole moment (field-independent basis, Debye-Ang):
   XX=             -9.8749   YY=            -14.6508   ZZ=            -13.8670
   XY=             -0.0000   XZ=             -0.0000   YZ=             -0.0000

 Normal termination of Gaussian 16 at Fri Sep 17 10:52:15 2021.
