 Gaussian 16, Revision A.03,
 Gaussian 16:  ES64L-G16RevA.03 25-Dec-2016

 --------------------------------------------------------------------
 #p B3LYP/6-311+G** #p TD=(singlets,nstates=30)IOp(6/8=3) IOp(9/40=4)
 --------------------------------------------------------------------

 ------------------------------
 Scan Step 16, Bond Length 0.58
 ------------------------------
 Symbolic Z-matrix:
 Charge =  0 Multiplicity = 1

                         Standard orientation:
 ---------------------------------------------------------------------
 Center     Atomic      Atomic             Coordinates (Angstroms)
 Number     Number       Type             X           Y           Z
 ---------------------------------------------------------------------
      1          6           0        0.000000   -0.000000   -0.216081
      2          1           0        0.000000    0.937260   -0.807431
      3          1           0       -0.000000   -0.937260   -0.807431
      4          8           0        0.000000    0.000000    0.363919
 ---------------------------------------------------------------------

 SCF Done:  E(RB3LYP) =  -111.139343801     A.U. after   10 cycles

 Excitation energies and oscillator strengths:

 Excited State   1:      Singlet-B2     4.4524 eV  278.47 nm  f=0.1442  <S**2>=0.000
       3 -> 11         0.00075
       3 -> 15         0.00106
       3 -> 19         0.00075
       3 -> 22         0.00091
       3 -> 25         0.00127
       3 -> 29         0.00012
       3 -> 31        -0.00029
       3 -> 40        -0.00043
       3 -> 43         0.00024
       3 -> 54         0.00016
       4 ->  9        -0.00254
       4 -> 12         0.00191
       4 -> 13         0.00301
       4 -> 16         0.00128
       4 -> 17         0.00194
       4 -> 20         0.00209
       4 -> 21         0.00155
       4 -> 24         0.00120
       4 -> 26        -0.00074
       4 -> 30         0.00140
       4 -> 32         0.00110
       4 -> 33        -0.00032
       4 -> 38        -0.00053
       4 -> 42         0.00045
       4 -> 44        -0.00025
       4 -> 47         0.00070
       4 -> 49        -0.00011
       4 -> 53         0.00015
       5 -> 28         0.00209
       5 -> 35         0.00094
       5 -> 45         0.00069
       6 -> 11        -0.00733
       6 -> 15         0.00275
       6 -> 19        -0.00107
       6 -> 22        -0.00011
       6 -> 25         0.00409
       6 -> 29         0.00090
       6 -> 31        -0.00069
       6 -> 40        -0.00015
       6 -> 43         0.00017
       6 -> 46         0.00029
       7 -> 11         0.00886
       7 -> 15         0.00449
       7 -> 19         0.00381
       7 -> 22         0.00058
       7 -> 25         0.00167
       7 -> 29        -0.00109
       7 -> 31         0.00101
       7 -> 37        -0.00064
       7 -> 43        -0.00034
       7 -> 46         0.00045
       7 -> 50         0.00042
       7 -> 54        -0.00014
       8 ->  9         0.70447
       8 -> 12        -0.00442
       8 -> 13         0.06087
       8 -> 16        -0.00530
       8 -> 17        -0.02345
       8 -> 20         0.00572
       8 -> 21         0.01130
       8 -> 24        -0.00042
       8 -> 26        -0.00093
       8 -> 30        -0.00348
       8 -> 32        -0.00208
       8 -> 33        -0.00017
       8 -> 38        -0.00101
       8 -> 39        -0.00018
       8 -> 42         0.00075
       8 -> 44         0.00050
       8 -> 47        -0.00059
       8 -> 49         0.00026
       3 <- 11         0.00037
       3 <- 15         0.00069
       3 <- 19         0.00046
       3 <- 22         0.00077
       3 <- 25         0.00097
       3 <- 31        -0.00031
       3 <- 40        -0.00043
       3 <- 43         0.00024
       3 <- 54         0.00017
       4 <-  9        -0.00100
       4 <- 12        -0.00015
       4 <- 13         0.00247
       4 <- 16         0.00143
       4 <- 17         0.00016
       4 <- 20         0.00136
       4 <- 21         0.00129
       4 <- 24         0.00075
       4 <- 26        -0.00129
       4 <- 30         0.00108
       4 <- 32         0.00051
       4 <- 38        -0.00035
       4 <- 39         0.00014
       4 <- 42         0.00035
       4 <- 44        -0.00021
       4 <- 47         0.00064
       5 <- 28         0.00180
       5 <- 35         0.00078
       5 <- 45         0.00059
       6 <- 11        -0.00222
       6 <- 15         0.00285
       6 <- 19        -0.00031
       6 <- 22         0.00042
       6 <- 25         0.00314
       6 <- 29         0.00050
       6 <- 31        -0.00062
       6 <- 37         0.00010
       6 <- 40        -0.00015
       6 <- 43         0.00014
       6 <- 46         0.00025
       7 <- 11         0.00219
       7 <- 15         0.00210
       7 <- 19         0.00092
       7 <- 22         0.00026
       7 <- 25         0.00091
       7 <- 29        -0.00171
       7 <- 31         0.00087
       7 <- 37        -0.00039
       7 <- 43        -0.00022
       7 <- 46         0.00048
       7 <- 50         0.00050
       8 <-  9        -0.01273
       8 <- 12        -0.00716
       8 <- 13         0.02500
       8 <- 16         0.00755
       8 <- 17         0.00019
       8 <- 20         0.00132
       8 <- 21         0.00602
       8 <- 24         0.00278
       8 <- 26        -0.00071
       8 <- 30        -0.00237
       8 <- 32        -0.00177
       8 <- 33        -0.00071
       8 <- 38        -0.00098
       8 <- 39        -0.00022
       8 <- 42         0.00069
       8 <- 44         0.00021
       8 <- 47        -0.00052
       8 <- 49         0.00016
 This state for optimization and/or second-order correction.
 Total Energy, E(TD-HF/TD-DFT) =  -110.975721814
 Copying the excited state density for this state as the 1-particle RhoCI density.

 Excited State   2:      Singlet-A2     4.8335 eV  256.51 nm  f=0.0000  <S**2>=0.000
       3 -> 28        -0.00194
       3 -> 35        -0.00103
       3 -> 45        -0.00031
       4 -> 10        -0.00077
       4 -> 14        -0.00066
       4 -> 18         0.00234
       4 -> 23        -0.00072
       4 -> 27        -0.00195
       4 -> 34         0.00024
       4 -> 36        -0.00107
       4 -> 48        -0.00015
       4 -> 52        -0.00021
       5 -> 11         0.00019
       5 -> 15        -0.00020
       5 -> 19         0.00031
       5 -> 22        -0.00069
       5 -> 25         0.00024
       5 -> 29         0.00034
       5 -> 37        -0.00031
       5 -> 40         0.00015
       5 -> 43        -0.00036
       5 -> 46        -0.00027
       5 -> 50         0.00017
       6 -> 28        -0.00314
       6 -> 35         0.00068
       6 -> 45         0.00016
       7 -> 28         0.00153
       7 -> 35        -0.00027
       7 -> 45        -0.00029
       8 -> 10         0.70665
       8 -> 14        -0.00541
       8 -> 18        -0.02560
       8 -> 23        -0.00365
       8 -> 27         0.00019
       8 -> 34         0.00345
       8 -> 36        -0.00150
       8 -> 41         0.00057
       8 -> 48         0.00015
       8 -> 52         0.00028
       3 <- 28        -0.00162
       3 <- 35        -0.00089
       3 <- 45        -0.00030
       4 <- 10        -0.00021
       4 <- 14         0.00031
       4 <- 18         0.00081
       4 <- 23        -0.00013
       4 <- 27        -0.00048
       4 <- 34         0.00064
       4 <- 36        -0.00064
       4 <- 41        -0.00011
       5 <- 11         0.00046
       5 <- 15        -0.00046
       5 <- 19         0.00105
       5 <- 22        -0.00086
       5 <- 25         0.00072
       5 <- 29         0.00120
       5 <- 31         0.00012
       5 <- 37        -0.00057
       5 <- 40         0.00011
       5 <- 43        -0.00040
       5 <- 46        -0.00030
       5 <- 54        -0.00018
       6 <- 28        -0.00306
       6 <- 35         0.00081
       6 <- 45         0.00014
       7 <- 28         0.00155
       7 <- 35        -0.00039
       7 <- 45        -0.00031
       8 <- 10         0.00278
       8 <- 14         0.00243
       8 <- 18         0.00740
       8 <- 23        -0.00015
       8 <- 27        -0.00080
       8 <- 34         0.00328
       8 <- 36        -0.00120
       8 <- 41         0.00032
       8 <- 52         0.00011

 Excited State   3:      Singlet-B2     5.5303 eV  224.19 nm  f=0.0383  <S**2>=0.000
       3 -> 11        -0.00024
       3 -> 15         0.00041
       3 -> 19        -0.00045
       3 -> 22         0.00026
       3 -> 25         0.00011
       3 -> 29        -0.00016
       3 -> 31         0.00013
       3 -> 37        -0.00016
       3 -> 40         0.00020
       3 -> 43        -0.00018
       3 -> 54        -0.00019
       4 ->  9         0.00091
       4 -> 12         0.00016
       4 -> 13         0.00089
       4 -> 16         0.00173
       4 -> 17        -0.00084
       4 -> 20        -0.00057
       4 -> 21         0.00093
       4 -> 24         0.00089
       4 -> 26         0.00019
       4 -> 30        -0.00205
       4 -> 32        -0.00015
       4 -> 38         0.00042
       4 -> 39        -0.00090
       4 -> 42        -0.00030
       4 -> 47        -0.00040
       5 -> 28        -0.00100
       5 -> 35        -0.00111
       5 -> 45        -0.00059
       6 -> 11        -0.00087
       6 -> 15         0.00391
       6 -> 19        -0.00201
       6 -> 22        -0.00025
       6 -> 25         0.00159
       6 -> 29         0.00218
       6 -> 31         0.00050
       6 -> 37         0.00050
       6 -> 40         0.00040
       6 -> 43         0.00028
       6 -> 46        -0.00023
       6 -> 50        -0.00021
       6 -> 54         0.00014
       7 -> 11        -0.00115
       7 -> 15        -0.00400
       7 -> 19        -0.00107
       7 -> 25        -0.00293
       7 -> 29        -0.00106
       7 -> 31        -0.00046
       7 -> 37         0.00052
       7 -> 40         0.00013
       7 -> 46        -0.00057
       7 -> 50        -0.00026
       7 -> 54         0.00017
       8 ->  9         0.00169
       8 -> 12         0.70544
       8 -> 13         0.04038
       8 -> 16         0.02512
       8 -> 17         0.00353
       8 -> 20         0.01563
       8 -> 21         0.00540
       8 -> 24        -0.00100
       8 -> 26         0.00203
       8 -> 30        -0.00307
       8 -> 32         0.00049
       8 -> 33        -0.00019
       8 -> 38        -0.00078
       8 -> 39         0.00134
       8 -> 42         0.00093
       8 -> 44        -0.00016
       8 -> 47         0.00023
       8 -> 51        -0.00011
       8 -> 53         0.00013
       3 <- 15         0.00034
       3 <- 19        -0.00017
       3 <- 22         0.00012
       3 <- 25         0.00022
       3 <- 31         0.00014
       3 <- 37        -0.00018
       3 <- 40         0.00017
       3 <- 43        -0.00017
       3 <- 54        -0.00023
       4 <-  9        -0.00101
       4 <- 12        -0.00020
       4 <- 13         0.00100
       4 <- 16         0.00065
       4 <- 17         0.00049
       4 <- 20        -0.00038
       4 <- 21         0.00065
       4 <- 24         0.00095
       4 <- 26         0.00031
       4 <- 30        -0.00140
       4 <- 32        -0.00010
       4 <- 33        -0.00052
       4 <- 38         0.00028
       4 <- 39        -0.00065
       4 <- 42        -0.00032
       4 <- 47        -0.00037
       5 <- 28        -0.00063
       5 <- 35        -0.00098
       5 <- 45        -0.00053
       6 <- 11        -0.00074
       6 <- 15         0.00080
       6 <- 19         0.00012
       6 <- 22        -0.00056
       6 <- 25         0.00151
       6 <- 29         0.00169
       6 <- 31         0.00068
       6 <- 37         0.00048
       6 <- 40         0.00032
       6 <- 43         0.00022
       6 <- 46        -0.00019
       6 <- 50        -0.00015
       6 <- 54         0.00012
       7 <- 11         0.00033
       7 <- 15        -0.00134
       7 <- 19        -0.00054
       7 <- 25        -0.00180
       7 <- 29        -0.00027
       7 <- 31        -0.00035
       7 <- 37         0.00019
       7 <- 46        -0.00050
       7 <- 50        -0.00034
       8 <-  9        -0.00657
       8 <- 12         0.00070
       8 <- 13         0.01256
       8 <- 16         0.00482
       8 <- 17        -0.00165
       8 <- 20        -0.00326
       8 <- 21         0.00322
       8 <- 24         0.00057
       8 <- 30        -0.00244
       8 <- 32         0.00050
       8 <- 33        -0.00025
       8 <- 38        -0.00063
       8 <- 39         0.00124
       8 <- 42         0.00080
       8 <- 44        -0.00012
       8 <- 47         0.00020

 Excited State   4:      Singlet-A1     5.7663 eV  215.02 nm  f=0.0005  <S**2>=0.000
       3 ->  9         0.00158
       3 -> 12        -0.00033
       3 -> 13         0.00017
       3 -> 16        -0.00102
       3 -> 17        -0.00179
       3 -> 20        -0.00014
       3 -> 21         0.00102
       3 -> 24        -0.00108
       3 -> 26        -0.00037
       3 -> 30         0.00066
       3 -> 32        -0.00065
       3 -> 33         0.00082
       3 -> 38         0.00052
       3 -> 39         0.00033
       3 -> 44        -0.00019
       3 -> 51        -0.00013
       3 -> 53        -0.00015
       4 -> 11        -0.00549
       4 -> 15        -0.00497
       4 -> 19        -0.00479
       4 -> 22        -0.00273
       4 -> 25        -0.00320
       4 -> 29        -0.00067
       4 -> 37        -0.00089
       4 -> 40        -0.00014
       4 -> 43         0.00018
       4 -> 46        -0.00012
       5 -> 10        -0.00229
       5 -> 14        -0.00395
       5 -> 18         0.00068
       5 -> 23         0.00373
       5 -> 27        -0.00031
       5 -> 34        -0.00070
       5 -> 36        -0.00057
       5 -> 48         0.00011
       6 ->  9         0.01082
       6 -> 12         0.00749
       6 -> 13        -0.00327
       6 -> 16        -0.00622
       6 -> 17        -0.00585
       6 -> 20         0.00385
       6 -> 21         0.00260
       6 -> 24        -0.00512
       6 -> 26         0.00181
       6 -> 30        -0.00041
       6 -> 32         0.00313
       6 -> 33         0.00124
       6 -> 38         0.00172
       6 -> 39        -0.00109
       6 -> 42        -0.00030
       6 -> 44         0.00088
       6 -> 47         0.00020
       6 -> 49        -0.00038
       6 -> 51        -0.00014
       7 ->  9         0.01008
       7 -> 12        -0.01195
       7 -> 13        -0.00092
       7 -> 16         0.00605
       7 -> 17        -0.00930
       7 -> 20        -0.00331
       7 -> 21        -0.00202
       7 -> 26        -0.00401
       7 -> 30        -0.00099
       7 -> 32        -0.00122
       7 -> 33         0.00084
       7 -> 38        -0.00099
       7 -> 39         0.00036
       7 -> 42         0.00016
       7 -> 44        -0.00025
       7 -> 51         0.00012
       7 -> 53         0.00013
       8 -> 11         0.70435
       8 -> 15         0.05677
       8 -> 19        -0.02315
       8 -> 22        -0.00139
       8 -> 25         0.00995
       8 -> 29        -0.00262
       8 -> 31         0.00223
       8 -> 37        -0.00360
       8 -> 40        -0.00077
       8 -> 43         0.00189
       8 -> 46        -0.00115
       8 -> 50         0.00024
       3 <-  9         0.00098
       3 <- 12        -0.00014
       3 <- 13         0.00015
       3 <- 16        -0.00069
       3 <- 17        -0.00116
       3 <- 21         0.00075
       3 <- 24        -0.00081
       3 <- 26        -0.00029
       3 <- 30         0.00053
       3 <- 32        -0.00046
       3 <- 33         0.00065
       3 <- 38         0.00042
       3 <- 39         0.00027
       3 <- 44        -0.00016
       3 <- 47         0.00010
       3 <- 51        -0.00012
       3 <- 53        -0.00013
       4 <- 11        -0.00248
       4 <- 15        -0.00216
       4 <- 19        -0.00289
       4 <- 22        -0.00191
       4 <- 25        -0.00186
       4 <- 29        -0.00050
       4 <- 37        -0.00074
       4 <- 40        -0.00014
       4 <- 43         0.00018
       5 <- 10        -0.00140
       5 <- 14        -0.00250
       5 <- 18         0.00045
       5 <- 23         0.00271
       5 <- 27        -0.00023
       5 <- 34        -0.00059
       5 <- 36        -0.00049
       6 <-  9         0.00820
       6 <- 12         0.00379
       6 <- 13        -0.00279
       6 <- 16        -0.00460
       6 <- 17        -0.00305
       6 <- 20         0.00197
       6 <- 21         0.00267
       6 <- 24        -0.00351
       6 <- 26         0.00128
       6 <- 32         0.00235
       6 <- 33         0.00086
       6 <- 38         0.00161
       6 <- 39        -0.00078
       6 <- 42        -0.00028
       6 <- 44         0.00083
       6 <- 47         0.00012
       6 <- 49        -0.00034
       6 <- 51        -0.00013
       7 <-  9         0.00111
       7 <- 12        -0.00480
       7 <- 13         0.00058
       7 <- 16         0.00397
       7 <- 17        -0.00449
       7 <- 20        -0.00141
       7 <- 21        -0.00170
       7 <- 24         0.00018
       7 <- 26        -0.00276
       7 <- 30        -0.00085
       7 <- 32        -0.00094
       7 <- 33         0.00064
       7 <- 38        -0.00086
       7 <- 39         0.00015
       7 <- 44        -0.00025
       7 <- 51         0.00010
       7 <- 53         0.00012
       8 <- 11        -0.01428
       8 <- 15         0.00511
       8 <- 19        -0.01689
       8 <- 22        -0.00459
       8 <- 25         0.00546
       8 <- 29        -0.00210
       8 <- 31         0.00204
       8 <- 37        -0.00292
       8 <- 40        -0.00040
       8 <- 43         0.00154
       8 <- 46        -0.00106
       8 <- 50         0.00024

 Excited State   5:      Singlet-A2     8.4668 eV  146.44 nm  f=0.0000  <S**2>=0.000
       3 -> 28         0.00206
       3 -> 35         0.00113
       3 -> 45         0.00030
       4 -> 10        -0.00086
       4 -> 14        -0.00451
       4 -> 18        -0.00171
       4 -> 23         0.00266
       4 -> 27         0.00030
       4 -> 34         0.00037
       4 -> 36         0.00165
       4 -> 41        -0.00028
       4 -> 52         0.00013
       5 -> 19        -0.00042
       5 -> 22         0.00088
       5 -> 25        -0.00066
       5 -> 29        -0.00017
       5 -> 37         0.00032
       5 -> 40        -0.00016
       5 -> 43         0.00046
       5 -> 46         0.00028
       5 -> 50        -0.00010
       6 -> 28         0.00222
       6 -> 35        -0.00063
       7 -> 28        -0.00130
       7 -> 35         0.00015
       7 -> 45         0.00024
       8 -> 10         0.00791
       8 -> 14         0.70309
       8 -> 18         0.07304
       8 -> 23        -0.01625
       8 -> 27        -0.00143
       8 -> 34        -0.00245
       8 -> 36         0.00244
       8 -> 41        -0.00026
       8 -> 52        -0.00026
       3 <- 28         0.00147
       3 <- 35         0.00090
       3 <- 45         0.00032
       4 <- 10         0.00028
       4 <- 14        -0.00030
       4 <- 18        -0.00064
       4 <- 23         0.00021
       4 <- 27         0.00031
       4 <- 34        -0.00048
       4 <- 36         0.00065
       4 <- 41         0.00012
       5 <- 11         0.00044
       5 <- 22         0.00095
       5 <- 25        -0.00109
       5 <- 29        -0.00020
       5 <- 31        -0.00037
       5 <- 37         0.00072
       5 <- 43         0.00047
       5 <- 54         0.00014
       6 <- 28         0.00228
       6 <- 35        -0.00060
       6 <- 45        -0.00016
       7 <- 28        -0.00103
       8 <- 10         0.00306
       8 <- 14        -0.00025
       8 <- 18        -0.00461
       8 <- 23         0.00082
       8 <- 27         0.00032
       8 <- 34        -0.00270
       8 <- 36         0.00112
       8 <- 41        -0.00024
       8 <- 52        -0.00011

 Excited State   6:      Singlet-B2     8.7675 eV  141.41 nm  f=0.1297  <S**2>=0.000

 The electronic state is 1-A1.
 Alpha  occ. eigenvalues --  -19.31074 -10.49120  -1.24150  -0.91241  -0.88680
 Alpha  occ. eigenvalues --   -0.57892  -0.51143  -0.19559
 Alpha virt. eigenvalues --    0.00101   0.02467   0.04426   0.04706   0.14117
 Alpha virt. eigenvalues --    0.16374   0.17450   0.18164   0.21864   0.22031
 Alpha virt. eigenvalues --    0.28731   0.36663   0.50616   0.57450   0.61935

 Mulliken charges:
               1
     1  C    0.180610
     2  H   -0.132426
     3  H   -0.132426
     4  O    0.084242
 Sum of Mulliken charges =  -0.00000

 Dipole moment (field-independent basis, Debye):
    X=              0.0000    Y=              0.0000    Z=              1.6581  Tot=              1.6581
 Quadrupole moment (field-independent basis, Debye-Ang):
   XX=            -10.0181   YY=            -14.3090   ZZ=            -13.7374
   XY=             -0.0000   XZ=             -0.0000   YZ=             -0.0000

 Normal termination of Gaussian 16 at Fri Sep 17 10:52:16 2021.
