 Gaussian 16, Revision A.03,
 Gaussian 16:  ES64L-G16RevA.03 25-Dec-2016

 --------------------------------------------------------------------
 #p B3LYP/6-311+G** #p TD=(singlets,nstates=30)IOp(6/8=3) IOp(9/40=4)
 --------------------------------------------------------------------

 ------------------------------
 Scan Step 24, Bond Length 0.62
 ------------------------------
 Symbolic Z-matrix:
 Charge =  0 Multiplicity = 1

                         Standard orientation:
 ---------------------------------------------------------------------
 Center     Atomic      Atomic             Coordinates (Angstroms)
 Number     Number       Type             X           Y           Z
 ---------------------------------------------------------------------
      1          6           0        0.000000    0.000000   -0.236081
      2          1           0        0.000000    0.937260   -0.827431
      3          1           0       -0.000000   -0.937260   -0.827431
      4          8           0        0.000000   -0.000000    0.383919
 ---------------------------------------------------------------------

 SCF Done:  E(RB3LYP) =  -111.943309858     A.U. after   10 cycles

 Excitation energies and oscillator strengths:

 Excited State   1:      Singlet-B2     4.5983 eV  269.63 nm  f=0.1353  <S**2>=0.000
       3 -> 11         0.00075
       3 -> 15         0.00082
       3 -> 19         0.00075
       3 -> 22         0.00067
       3 -> 24         0.00111
       3 -> 29         0.00016
       3 -> 31        -0.00024
       3 -> 40        -0.00032
       3 -> 43         0.00023
       3 -> 54         0.00016
       4 ->  9        -0.00270
       4 -> 12         0.00232
       4 -> 13         0.00321
       4 -> 16         0.00139
       4 -> 18         0.00231
       4 -> 20         0.00210
       4 -> 21         0.00160
       4 -> 25         0.00134
       4 -> 26        -0.00077
       4 -> 30         0.00115
       4 -> 32         0.00132
       4 -> 38        -0.00059
       4 -> 42         0.00046
       4 -> 44        -0.00027
       4 -> 47         0.00074
       4 -> 49        -0.00011
       4 -> 53        -0.00012
       5 -> 28         0.00198
       5 -> 35         0.00090
       5 -> 45         0.00074
       6 -> 11        -0.00580
       6 -> 15         0.00336
       6 -> 22        -0.00030
       6 -> 24         0.00445
       6 -> 29         0.00075
       6 -> 31        -0.00066
       6 -> 40        -0.00013
       6 -> 43         0.00015
       6 -> 46         0.00034
       7 -> 11         0.00893
       7 -> 15         0.00381
       7 -> 19         0.00345
       7 -> 22         0.00035
       7 -> 24         0.00090
       7 -> 29        -0.00118
       7 -> 31         0.00098
       7 -> 37        -0.00067
       7 -> 43        -0.00038
       7 -> 46         0.00041
       7 -> 50         0.00042
       7 -> 54        -0.00012
       8 ->  9         0.70485
       8 -> 12        -0.00193
       8 -> 13         0.05549
       8 -> 16        -0.00523
       8 -> 18        -0.02276
       8 -> 20         0.00544
       8 -> 21         0.01083
       8 -> 25        -0.00028
       8 -> 26        -0.00069
       8 -> 30        -0.00336
       8 -> 32        -0.00196
       8 -> 33        -0.00080
       8 -> 38        -0.00108
       8 -> 42         0.00076
       8 -> 44         0.00042
       8 -> 47        -0.00067
       8 -> 49         0.00027
       3 <- 11         0.00035
       3 <- 15         0.00047
       3 <- 19         0.00048
       3 <- 22         0.00056
       3 <- 24         0.00084
       3 <- 31        -0.00026
       3 <- 40        -0.00032
       3 <- 43         0.00023
       3 <- 54         0.00017
       4 <-  9        -0.00111
       4 <- 12        -0.00019
       4 <- 13         0.00264
       4 <- 16         0.00162
       4 <- 18         0.00035
       4 <- 20         0.00130
       4 <- 21         0.00130
       4 <- 25         0.00095
       4 <- 26        -0.00132
       4 <- 30         0.00087
       4 <- 32         0.00057
       4 <- 33         0.00014
       4 <- 38        -0.00039
       4 <- 39         0.00014
       4 <- 42         0.00037
       4 <- 44        -0.00022
       4 <- 47         0.00067
       5 <- 28         0.00168
       5 <- 35         0.00073
       5 <- 45         0.00063
       6 <- 11        -0.00147
       6 <- 15         0.00310
       6 <- 19         0.00027
       6 <- 22         0.00027
       6 <- 24         0.00333
       6 <- 29         0.00027
       6 <- 31        -0.00058
       6 <- 37         0.00015
       6 <- 40        -0.00012
       6 <- 43         0.00012
       6 <- 46         0.00031
       6 <- 50         0.00014
       7 <- 11         0.00211
       7 <- 15         0.00161
       7 <- 19         0.00064
       7 <- 24         0.00024
       7 <- 29        -0.00171
       7 <- 31         0.00081
       7 <- 37        -0.00042
       7 <- 43        -0.00025
       7 <- 46         0.00044
       7 <- 50         0.00049
       8 <-  9        -0.01074
       8 <- 12        -0.00638
       8 <- 13         0.02282
       8 <- 16         0.00711
       8 <- 18         0.00093
       8 <- 20         0.00094
       8 <- 21         0.00563
       8 <- 25         0.00294
       8 <- 26        -0.00040
       8 <- 30        -0.00225
       8 <- 32        -0.00146
       8 <- 33        -0.00122
       8 <- 38        -0.00104
       8 <- 42         0.00067
       8 <- 44         0.00014
       8 <- 47        -0.00058
       8 <- 49         0.00017
 This state for optimization and/or second-order correction.
 Total Energy, E(TD-HF/TD-DFT) =  -111.774324929
 Copying the excited state density for this state as the 1-particle RhoCI density.

 Excited State   2:      Singlet-A2     4.9596 eV  249.99 nm  f=0.0000  <S**2>=0.000
       3 -> 28        -0.00185
       3 -> 35        -0.00106
       3 -> 45        -0.00034
       4 -> 10        -0.00079
       4 -> 14        -0.00015
       4 -> 17         0.00288
       4 -> 23        -0.00108
       4 -> 27        -0.00206
       4 -> 34         0.00017
       4 -> 36        -0.00122
       4 -> 48        -0.00014
       4 -> 52        -0.00023
       5 -> 11         0.00023
       5 -> 15        -0.00019
       5 -> 19         0.00033
       5 -> 22        -0.00078
       5 -> 24         0.00025
       5 -> 29         0.00030
       5 -> 37        -0.00031
       5 -> 40         0.00013
       5 -> 43        -0.00037
       5 -> 46        -0.00030
       5 -> 50         0.00018
       6 -> 28        -0.00311
       6 -> 35         0.00055
       7 -> 28         0.00168
       7 -> 35        -0.00035
       7 -> 45        -0.00036
       8 -> 10         0.70650
       8 -> 14        -0.01330
       8 -> 17        -0.02681
       8 -> 23        -0.00358
       8 -> 27         0.00076
       8 -> 34         0.00333
       8 -> 36        -0.00169
       8 -> 41         0.00043
       8 -> 48         0.00015
       8 -> 52         0.00031
       3 <- 28        -0.00154
       3 <- 35        -0.00092
       3 <- 45        -0.00033
       4 <- 10        -0.00019
       4 <- 14         0.00048
       4 <- 17         0.00080
       4 <- 23        -0.00014
       4 <- 27        -0.00044
       4 <- 34         0.00069
       4 <- 36        -0.00071
       4 <- 41        -0.00017
       5 <- 11         0.00052
       5 <- 15        -0.00050
       5 <- 19         0.00123
       5 <- 22        -0.00102
       5 <- 24         0.00090
       5 <- 29         0.00126
       5 <- 31         0.00015
       5 <- 37        -0.00063
       5 <- 43        -0.00041
       5 <- 46        -0.00032
       5 <- 54        -0.00020
       6 <- 28        -0.00301
       6 <- 35         0.00068
       7 <- 28         0.00171
       7 <- 35        -0.00047
       7 <- 45        -0.00037
       8 <- 10         0.00233
       8 <- 14         0.00370
       8 <- 17         0.00693
       8 <- 23        -0.00017
       8 <- 27        -0.00066
       8 <- 34         0.00318
       8 <- 36        -0.00135
       8 <- 41         0.00025
       8 <- 52         0.00012

 Excited State   3:      Singlet-B2     5.6123 eV  220.92 nm  f=0.0366  <S**2>=0.000
       3 -> 11        -0.00019
       3 -> 15         0.00043
       3 -> 19        -0.00037
       3 -> 22         0.00029
       3 -> 24         0.00022
       3 -> 29        -0.00026
       3 -> 31         0.00012
       3 -> 37        -0.00018
       3 -> 40         0.00015
       3 -> 43        -0.00019
       3 -> 46         0.00011
       3 -> 54        -0.00018
       4 ->  9         0.00124
       4 -> 12         0.00024
       4 -> 13         0.00103
       4 -> 16         0.00203
       4 -> 18        -0.00101
       4 -> 20        -0.00057
       4 -> 21         0.00106
       4 -> 25         0.00088
       4 -> 26         0.00036
       4 -> 30        -0.00213
       4 -> 32        -0.00026
       4 -> 38         0.00035
       4 -> 39        -0.00094
       4 -> 42        -0.00030
       4 -> 47        -0.00045
       5 -> 28        -0.00100
       5 -> 35        -0.00116
       5 -> 45        -0.00063
       6 -> 11        -0.00078
       6 -> 15         0.00360
       6 -> 19        -0.00195
       6 -> 22        -0.00013
       6 -> 24         0.00157
       6 -> 29         0.00197
       6 -> 31         0.00043
       6 -> 37         0.00058
       6 -> 40         0.00042
       6 -> 43         0.00028
       6 -> 46        -0.00030
       6 -> 50        -0.00024
       6 -> 54         0.00015
       7 -> 11        -0.00151
       7 -> 15        -0.00434
       7 -> 19        -0.00100
       7 -> 22         0.00028
       7 -> 24        -0.00315
       7 -> 29        -0.00116
       7 -> 31        -0.00049
       7 -> 37         0.00049
       7 -> 46        -0.00055
       7 -> 50        -0.00026
       7 -> 54         0.00014
       8 ->  9        -0.00019
       8 -> 12         0.70556
       8 -> 13         0.03650
       8 -> 16         0.02647
       8 -> 18         0.00591
       8 -> 20         0.01571
       8 -> 21         0.00547
       8 -> 25        -0.00095
       8 -> 26         0.00195
       8 -> 30        -0.00284
       8 -> 32         0.00054
       8 -> 33        -0.00018
       8 -> 38        -0.00061
       8 -> 39         0.00141
       8 -> 42         0.00089
       8 -> 44        -0.00012
       8 -> 47         0.00032
       8 -> 53        -0.00016
       3 <- 15         0.00039
       3 <- 19        -0.00012
       3 <- 22         0.00015
       3 <- 24         0.00030
       3 <- 29        -0.00012
       3 <- 31         0.00013
       3 <- 37        -0.00020
       3 <- 40         0.00012
       3 <- 43        -0.00018
       3 <- 54        -0.00023
       4 <-  9        -0.00110
       4 <- 12        -0.00019
       4 <- 13         0.00112
       4 <- 16         0.00067
       4 <- 18         0.00056
       4 <- 20        -0.00041
       4 <- 21         0.00073
       4 <- 25         0.00097
       4 <- 26         0.00046
       4 <- 30        -0.00143
       4 <- 33        -0.00055
       4 <- 38         0.00023
       4 <- 39        -0.00069
       4 <- 42        -0.00032
       4 <- 47        -0.00042
       5 <- 28        -0.00062
       5 <- 35        -0.00101
       5 <- 45        -0.00056
       6 <- 11        -0.00057
       6 <- 15         0.00073
       6 <- 19         0.00018
       6 <- 22        -0.00056
       6 <- 24         0.00145
       6 <- 29         0.00154
       6 <- 31         0.00061
       6 <- 37         0.00054
       6 <- 40         0.00035
       6 <- 43         0.00021
       6 <- 46        -0.00025
       6 <- 50        -0.00019
       6 <- 54         0.00011
       7 <- 11         0.00021
       7 <- 15        -0.00142
       7 <- 19        -0.00057
       7 <- 22         0.00021
       7 <- 24        -0.00190
       7 <- 29        -0.00033
       7 <- 31        -0.00040
       7 <- 37         0.00016
       7 <- 46        -0.00049
       7 <- 50        -0.00035
       8 <-  9        -0.00585
       8 <- 12         0.00084
       8 <- 13         0.01195
       8 <- 16         0.00473
       8 <- 18        -0.00129
       8 <- 20        -0.00318
       8 <- 21         0.00329
       8 <- 25         0.00062
       8 <- 30        -0.00233
       8 <- 32         0.00054
       8 <- 33        -0.00015
       8 <- 38        -0.00044
       8 <- 39         0.00127
       8 <- 42         0.00077
       8 <- 47         0.00026

 Excited State   4:      Singlet-A1     5.8134 eV  213.27 nm  f=0.0030  <S**2>=0.000
       3 ->  9         0.00139
       3 -> 12        -0.00042
       3 -> 13         0.00021
       3 -> 16        -0.00083
       3 -> 18        -0.00163
       3 -> 20        -0.00015
       3 -> 21         0.00091
       3 -> 25        -0.00083
       3 -> 26        -0.00034
       3 -> 30         0.00066
       3 -> 32        -0.00081
       3 -> 33         0.00054
       3 -> 38         0.00042
       3 -> 39         0.00033
       3 -> 44        -0.00014
       3 -> 47         0.00011
       3 -> 51         0.00019
       4 -> 11        -0.00580
       4 -> 15        -0.00559
       4 -> 19        -0.00473
       4 -> 22        -0.00261
       4 -> 24        -0.00324
       4 -> 29        -0.00019
       4 -> 37        -0.00097
       4 -> 40        -0.00014
       4 -> 43         0.00022
       4 -> 46        -0.00010
       4 -> 50         0.00013
       5 -> 10        -0.00280
       5 -> 14        -0.00386
       5 -> 17         0.00173
       5 -> 23         0.00358
       5 -> 27        -0.00066
       5 -> 34        -0.00081
       5 -> 36        -0.00059
       5 -> 48         0.00015
       6 ->  9         0.01145
       6 -> 12         0.00628
       6 -> 13        -0.00360
       6 -> 16        -0.00493
       6 -> 18        -0.00707
       6 -> 20         0.00399
       6 -> 21         0.00191
       6 -> 25        -0.00541
       6 -> 26         0.00113
       6 -> 30        -0.00039
       6 -> 32         0.00206
       6 -> 33         0.00199
       6 -> 38         0.00144
       6 -> 39        -0.00110
       6 -> 42        -0.00021
       6 -> 44         0.00073
       6 -> 47         0.00014
       6 -> 49        -0.00041
       7 ->  9         0.00753
       7 -> 12        -0.01239
       7 -> 13         0.00049
       7 -> 16         0.00599
       7 -> 18        -0.00761
       7 -> 20        -0.00382
       7 -> 21        -0.00140
       7 -> 25         0.00124
       7 -> 26        -0.00363
       7 -> 30        -0.00084
       7 -> 32        -0.00176
       7 -> 33         0.00024
       7 -> 38        -0.00092
       7 -> 39         0.00053
       7 -> 42         0.00017
       7 -> 44        -0.00036
       7 -> 51        -0.00017
       8 -> 11         0.70453
       8 -> 15         0.05504
       8 -> 19        -0.02129
       8 -> 22        -0.00105
       8 -> 24         0.00852
       8 -> 29        -0.00333
       8 -> 31         0.00210
       8 -> 37        -0.00345
       8 -> 40        -0.00053
       8 -> 43         0.00188
       8 -> 46        -0.00104
       8 -> 50         0.00022
       3 <-  9         0.00081
       3 <- 12        -0.00020
       3 <- 13         0.00017
       3 <- 16        -0.00054
       3 <- 18        -0.00106
       3 <- 20        -0.00011
       3 <- 21         0.00064
       3 <- 25        -0.00063
       3 <- 26        -0.00027
       3 <- 30         0.00052
       3 <- 32        -0.00057
       3 <- 33         0.00045
       3 <- 38         0.00033
       3 <- 39         0.00027
       3 <- 44        -0.00013
       3 <- 47         0.00013
       3 <- 51         0.00016
       4 <- 11        -0.00249
       4 <- 15        -0.00237
       4 <- 19        -0.00278
       4 <- 22        -0.00185
       4 <- 24        -0.00182
       4 <- 29        -0.00017
       4 <- 37        -0.00082
       4 <- 40        -0.00013
       4 <- 43         0.00021
       4 <- 50         0.00012
       5 <- 10        -0.00163
       5 <- 14        -0.00234
       5 <- 17         0.00109
       5 <- 23         0.00254
       5 <- 27        -0.00049
       5 <- 34        -0.00067
       5 <- 36        -0.00050
       5 <- 48         0.00014
       6 <-  9         0.00818
       6 <- 12         0.00324
       6 <- 13        -0.00291
       6 <- 16        -0.00384
       6 <- 18        -0.00379
       6 <- 20         0.00217
       6 <- 21         0.00213
       6 <- 25        -0.00368
       6 <- 26         0.00076
       6 <- 32         0.00153
       6 <- 33         0.00143
       6 <- 38         0.00139
       6 <- 39        -0.00083
       6 <- 42        -0.00020
       6 <- 44         0.00070
       6 <- 49        -0.00035
       7 <- 12        -0.00511
       7 <- 13         0.00134
       7 <- 16         0.00409
       7 <- 18        -0.00363
       7 <- 20        -0.00177
       7 <- 21        -0.00137
       7 <- 25         0.00092
       7 <- 26        -0.00245
       7 <- 30        -0.00080
       7 <- 32        -0.00134
       7 <- 33         0.00019
       7 <- 38        -0.00082
       7 <- 39         0.00029
       7 <- 44        -0.00036
       7 <- 47        -0.00011
       7 <- 51        -0.00015
       8 <- 11        -0.01213
       8 <- 15         0.00517
       8 <- 19        -0.01622
       8 <- 22        -0.00437
       8 <- 24         0.00422
       8 <- 29        -0.00251
       8 <- 31         0.00191
       8 <- 37        -0.00277
       8 <- 40        -0.00023
       8 <- 43         0.00152
       8 <- 46        -0.00098
       8 <- 50         0.00022

 Excited State   5:      Singlet-A2     8.3337 eV  148.77 nm  f=0.0000  <S**2>=0.000
       3 -> 28         0.00241
       3 -> 35         0.00145
       3 -> 45         0.00044
       4 -> 10        -0.00037
       4 -> 14        -0.00581
       4 -> 17        -0.00178
       4 -> 23         0.00308
       4 -> 27         0.00052
       4 -> 34         0.00062
       4 -> 36         0.00215
       4 -> 41        -0.00016
       4 -> 52         0.00023
       5 -> 15        -0.00021
       5 -> 19        -0.00047
       5 -> 22         0.00115
       5 -> 24        -0.00072
       5 -> 29        -0.00011
       5 -> 37         0.00039
       5 -> 40        -0.00017
       5 -> 43         0.00056
       5 -> 46         0.00038
       5 -> 50        -0.00012
       5 -> 54         0.00011
       6 -> 28         0.00257
       6 -> 35        -0.00064
       7 -> 28        -0.00151
       7 -> 35         0.00034
       7 -> 45         0.00038
       8 -> 10         0.01582
       8 -> 14         0.70307
       8 -> 17         0.07136
       8 -> 23        -0.01813
       8 -> 27        -0.00207
       8 -> 34        -0.00274
       8 -> 36         0.00272
       8 -> 41        -0.00020
       8 -> 52        -0.00033
       3 <- 28         0.00168
       3 <- 35         0.00118
       3 <- 45         0.00048
       4 <- 10         0.00031
       4 <- 14        -0.00052
       4 <- 17        -0.00063
       4 <- 23         0.00023
       4 <- 27         0.00030
       4 <- 34        -0.00058
       4 <- 36         0.00084
       4 <- 41         0.00021
       5 <- 11         0.00041
       5 <- 15        -0.00013
       5 <- 19        -0.00028
       5 <- 22         0.00133
       5 <- 24        -0.00136
       5 <- 29        -0.00034
       5 <- 31        -0.00047
       5 <- 37         0.00095
       5 <- 43         0.00061
       5 <- 46         0.00012
       5 <- 54         0.00022
       6 <- 28         0.00267
       6 <- 35        -0.00059
       6 <- 45        -0.00013
       7 <- 28        -0.00138
       7 <- 45         0.00020
       8 <- 10         0.00423
       8 <- 14        -0.00188
       8 <- 17        -0.00464
       8 <- 23         0.00080
       8 <- 27         0.00043
       8 <- 34        -0.00302
       8 <- 36         0.00141
       8 <- 41        -0.00024
       8 <- 52        -0.00014

 Excited State   6:      Singlet-B2     8.8419 eV  140.22 nm  f=0.1064  <S**2>=0.000
       3 -> 11         0.00051

 The electronic state is 1-A1.
 Alpha  occ. eigenvalues --  -19.24787 -10.39905  -1.28253  -0.85438  -0.82668
 Alpha  occ. eigenvalues --   -0.58252  -0.53080  -0.19867
 Alpha virt. eigenvalues --    0.00433   0.02643   0.04426   0.04703   0.14266
 Alpha virt. eigenvalues --    0.15804   0.17922   0.17972   0.21830   0.22507
 Alpha virt. eigenvalues --    0.28033   0.36609   0.50689   0.57549   0.60324

 Mulliken charges:
               1
     1  C    0.243010
     2  H   -0.119338
     3  H   -0.119338
     4  O   -0.004333
 Sum of Mulliken charges =  -0.00000

 Dipole moment (field-independent basis, Debye):
    X=              0.0000    Y=              0.0000    Z=              1.4659  Tot=              1.4659
 Quadrupole moment (field-independent basis, Debye-Ang):
   XX=            -10.1050   YY=            -14.0301   ZZ=            -13.6979
   XY=             -0.0000   XZ=             -0.0000   YZ=             -0.0000

 Normal termination of Gaussian 16 at Fri Sep 17 10:52:24 2021.
