 Gaussian 16, Revision A.03,
 Gaussian 16:  ES64L-G16RevA.03 25-Dec-2016

 --------------------------------------------------------------------
 #p B3LYP/6-311+G** #p TD=(singlets,nstates=30)IOp(6/8=3) IOp(9/40=4)
 --------------------------------------------------------------------

 ------------------------------
 Scan Step 58, Bond Length 0.79
 ------------------------------
 Symbolic Z-matrix:
 Charge =  0 Multiplicity = 1

                         Standard orientation:
 ---------------------------------------------------------------------
 Center     Atomic      Atomic             Coordinates (Angstroms)
 Number     Number       Type             X           Y           Z
 ---------------------------------------------------------------------
      1          6           0        0.000000    0.000000   -0.321081
      2          1           0        0.000000    0.937260   -0.912431
      3          1           0       -0.000000   -0.937260   -0.912431
      4          8           0        0.000000   -0.000000    0.468919
 ---------------------------------------------------------------------

 SCF Done:  E(RB3LYP) =  -113.781533324     A.U. after    9 cycles

 Excitation energies and oscillator strengths:

 Excited State   1:      Singlet-B2     5.4113 eV  229.12 nm  f=0.1034  <S**2>=0.000
       3 -> 11        -0.00079
       3 -> 16        -0.00041
       3 -> 18        -0.00086
       3 -> 23        -0.00017
       3 -> 24        -0.00104
       3 -> 29         0.00022
       3 -> 40        -0.00011
       3 -> 42        -0.00018
       3 -> 50         0.00014
       3 -> 53        -0.00012
       4 ->  9         0.00265
       4 -> 12        -0.00487
       4 -> 14        -0.00441
       4 -> 15        -0.00164
       4 -> 19        -0.00351
       4 -> 20        -0.00167
       4 -> 21        -0.00220
       4 -> 25        -0.00147
       4 -> 26         0.00088
       4 -> 30         0.00149
       4 -> 31        -0.00105
       4 -> 34        -0.00046
       4 -> 38         0.00079
       4 -> 41        -0.00052
       4 -> 44         0.00039
       4 -> 46         0.00067
       4 -> 48        -0.00033
       5 -> 28        -0.00138
       5 -> 35        -0.00052
       5 -> 45        -0.00087
       6 -> 11         0.00706
       6 -> 16        -0.00169
       6 -> 18        -0.00054
       6 -> 23         0.00184
       6 -> 24        -0.00426
       6 -> 29         0.00085
       6 -> 32         0.00106
       6 -> 36        -0.00076
       6 -> 42        -0.00039
       7 -> 11        -0.00365
       7 -> 16        -0.00400
       7 -> 18        -0.00305
       7 -> 23         0.00132
       7 -> 24        -0.00239
       7 -> 29        -0.00038
       7 -> 32        -0.00021
       7 -> 36         0.00041
       7 -> 42         0.00038
       7 -> 47        -0.00045
       7 -> 50        -0.00046
       7 -> 53         0.00011
       8 ->  9         0.70601
       8 -> 12        -0.00227
       8 -> 14         0.03249
       8 -> 15        -0.01010
       8 -> 19        -0.02127
       8 -> 20         0.00655
       8 -> 21         0.00905
       8 -> 25        -0.00044
       8 -> 26         0.00020
       8 -> 30        -0.00063
       8 -> 31        -0.00324
       8 -> 34        -0.00131
       8 -> 38        -0.00104
       8 -> 39         0.00039
       8 -> 41         0.00062
       8 -> 44         0.00010
       8 -> 46         0.00098
       8 -> 48        -0.00035
       8 -> 54         0.00012
       3 <- 11        -0.00029
       3 <- 18        -0.00055
       3 <- 24        -0.00078
       3 <- 29         0.00020
       3 <- 32         0.00010
       3 <- 40        -0.00011
       3 <- 42        -0.00016
       3 <- 53        -0.00013
       4 <-  9         0.00172
       4 <- 12         0.00021
       4 <- 14        -0.00357
       4 <- 15        -0.00188
       4 <- 19        -0.00086
       4 <- 20        -0.00078
       4 <- 21        -0.00151
       4 <- 25        -0.00154
       4 <- 26         0.00126
       4 <- 30         0.00054
       4 <- 31        -0.00032
       4 <- 34        -0.00026
       4 <- 38         0.00050
       4 <- 39        -0.00017
       4 <- 41        -0.00046
       4 <- 44         0.00029
       4 <- 46         0.00061
       4 <- 48        -0.00027
       5 <- 28        -0.00111
       5 <- 35        -0.00041
       5 <- 45        -0.00073
       6 <- 11         0.00059
       6 <- 16        -0.00182
       6 <- 18        -0.00173
       6 <- 23         0.00094
       6 <- 24        -0.00331
       6 <- 29         0.00066
       6 <- 32         0.00084
       6 <- 36        -0.00061
       6 <- 40         0.00013
       6 <- 42        -0.00021
       7 <- 11        -0.00083
       7 <- 16        -0.00234
       7 <- 18        -0.00075
       7 <- 23         0.00052
       7 <- 24        -0.00111
       7 <- 29        -0.00099
       7 <- 32        -0.00010
       7 <- 36         0.00013
       7 <- 42         0.00030
       7 <- 47        -0.00045
       7 <- 50        -0.00054
       8 <-  9        -0.00583
       8 <- 12        -0.00336
       8 <- 14         0.01590
       8 <- 15         0.00382
       8 <- 19         0.00135
       8 <- 21         0.00464
       8 <- 25         0.00316
       8 <- 26         0.00056
       8 <- 30        -0.00062
       8 <- 31        -0.00188
       8 <- 34        -0.00150
       8 <- 38        -0.00100
       8 <- 39         0.00033
       8 <- 41         0.00046
       8 <- 46         0.00077
       8 <- 48        -0.00030
 This state for optimization and/or second-order correction.
 Total Energy, E(TD-HF/TD-DFT) =  -113.582670978
 Copying the excited state density for this state as the 1-particle RhoCI density.

 Excited State   2:      Singlet-A2     5.5215 eV  224.55 nm  f=0.0000  <S**2>=0.000
       3 -> 28         0.00230
       3 -> 35         0.00165
       3 -> 45         0.00074
       4 -> 10         0.00263
       4 -> 13         0.00495
       4 -> 17         0.00521
       4 -> 22        -0.00293
       4 -> 27         0.00259
       4 -> 33         0.00074
       4 -> 37         0.00245
       4 -> 43         0.00032
       4 -> 49         0.00011
       4 -> 52         0.00048
       5 -> 11        -0.00044
       5 -> 16        -0.00022
       5 -> 18        -0.00038
       5 -> 23         0.00137
       5 -> 32         0.00018
       5 -> 36         0.00043
       5 -> 42         0.00045
       5 -> 47         0.00052
       5 -> 50        -0.00019
       5 -> 53         0.00017
       6 -> 28         0.00367
       6 -> 35        -0.00059
       6 -> 45        -0.00038
       7 -> 28         0.00063
       7 -> 45         0.00074
       8 -> 10         0.70215
       8 -> 13         0.07801
       8 -> 17         0.03037
       8 -> 22        -0.00122
       8 -> 27         0.00345
       8 -> 33         0.00322
       8 -> 37        -0.00232
       8 -> 52         0.00060
       3 <- 28         0.00179
       3 <- 35         0.00142
       3 <- 45         0.00074
       4 <- 10         0.00019
       4 <- 13         0.00105
       4 <- 17         0.00049
       4 <- 27         0.00017
       4 <- 33        -0.00093
       4 <- 37         0.00121
       4 <- 43         0.00036
       4 <- 52         0.00011
       5 <- 11        -0.00081
       5 <- 16         0.00089
       5 <- 18        -0.00236
       5 <- 23         0.00273
       5 <- 24        -0.00164
       5 <- 29         0.00146
       5 <- 32        -0.00051
       5 <- 36         0.00127
       5 <- 42         0.00061
       5 <- 47         0.00044
       5 <- 53         0.00045
       6 <- 28         0.00383
       6 <- 35        -0.00062
       6 <- 45        -0.00039
       7 <- 28         0.00056
       7 <- 45         0.00065
       8 <- 10        -0.00260
       8 <- 13        -0.00786
       8 <- 17        -0.00487
       8 <- 22         0.00028
       8 <- 27        -0.00039
       8 <- 33         0.00301
       8 <- 37        -0.00197
       8 <- 43         0.00011
       8 <- 52         0.00019

 Excited State   3:      Singlet-B2     6.2402 eV  198.69 nm  f=0.0268  <S**2>=0.000
       3 -> 11         0.00010
       3 -> 16        -0.00056
       3 -> 18         0.00018
       3 -> 23        -0.00023
       3 -> 24        -0.00044
       3 -> 29        -0.00069
       3 -> 32        -0.00013
       3 -> 36         0.00026
       3 -> 42         0.00027
       3 -> 47        -0.00018
       3 -> 50        -0.00017
       3 -> 53         0.00013
       4 ->  9        -0.00343
       4 -> 12        -0.00028
       4 -> 14        -0.00201
       4 -> 15        -0.00359
       4 -> 19         0.00239
       4 -> 21        -0.00142
       4 -> 25        -0.00082
       4 -> 26        -0.00099
       4 -> 30         0.00105
       4 -> 31         0.00210
       4 -> 34         0.00023
       4 -> 39         0.00091
       4 -> 41         0.00047
       4 -> 46        -0.00062
       4 -> 48         0.00029
       4 -> 51         0.00015
       5 -> 28         0.00096
       5 -> 35         0.00133
       5 -> 45         0.00088
       6 -> 11        -0.00174
       6 -> 16        -0.00504
       6 -> 18        -0.00019
       6 -> 23         0.00091
       6 -> 24        -0.00369
       6 -> 29         0.00153
       6 -> 32        -0.00054
       6 -> 36        -0.00013
       6 -> 40         0.00031
       6 -> 42        -0.00012
       7 -> 11         0.00277
       7 -> 16         0.00120
       7 -> 18         0.00228
       7 -> 23        -0.00116
       7 -> 24         0.00117
       7 -> 32         0.00023
       7 -> 36        -0.00102
       7 -> 40         0.00027
       7 -> 42        -0.00050
       7 -> 47         0.00066
       7 -> 50         0.00050
       7 -> 53        -0.00018
       8 ->  9         0.00209
       8 -> 12         0.70597
       8 -> 14         0.02253
       8 -> 15         0.02578
       8 -> 19         0.01343
       8 -> 20         0.01570
       8 -> 21         0.00416
       8 -> 25        -0.00060
       8 -> 26         0.00109
       8 -> 30        -0.00195
       8 -> 31        -0.00074
       8 -> 34        -0.00033
       8 -> 39         0.00115
       8 -> 41         0.00100
       8 -> 46        -0.00066
       8 -> 48         0.00036
       8 -> 54        -0.00015
       3 <- 11        -0.00016
       3 <- 16        -0.00056
       3 <- 24        -0.00048
       3 <- 29        -0.00047
       3 <- 32        -0.00015
       3 <- 36         0.00028
       3 <- 42         0.00023
       3 <- 47        -0.00014
       3 <- 53         0.00021
       4 <-  9         0.00134
       4 <- 14        -0.00160
       4 <- 15        -0.00067
       4 <- 19        -0.00064
       4 <- 20         0.00040
       4 <- 21        -0.00099
       4 <- 25        -0.00093
       4 <- 26        -0.00089
       4 <- 30         0.00101
       4 <- 31         0.00093
       4 <- 34         0.00076
       4 <- 39         0.00069
       4 <- 41         0.00047
       4 <- 46        -0.00062
       4 <- 48         0.00018
       4 <- 51         0.00014
       5 <- 28         0.00051
       5 <- 35         0.00112
       5 <- 45         0.00077
       6 <- 16        -0.00115
       6 <- 18        -0.00090
       6 <- 23         0.00110
       6 <- 24        -0.00211
       6 <- 29         0.00081
       6 <- 32        -0.00061
       6 <- 36        -0.00035
       6 <- 40         0.00030
       6 <- 50        -0.00010
       7 <- 11         0.00035
       7 <- 16         0.00063
       7 <- 18         0.00026
       7 <- 23        -0.00029
       7 <- 24         0.00038
       7 <- 29         0.00047
       7 <- 36        -0.00065
       7 <- 40         0.00021
       7 <- 42        -0.00035
       7 <- 47         0.00058
       7 <- 50         0.00050
       8 <-  9        -0.00309
       8 <- 12         0.00137
       8 <- 14         0.00853
       8 <- 15         0.00264
       8 <- 19        -0.00147
       8 <- 20        -0.00247
       8 <- 21         0.00307
       8 <- 25         0.00059
       8 <- 26        -0.00045
       8 <- 30        -0.00159
       8 <- 31        -0.00102
       8 <- 38         0.00020
       8 <- 39         0.00091
       8 <- 41         0.00086
       8 <- 46        -0.00054
       8 <- 48         0.00020

 Excited State   4:      Singlet-A1     6.3848 eV  194.19 nm  f=0.0275  <S**2>=0.000
       3 ->  9        -0.00123
       3 -> 12         0.00066
       3 -> 15         0.00063
       3 -> 19         0.00137
       3 -> 21        -0.00052
       3 -> 25         0.00038
       3 -> 26         0.00015
       3 -> 30        -0.00100
       3 -> 34        -0.00027
       3 -> 38        -0.00031
       3 -> 39        -0.00030
       3 -> 51        -0.00024
       3 -> 54         0.00018
       4 -> 11         0.00692
       4 -> 16         0.00789
       4 -> 18         0.00512
       4 -> 23         0.00162
       4 -> 24         0.00363
       4 -> 29         0.00071
       4 -> 32        -0.00014
       4 -> 36         0.00101
       4 -> 42        -0.00027
       4 -> 50        -0.00031
       5 -> 10         0.00554
       5 -> 13        -0.00264
       5 -> 17         0.00464
       5 -> 22         0.00356
       5 -> 27         0.00098
       5 -> 33         0.00093
       5 -> 37         0.00056
       5 -> 43         0.00033
       5 -> 49        -0.00034
       6 ->  9        -0.00677
       6 -> 12        -0.01085
       6 -> 14         0.00593
       6 -> 15         0.00358
       6 -> 19         0.00244
       6 -> 20        -0.00687
       6 -> 21         0.00092
       6 -> 25         0.00669
       6 -> 26        -0.00118
       6 -> 30         0.00093
       6 -> 31        -0.00110
       6 -> 34        -0.00134
       6 -> 38        -0.00066
       6 -> 39         0.00116
       6 -> 44        -0.00038
       6 -> 46        -0.00019
       6 -> 48        -0.00038
       7 ->  9        -0.01200
       7 -> 12         0.00671
       7 -> 14         0.00128
       7 -> 15        -0.00135
       7 -> 19         0.00877
       7 -> 20        -0.00077
       7 -> 25         0.00115
       7 -> 26         0.00088
       7 -> 30        -0.00038
       7 -> 31         0.00095
       7 -> 34        -0.00091
       7 -> 38        -0.00011
       7 -> 39         0.00014
       7 -> 48        -0.00021
       7 -> 51         0.00031
       8 -> 11         0.70522
       8 -> 16         0.04613
       8 -> 18        -0.01203
       8 -> 23         0.00156
       8 -> 24         0.00281
       8 -> 29         0.00404
       8 -> 32         0.00168
       8 -> 36        -0.00284
       8 -> 40         0.00021
       8 -> 42         0.00164
       8 -> 47        -0.00060
       3 <-  9        -0.00058
       3 <- 12         0.00029
       3 <- 15         0.00035
       3 <- 19         0.00082
       3 <- 21        -0.00027
       3 <- 25         0.00035
       3 <- 26         0.00014
       3 <- 30        -0.00063
       3 <- 34        -0.00024
       3 <- 38        -0.00023
       3 <- 39        -0.00026
       3 <- 46         0.00013
       3 <- 48        -0.00011
       3 <- 51        -0.00020
       3 <- 54         0.00016
       4 <- 11         0.00253
       4 <- 16         0.00283
       4 <- 18         0.00274
       4 <- 23         0.00128
       4 <- 24         0.00193
       4 <- 29         0.00032
       4 <- 32        -0.00024
       4 <- 36         0.00086
       4 <- 42        -0.00024
       4 <- 50        -0.00027
       5 <- 10         0.00249
       5 <- 13        -0.00125
       5 <- 17         0.00244
       5 <- 22         0.00228
       5 <- 27         0.00066
       5 <- 33         0.00073
       5 <- 37         0.00046
       5 <- 43         0.00028
       5 <- 49        -0.00030
       6 <-  9        -0.00664
       6 <- 12        -0.00446
       6 <- 14         0.00457
       6 <- 15         0.00307
       6 <- 19         0.00153
       6 <- 20        -0.00386
       6 <- 21        -0.00021
       6 <- 25         0.00426
       6 <- 26        -0.00061
       6 <- 30         0.00026
       6 <- 31        -0.00116
       6 <- 34        -0.00100
       6 <- 38        -0.00074
       6 <- 39         0.00092
       6 <- 44        -0.00042
       6 <- 46        -0.00018
       6 <- 48        -0.00030
       7 <-  9        -0.00407
       7 <- 12         0.00211
       7 <- 14         0.00044
       7 <- 15        -0.00072
       7 <- 19         0.00405
       7 <- 20        -0.00062
       7 <- 25         0.00072
       7 <- 26         0.00047
       7 <- 30        -0.00034
       7 <- 31         0.00069
       7 <- 34        -0.00062
       7 <- 38        -0.00015
       7 <- 39         0.00022
       7 <- 46        -0.00013
       7 <- 48        -0.00013
       7 <- 51         0.00029
       8 <- 11        -0.00570
       8 <- 16         0.00469
       8 <- 18        -0.01307
       8 <- 23        -0.00234
       8 <- 24        -0.00071
       8 <- 29         0.00244
       8 <- 32         0.00140
       8 <- 36        -0.00214
       8 <- 42         0.00131
       8 <- 47        -0.00064

 Excited State   5:      Singlet-A2     7.6963 eV  161.10 nm  f=0.0000  <S**2>=0.000
       3 -> 28         0.00247
       3 -> 35         0.00187
       3 -> 45         0.00079
       4 -> 10         0.00445
       4 -> 13         0.01008
       4 -> 22        -0.00300
       4 -> 27         0.00070
       4 -> 33         0.00196
       4 -> 37         0.00308
       4 -> 43         0.00027
       4 -> 52         0.00049
       5 -> 16        -0.00147
       5 -> 18        -0.00034
       5 -> 23         0.00169
       5 -> 24        -0.00017
       5 -> 29        -0.00033
       5 -> 32         0.00012
       5 -> 36         0.00049
       5 -> 42         0.00056
       5 -> 47         0.00052
       5 -> 53         0.00020
       6 -> 28         0.00226
       6 -> 35        -0.00085
       6 -> 45        -0.00019
       7 -> 28         0.00040
       7 -> 45         0.00085
       8 -> 10        -0.07917
       8 -> 13         0.70172
       8 -> 17         0.02625
       8 -> 22        -0.02369
       8 -> 27         0.00297
       8 -> 33         0.00233
       8 -> 37        -0.00221
       8 -> 43        -0.00014
       8 -> 52         0.00053
       3 <- 28         0.00163
       3 <- 35         0.00154
       3 <- 45         0.00088
       4 <- 10         0.00034
       4 <- 13         0.00073
       4 <- 17        -0.00012
       4 <- 33        -0.00056
       4 <- 37         0.00111
       4 <- 43         0.00035
       4 <- 52         0.00015
       5 <- 11         0.00029
       5 <- 16        -0.00039
       5 <- 18        -0.00098
       5 <- 23         0.00281
       5 <- 24        -0.00134
       5 <- 29         0.00033
       5 <- 32        -0.00078
       5 <- 36         0.00152
       5 <- 42         0.00085
       5 <- 47         0.00025
       5 <- 53         0.00044
       6 <- 28         0.00277
       6 <- 35        -0.00031
       6 <- 45        -0.00031
       7 <- 28         0.00049
       7 <- 35        -0.00022
       7 <- 45         0.00049
       8 <- 10        -0.00722
       8 <- 13        -0.00388
       8 <- 17        -0.00230
       8 <- 22         0.00069
       8 <- 27        -0.00039
       8 <- 33         0.00227
       8 <- 37        -0.00160
       8 <- 43         0.00012
       8 <- 52         0.00021

 Excited State   6:      Singlet-B2     9.5068 eV  130.42 nm  f=0.1283  <S**2>=0.000
       3 -> 11        -0.00037
       3 -> 16         0.00084
       3 -> 18        -0.00077
       3 -> 23         0.00047
       3 -> 24         0.00030
       3 -> 29         0.00074
       3 -> 32        -0.00060
       3 -> 40         0.00040
       3 -> 42         0.00035
       3 -> 47         0.00024
       4 ->  9        -0.00506
       4 -> 12         0.00564
       4 -> 14         0.01254
       4 -> 15         0.00047
       4 -> 19         0.00248
       4 -> 20         0.00772
       4 -> 21         0.00916
       4 -> 25         0.00382
       4 -> 26         0.00022

 The electronic state is 1-A1.
 Alpha  occ. eigenvalues --  -19.14823 -10.24700  -1.31849  -0.67837  -0.63908
 Alpha  occ. eigenvalues --   -0.58159  -0.54191  -0.22363
 Alpha virt. eigenvalues --    0.01276   0.02595   0.04438   0.04524   0.11535
 Alpha virt. eigenvalues --    0.14404   0.17644   0.19692   0.21738   0.24866
 Alpha virt. eigenvalues --    0.25047   0.36530   0.50518   0.54607   0.55793

 Mulliken charges:
               1
     1  C    0.312449
     2  H   -0.044600
     3  H   -0.044600
     4  O   -0.223250
 Sum of Mulliken charges =  -0.00000

 Dipole moment (field-independent basis, Debye):
    X=              0.0000    Y=              0.0000    Z=              0.2513  Tot=              0.2513
 Quadrupole moment (field-independent basis, Debye-Ang):
   XX=            -10.5084   YY=            -12.8499   ZZ=            -13.4341
   XY=             -0.0000   XZ=             -0.0000   YZ=              0.0000

 Normal termination of Gaussian 16 at Fri Sep 17 10:52:26 2021.
