 Gaussian 16, Revision C.01,
 Gaussian 16:  ES64L-G16RevC.01  3-Jul-2019

 ----------------------------------------
 #P wB97XD/6-311+G* NoSymm #P Field=Z-107
 ----------------------------------------

 -------
 TitleMe
 -------
 Symbolic Z-matrix:
 Charge =  1 Multiplicity = 1

                          Input orientation:
 ---------------------------------------------------------------------
 Center     Atomic      Atomic             Coordinates (Angstroms)
 Number     Number       Type             X           Y           Z
 ---------------------------------------------------------------------
      1          6           0        0.029500    1.339700    0.068200
      2          6           0        1.434800    1.286700    0.006400
      3          6           0        2.111800    0.051100   -0.005400
      4          6           0        1.445100   -1.137200    0.031200
      5          6           0       -0.687900    0.168200    0.110000
      6          1           0       -0.471300    2.298400    0.078100
      7          1           0        2.027300    2.196500   -0.032200
      8          1           0        1.989700   -2.076400    0.023200
      9          1           0       -1.771600    0.180400    0.158200
     10          7           0        3.586400    0.051000   -0.067500
     11          8           0        4.147100   -1.059700   -0.088100
     12          8           0        4.145000    1.163900   -0.090100
     13          6           0       -0.023600   -1.145800    0.083500
     14          1           0       -0.436700   -1.872500    0.788900
     15         35           0       -0.535900   -1.869700   -1.740800
 ---------------------------------------------------------------------

 SCF Done:  E(RwB97XD) =  -3010.53915441     A.U. after   18 cycles

 Alpha  occ. eigenvalues -- -483.32805 -62.87856 -56.67514 -56.66990 -56.66988
 Alpha  occ. eigenvalues --  -19.46124 -19.46042 -14.85623 -10.58986 -10.57924
 Alpha  occ. eigenvalues --  -10.57512 -10.57329 -10.57042 -10.53206  -9.03680
 Alpha  occ. eigenvalues --   -6.86264  -6.84537  -6.84524  -2.96191  -2.95730
 Alpha  occ. eigenvalues --   -2.95718  -2.94336  -2.94336  -1.49877  -1.32850
 Alpha  occ. eigenvalues --   -1.23050  -1.14704  -1.12117  -1.05586  -1.01315
 Alpha  occ. eigenvalues --   -0.95863  -0.91259  -0.85513  -0.81030  -0.80910
 Alpha  occ. eigenvalues --   -0.80240  -0.78539  -0.76350  -0.76204  -0.72991
 Alpha  occ. eigenvalues --   -0.69669  -0.67866  -0.64354  -0.61048  -0.58359
 Alpha  occ. eigenvalues --   -0.57286  -0.56581  -0.56251  -0.55833
 Alpha virt. eigenvalues --   -0.30202  -0.21560  -0.16692  -0.13859  -0.11097
 Alpha virt. eigenvalues --   -0.07868  -0.07365  -0.06808  -0.05248  -0.04073
 Alpha virt. eigenvalues --   -0.03513  -0.02741  -0.02518  -0.02344  -0.01697

 Mulliken charges:
               1
     1  C   -0.598696
     2  C    0.551181
     3  C   -0.726596
     4  C    0.300166
     5  C    0.036932
     6  H    0.338184
     7  H    0.367718
     8  H    0.377271
     9  H    0.355527
    10  N   -0.106516
    11  O    0.032221
    12  O    0.028515
    13  C   -0.472687
    14  H    0.440998
    15  Br   0.075781
 Sum of Mulliken charges =   1.00000

 Dipole moment (field-independent basis, Debye):
    X=             -0.5689    Y=             -0.1886    Z=              1.8309  Tot=              1.9265
 Quadrupole moment (field-independent basis, Debye-Ang):
   XX=            -70.8923   YY=            -52.5508   ZZ=            -64.7120
   XY=              1.0108   XZ=              1.9616   YZ=              0.0788

 Normal termination of Gaussian 16 at Wed May  1 15:22:50 2024.
