 Gaussian 16, Revision C.01,
 Gaussian 16:  ES64L-G16RevC.01  3-Jul-2019

 ---------------------------------------
 #P wB97XD/6-311+G* NoSymm #P Field=Y-77
 ---------------------------------------

 -------
 TitleMe
 -------
 Symbolic Z-matrix:
 Charge =  1 Multiplicity = 1

                          Input orientation:
 ---------------------------------------------------------------------
 Center     Atomic      Atomic             Coordinates (Angstroms)
 Number     Number       Type             X           Y           Z
 ---------------------------------------------------------------------
      1          6           0        0.029500    1.339700    0.068200
      2          6           0        1.434800    1.286700    0.006400
      3          6           0        2.111800    0.051100   -0.005400
      4          6           0        1.445100   -1.137200    0.031200
      5          6           0       -0.687900    0.168200    0.110000
      6          1           0       -0.471300    2.298400    0.078100
      7          1           0        2.027300    2.196500   -0.032200
      8          1           0        1.989700   -2.076400    0.023200
      9          1           0       -1.771600    0.180400    0.158200
     10          7           0        3.586400    0.051000   -0.067500
     11          8           0        4.147100   -1.059700   -0.088100
     12          8           0        4.145000    1.163900   -0.090100
     13          6           0       -0.023600   -1.145800    0.083500
     14          1           0       -0.436700   -1.872500    0.788900
     15         35           0       -0.535900   -1.869700   -1.740800
 ---------------------------------------------------------------------

 SCF Done:  E(RwB97XD) =  -3010.53691658     A.U. after   18 cycles

 Alpha  occ. eigenvalues -- -483.32327 -62.87368 -56.67040 -56.66496 -56.66495
 Alpha  occ. eigenvalues --  -19.45972 -19.45757 -14.85382 -10.59177 -10.57389
 Alpha  occ. eigenvalues --  -10.57294 -10.57242 -10.56598 -10.52434  -9.03186
 Alpha  occ. eigenvalues --   -6.85808  -6.84021  -6.84010  -2.95726  -2.95249
 Alpha  occ. eigenvalues --   -2.95239  -2.93809  -2.93809  -1.49650  -1.32621
 Alpha  occ. eigenvalues --   -1.22832  -1.14470  -1.11683  -1.05192  -1.01037
 Alpha  occ. eigenvalues --   -0.95637  -0.90997  -0.85263  -0.80799  -0.80641
 Alpha  occ. eigenvalues --   -0.80023  -0.78567  -0.76096  -0.75838  -0.72616
 Alpha  occ. eigenvalues --   -0.69302  -0.67402  -0.63796  -0.60631  -0.57844
 Alpha  occ. eigenvalues --   -0.57056  -0.56194  -0.55958  -0.55564
 Alpha virt. eigenvalues --   -0.29874  -0.21374  -0.16215  -0.13580  -0.10671
 Alpha virt. eigenvalues --   -0.07118  -0.06598  -0.05978  -0.04798  -0.03645
 Alpha virt. eigenvalues --   -0.03154  -0.02543  -0.02319  -0.01658  -0.01484

 Mulliken charges:
               1
     1  C   -0.561698
     2  C    0.480764
     3  C   -0.677545
     4  C    0.268570
     5  C    0.026100
     6  H    0.365137
     7  H    0.393723
     8  H    0.347565
     9  H    0.353101
    10  N   -0.108456
    11  O   -0.007803
    12  O    0.072361
    13  C   -0.459933
    14  H    0.384135
    15  Br   0.123980
 Sum of Mulliken charges =   1.00000

 Dipole moment (field-independent basis, Debye):
    X=             -0.5620    Y=              1.6252    Z=              0.2664  Tot=              1.7402
 Quadrupole moment (field-independent basis, Debye-Ang):
   XX=            -70.8136   YY=            -53.0542   ZZ=            -63.2735
   XY=              3.7734   XZ=              0.8637   YZ=              0.6494

 Normal termination of Gaussian 16 at Wed May  1 15:04:44 2024.
