 Gaussian 16, Revision A.03,
 Gaussian 16:  ES64L-G16RevA.03 25-Dec-2016

 --------------------------------------------------------------------
 #p B3LYP/6-311+G** #p TD=(singlets,nstates=30)IOp(6/8=3) IOp(9/40=4)
 --------------------------------------------------------------------

 --------------------------------
 Scan Step 299, Bond Length 1.995
 --------------------------------
 Symbolic Z-matrix:
 Charge =  0 Multiplicity = 1

                         Standard orientation:
 ---------------------------------------------------------------------
 Center     Atomic      Atomic             Coordinates (Angstroms)
 Number     Number       Type             X           Y           Z
 ---------------------------------------------------------------------
      1          6           0        0.000000   -0.000000   -0.923581
      2          1           0        0.000000    0.937260   -1.514931
      3          1           0       -0.000000   -0.937260   -1.514931
      4          8           0        0.000000    0.000000    1.071419
 ---------------------------------------------------------------------

 SCF Done:  E(RB3LYP) =  -114.297781561     A.U. after   13 cycles

 Excitation energies and oscillator strengths:

 Excited State   1:      Singlet-A2     0.9846 eV 1259.18 nm  f=0.0000  <S**2>=0.000
       3 -> 27         0.00053
       3 -> 38         0.00029
       3 -> 47         0.00323
       4 -> 27         0.00025
       4 -> 47        -0.00072
       5 ->  9        -0.00047
       5 -> 14         0.00100
       5 -> 18         0.00116
       5 -> 23         0.00110
       5 -> 28         0.00081
       5 -> 37         0.00050
       5 -> 44         0.00014
       5 -> 52         0.00011
       6 -> 27        -0.00049
       6 -> 38        -0.00043
       6 -> 47         0.00072
       7 -> 12        -0.00151
       7 -> 16         0.00540
       7 -> 19        -0.00505
       7 -> 22        -0.00112
       7 -> 25        -0.00038
       7 -> 30        -0.00209
       7 -> 33         0.00024
       7 -> 49         0.00012
       7 -> 53         0.00034
       8 ->  9         0.71255
       8 -> 14        -0.00432
       8 -> 18         0.01994
       8 -> 23        -0.00011
       8 -> 28         0.00946
       8 -> 31         0.00150
       8 -> 37         0.00044
       8 -> 46        -0.00026
       8 -> 52         0.00175
       3 <- 47         0.00325
       4 <- 27         0.00049
       4 <- 38         0.00014
       4 <- 47        -0.00053
       5 <-  9         0.00072
       5 <- 14        -0.00024
       5 <- 18        -0.00023
       5 <- 23         0.00012
       5 <- 28        -0.00020
       5 <- 31         0.00017
       5 <- 37         0.00029
       6 <- 38        -0.00031
       6 <- 47         0.00050
       7 <- 12         0.00245
       7 <- 16        -0.01033
       7 <- 19         0.00652
       7 <- 22         0.00471
       7 <- 25        -0.00062
       7 <- 30         0.00565
       7 <- 33        -0.00033
       7 <- 49        -0.00045
       7 <- 53         0.00141
       8 <-  9        -0.08956
       8 <- 14        -0.00087
       8 <- 18        -0.00811
       8 <- 23        -0.00052
       8 <- 28        -0.00281
       8 <- 31        -0.00086
       8 <- 37        -0.00012
       8 <- 46         0.00013
       8 <- 52         0.00038
 This state for optimization and/or second-order correction.
 Total Energy, E(TD-HF/TD-DFT) =  -114.261596592
 Copying the excited state density for this state as the 1-particle RhoCI density.

 Excited State   2:      Singlet-B2     2.4306 eV  510.10 nm  f=0.0009  <S**2>=0.000
       3 -> 12        -0.00092
       3 -> 16         0.00067
       3 -> 19        -0.00308
       3 -> 22         0.00113
       3 -> 25        -0.00085
       3 -> 30        -0.00198
       3 -> 33         0.00038
       3 -> 36         0.00085
       3 -> 40        -0.00096
       3 -> 42        -0.00017
       3 -> 49        -0.00412
       3 -> 51         0.00012
       3 -> 53         0.00020
       4 -> 12         0.00027
       4 -> 16        -0.00098
       4 -> 19         0.00021
       4 -> 22         0.00126
       4 -> 25         0.00032
       4 -> 30         0.00054
       4 -> 33        -0.00023
       4 -> 36         0.00036
       4 -> 40         0.00016
       4 -> 49         0.00070
       5 -> 10         0.00804
       5 -> 11         0.00070
       5 -> 13        -0.00162
       5 -> 15         0.00208
       5 -> 17        -0.00051
       5 -> 20         0.00168
       5 -> 21         0.00191
       5 -> 24         0.00113
       5 -> 29        -0.00188
       5 -> 32        -0.00040
       5 -> 39         0.00044
       5 -> 41         0.00029
       5 -> 48        -0.00022
       5 -> 50         0.00015
       5 -> 54        -0.00014
       6 -> 12         0.00230
       6 -> 16        -0.00297
       6 -> 19         0.00446
       6 -> 22        -0.00072
       6 -> 25         0.00114
       6 -> 30         0.00065
       6 -> 33        -0.00027
       6 -> 36        -0.00086
       6 -> 40         0.00050
       6 -> 42         0.00045
       6 -> 49         0.00079
       6 -> 53        -0.00043
       7 -> 27        -0.00038
       7 -> 38         0.00020
       7 -> 47         0.00238
       8 -> 10         0.70829
       8 -> 11         0.03609
       8 -> 13        -0.03367
       8 -> 15        -0.01531
       8 -> 17        -0.01647
       8 -> 20         0.00809
       8 -> 21         0.00384
       8 -> 24        -0.00434
       8 -> 26        -0.00301
       8 -> 29        -0.01384
       8 -> 32         0.00267
       8 -> 34        -0.00078
       8 -> 35         0.00201
       8 -> 41        -0.00016
       8 -> 45        -0.00070
       8 -> 48        -0.00289
       8 -> 50         0.00088
       8 -> 54        -0.00253
       3 <- 12        -0.00031
       3 <- 16         0.00027
       3 <- 19        -0.00157
       3 <- 22         0.00082
       3 <- 25        -0.00077
       3 <- 30        -0.00082
       3 <- 33         0.00035
       3 <- 36         0.00048
       3 <- 40        -0.00083
       3 <- 49        -0.00416
       3 <- 51         0.00012
       3 <- 53         0.00059
       4 <- 12         0.00012
       4 <- 16        -0.00137
       4 <- 19         0.00019
       4 <- 22         0.00169
       4 <- 25         0.00011
       4 <- 30         0.00086
       4 <- 33        -0.00023
       4 <- 36         0.00050
       4 <- 49         0.00048
       5 <- 10        -0.00099
       5 <- 11        -0.00033
       5 <- 13        -0.00028
       5 <- 15         0.00177
       5 <- 17         0.00018
       5 <- 20         0.00072
       5 <- 21         0.00124
       5 <- 24         0.00120
       5 <- 29        -0.00042
       5 <- 32        -0.00017
       5 <- 39         0.00024
       5 <- 41         0.00031
       5 <- 45        -0.00014
       5 <- 48        -0.00024
       6 <- 12        -0.00136
       6 <- 16         0.00868
       6 <- 19        -0.00531
       6 <- 22        -0.00518
       6 <- 25         0.00145
       6 <- 30        -0.00638
       6 <- 33         0.00011
       6 <- 36        -0.00061
       6 <- 40         0.00047
       6 <- 42         0.00038
       6 <- 49         0.00135
       6 <- 53        -0.00146
       7 <- 27        -0.00040
       7 <- 38         0.00016
       7 <- 47         0.00210
       8 <- 10        -0.06887
       8 <- 11        -0.00687
       8 <- 13         0.00629
       8 <- 15         0.00230
       8 <- 17         0.00335
       8 <- 20        -0.00397
       8 <- 21        -0.00072
       8 <- 24         0.00122
       8 <- 26         0.00064
       8 <- 29         0.00349
       8 <- 32         0.00147
       8 <- 34         0.00070
       8 <- 35        -0.00101
       8 <- 39        -0.00061
       8 <- 41         0.00010
       8 <- 43         0.00021
       8 <- 45        -0.00127
       8 <- 48        -0.00247
       8 <- 50         0.00098
       8 <- 54        -0.00063

 Excited State   3:      Singlet-A1     2.5406 eV  488.02 nm  f=0.0163  <S**2>=0.000
       3 -> 10        -0.01013
       3 -> 11        -0.00157
       3 -> 13        -0.00041
       3 -> 17        -0.00271
       3 -> 20        -0.00289
       3 -> 21         0.00079
       3 -> 24        -0.00016
       3 -> 26         0.00034
       3 -> 29         0.00033
       3 -> 32         0.00237
       3 -> 34         0.00085
       3 -> 35        -0.00083
       3 -> 39        -0.00019
       3 -> 43         0.00035
       3 -> 45        -0.00144
       3 -> 48         0.00231
       3 -> 50         0.00171
       3 -> 54        -0.00016
       4 -> 10         0.00087
       4 -> 11         0.00802
       4 -> 13         0.00093
       4 -> 15        -0.00633
       4 -> 17         0.00169
       4 -> 20         0.00103
       4 -> 21         0.00012
       4 -> 24        -0.00338
       4 -> 26         0.00219
       4 -> 32        -0.00085
       4 -> 34        -0.00053
       4 -> 39        -0.00032
       4 -> 43        -0.00036
       4 -> 45         0.00070
       4 -> 48        -0.00057
       4 -> 50        -0.00018
       4 -> 54         0.00011
       5 -> 12         0.00649
       5 -> 16         0.00026
       5 -> 19         0.00079
       5 -> 22         0.00564
       5 -> 25        -0.00287
       5 -> 30         0.00027
       5 -> 33        -0.00208
       5 -> 36         0.00265
       5 -> 40        -0.00081
       5 -> 42        -0.00094
       5 -> 51        -0.00093
       6 -> 10         0.27138
       6 -> 11         0.02313
       6 -> 13        -0.02335
       6 -> 15        -0.01526
       6 -> 17        -0.01324
       6 -> 20         0.00063
       6 -> 21         0.00259
       6 -> 24        -0.00541
       6 -> 26        -0.00168
       6 -> 29        -0.00091
       6 -> 32         0.00482
       6 -> 34         0.00134
       6 -> 35         0.00093
       6 -> 39        -0.00166
       6 -> 43         0.00072
       6 -> 45        -0.00104
       6 -> 48         0.00060
       6 -> 50         0.00035
       6 -> 54        -0.00099
       7 ->  9         0.67103
       7 -> 14        -0.00871
       7 -> 18        -0.00695
       7 -> 23        -0.00332
       7 -> 28         0.00196
       7 -> 31        -0.00330
       7 -> 37         0.00135
       7 -> 44        -0.00094
       7 -> 52         0.00103
       8 -> 12        -0.00645
       8 -> 16         0.02459
       8 -> 19        -0.01515
       8 -> 22        -0.00744
       8 -> 30        -0.00612
       8 -> 33         0.00064
       8 -> 36        -0.00026
       8 -> 42         0.00010
       8 -> 49        -0.00017
       8 -> 51         0.00010
       8 -> 53        -0.00045
       3 <- 10        -0.00873
       3 <- 11        -0.00166
       3 <- 13        -0.00044
       3 <- 15        -0.00048
       3 <- 17        -0.00166
       3 <- 20        -0.00273
       3 <- 21         0.00040
       3 <- 24        -0.00053
       3 <- 26        -0.00036
       3 <- 29         0.00054
       3 <- 32         0.00197
       3 <- 34         0.00044
       3 <- 35        -0.00093
       3 <- 39        -0.00010
       3 <- 43         0.00036
       3 <- 45        -0.00151
       3 <- 48         0.00230
       3 <- 50         0.00173
       4 <- 10         0.00176
       4 <- 11         0.00644
       4 <- 13         0.00100
       4 <- 15        -0.00471
       4 <- 17         0.00112
       4 <- 20         0.00171
       4 <- 24        -0.00274
       4 <- 26         0.00207
       4 <- 29        -0.00039
       4 <- 32        -0.00078
       4 <- 34        -0.00047
       4 <- 35         0.00013
       4 <- 39        -0.00037
       4 <- 41         0.00010
       4 <- 43        -0.00032
       4 <- 45         0.00060
       4 <- 48        -0.00033
       5 <- 12         0.00449
       5 <- 16         0.00027
       5 <- 19         0.00071
       5 <- 22         0.00439
       5 <- 25        -0.00241
       5 <- 30         0.00028
       5 <- 33        -0.00181
       5 <- 36         0.00237
       5 <- 40        -0.00076
       5 <- 42        -0.00086
       5 <- 51        -0.00089
       6 <- 10         0.09821
       6 <- 11         0.01121
       6 <- 13        -0.01286
       6 <- 15        -0.00925
       6 <- 17        -0.00893
       6 <- 20        -0.00090
       6 <- 21         0.00212
       6 <- 24        -0.00375
       6 <- 26        -0.00057
       6 <- 32         0.00445
       6 <- 34         0.00148
       6 <- 35         0.00049
       6 <- 39        -0.00149
       6 <- 43         0.00063
       6 <- 45        -0.00076
       6 <- 48         0.00032
       6 <- 50         0.00022
       6 <- 54        -0.00093
       7 <-  9        -0.12689
       7 <- 14         0.00130
       7 <- 18        -0.00961
       7 <- 23        -0.00043
       7 <- 28        -0.00078
       7 <- 31        -0.00154
       7 <- 37         0.00066
       7 <- 44        -0.00089
       7 <- 46        -0.00048
       7 <- 52         0.00097
       8 <- 12        -0.00339
       8 <- 16         0.01461
       8 <- 19        -0.01008
       8 <- 22        -0.00545
       8 <- 25         0.00011
       8 <- 30        -0.00519
       8 <- 33         0.00053
       8 <- 36        -0.00019
       8 <- 49        -0.00026
       8 <- 53        -0.00043

 Excited State   4:      Singlet-B1     2.7024 eV  458.79 nm  f=0.0003  <S**2>=0.000
       3 ->  9        -0.01466
       3 -> 14         0.00035
       3 -> 18        -0.00301
       3 -> 23         0.00094
       3 -> 28        -0.00145
       3 -> 31        -0.00113
       3 -> 37         0.00015
       3 -> 46        -0.00196
       3 -> 52         0.00036
       4 ->  9        -0.00681
       4 -> 14         0.00115
       4 -> 18         0.00024
       4 -> 23         0.00095
       4 -> 28         0.00058
       4 -> 31        -0.00060
       4 -> 46         0.00026
       5 -> 27        -0.00235
       5 -> 38        -0.00044
       5 -> 47         0.00024
       6 ->  9         0.37252
       6 -> 14        -0.01029
       6 -> 18         0.01030
       6 -> 23        -0.00646
       6 -> 28         0.00368
       6 -> 31        -0.00014
       6 -> 37         0.00014
       6 -> 44        -0.00061
       6 -> 46         0.00166
       6 -> 52         0.00014
       7 -> 10         0.60798
       7 -> 11         0.03140
       7 -> 13        -0.03069
       7 -> 15        -0.01616
       7 -> 17        -0.01335
       7 -> 20         0.00519
       7 -> 21         0.00230
       7 -> 24        -0.00619
       7 -> 26        -0.00426
       7 -> 29        -0.00910
       7 -> 32         0.00228
       7 -> 34        -0.00102
       7 -> 35         0.00090
       7 -> 41        -0.00012
       7 -> 43         0.00041
       7 -> 45        -0.00114
       7 -> 48         0.00250
       7 -> 50         0.00069
       7 -> 54        -0.00140
       8 -> 27         0.00011
       8 -> 47         0.00302
       3 <-  9        -0.00491
       3 <- 14        -0.00034
       3 <- 18        -0.00191
       3 <- 28        -0.00096
       3 <- 31        -0.00057
       3 <- 44        -0.00026
       3 <- 46        -0.00192
       3 <- 52         0.00055
       4 <-  9        -0.00349
       4 <- 14         0.00102
       4 <- 18         0.00091
       4 <- 23         0.00086
       4 <- 28         0.00123
       4 <- 31        -0.00046
       4 <- 44        -0.00037
       4 <- 46         0.00012
       5 <- 27        -0.00221
       5 <- 38        -0.00034
       5 <- 47         0.00023
       6 <-  9        -0.07085
       6 <- 14         0.00231
       6 <- 18        -0.00727
       6 <- 23         0.00105
       6 <- 28        -0.00415
       6 <- 31        -0.00281
       6 <- 37         0.00046
       6 <- 44         0.00059
       6 <- 46         0.00174
       6 <- 52        -0.00094
       7 <- 10        -0.07840
       7 <- 11        -0.00789
       7 <- 13         0.00971
       7 <- 15         0.00418
       7 <- 17         0.00403
       7 <- 20        -0.00145
       7 <- 21        -0.00236
       7 <- 24         0.00208
       7 <- 26         0.00144
       7 <- 29         0.00251
       7 <- 34        -0.00019
       7 <- 35        -0.00061
       7 <- 39        -0.00023
       7 <- 41         0.00023
       7 <- 43         0.00020
       7 <- 45        -0.00083
       7 <- 48         0.00229
       7 <- 50         0.00101
       8 <- 27         0.00035
       8 <- 47         0.00274

 Excited State   5:      Singlet-B1     3.3440 eV  370.77 nm  f=0.0046  <S**2>=0.000
       3 ->  9        -0.00858
       3 -> 14         0.00036
       3 -> 18        -0.00027
       3 -> 23         0.00033
       3 -> 28         0.00131
       3 -> 31         0.00058
       3 -> 44         0.00049
       3 -> 46         0.00300
       3 -> 52         0.00047
       4 ->  9         0.02727
       4 -> 14        -0.00556
       4 -> 18        -0.00045
       4 -> 23        -0.00445
       4 -> 28        -0.00010
       4 -> 31        -0.00096
       4 -> 37        -0.00033
       4 -> 44         0.00038
       4 -> 46        -0.00085
       4 -> 52        -0.00020
       5 -> 27         0.00515
       5 -> 38         0.00377
       6 ->  9         0.60450
       6 -> 14        -0.01186
       6 -> 18         0.00581
       6 -> 23        -0.00773
       6 -> 28        -0.00082
       6 -> 31         0.00454
       6 -> 37        -0.00291
       6 -> 44        -0.00149
       6 -> 46         0.00212
       6 -> 52         0.00108
       7 -> 10        -0.36568
       7 -> 11        -0.01336
       7 -> 13         0.01434
       7 -> 15         0.01405
       7 -> 17         0.00225
       7 -> 20         0.00250
       7 -> 21        -0.00048
       7 -> 24         0.00466
       7 -> 26         0.00195
       7 -> 29         0.00424
       7 -> 34         0.00284
       7 -> 35         0.00151
       7 -> 39        -0.00056
       7 -> 43        -0.00017
       7 -> 45         0.00027
       7 -> 48         0.00127
       7 -> 50         0.00064
       7 -> 54         0.00126
       8 -> 27        -0.00036
       8 -> 38        -0.00015
       8 -> 47         0.00147
       3 <-  9        -0.00270
       3 <- 14        -0.00100
       3 <- 18        -0.00059
       3 <- 23        -0.00063
       3 <- 28         0.00108
       3 <- 31        -0.00036
       3 <- 37         0.00035
       3 <- 44         0.00045
       3 <- 46         0.00308
       3 <- 52         0.00017
       4 <-  9         0.01549
       4 <- 14        -0.00301
       4 <- 18         0.00043
       4 <- 23        -0.00305
       4 <- 28         0.00014
       4 <- 31        -0.00076
       4 <- 37        -0.00028
       4 <- 44         0.00038
       4 <- 46        -0.00053
       4 <- 52        -0.00014
       5 <- 27         0.00381
       5 <- 38         0.00329
       6 <-  9        -0.00088
       6 <- 14         0.00203
       6 <- 18        -0.00021
       6 <- 23        -0.00014
       6 <- 28        -0.00224
       6 <- 31         0.00443
       6 <- 37        -0.00274
       6 <- 44        -0.00082
       6 <- 46         0.00137
       6 <- 52         0.00099
       7 <- 10        -0.02156
       7 <- 11        -0.00310
       7 <- 13         0.00547
       7 <- 15         0.00847
       7 <- 17         0.00150
       7 <- 20         0.00469
       7 <- 21        -0.00051
       7 <- 24         0.00426
       7 <- 26         0.00137
       7 <- 29         0.00122
       7 <- 32        -0.00122
       7 <- 34         0.00208
       7 <- 35         0.00220
       7 <- 39        -0.00032
       7 <- 43        -0.00030
       7 <- 45         0.00044
       7 <- 48         0.00131
       7 <- 50         0.00097
       7 <- 54         0.00114
       8 <- 47         0.00159

 Excited State   6:      Singlet-A2     6.6397 eV  186.73 nm  f=0.0000  <S**2>=0.000
       3 -> 27        -0.00087
       3 -> 38        -0.00022
       4 -> 27        -0.00606
       4 -> 38         0.00045
       4 -> 47        -0.00015
       5 ->  9         0.70640

 The electronic state is 1-A1.
 Alpha  occ. eigenvalues --  -19.17819 -10.34457  -0.87777  -0.72268  -0.49581
 Alpha  occ. eigenvalues --   -0.37090  -0.29593  -0.28465
 Alpha virt. eigenvalues --   -0.18468  -0.11422  -0.00397   0.04018   0.06006
 Alpha virt. eigenvalues --    0.06079   0.11384   0.12724   0.18510   0.20769
 Alpha virt. eigenvalues --    0.23826   0.30386   0.38475   0.38924   0.50297

 Mulliken charges:
               1
     1  C   -0.114397
     2  H    0.195527
     3  H    0.195527
     4  O   -0.276658
 Sum of Mulliken charges =  -0.00000

 Dipole moment (field-independent basis, Debye):
    X=             -0.0000    Y=              0.0000    Z=             -4.4398  Tot=              4.4398
 Quadrupole moment (field-independent basis, Debye-Ang):
   XX=            -13.1456   YY=            -12.1385   ZZ=            -10.1570
   XY=              0.0000   XZ=              0.0000   YZ=              0.0000

 Normal termination of Gaussian 16 at Fri Sep 17 10:53:20 2021.
