 Gaussian 16, Revision A.03,
 Gaussian 16:  ES64L-G16RevA.03 25-Dec-2016

 --------------------------------------------------------------------
 #p B3LYP/6-311+G** #p TD=(singlets,nstates=30)IOp(6/8=3) IOp(9/40=4)
 --------------------------------------------------------------------

 --------------------------------
 Scan Step 281, Bond Length 1.905
 --------------------------------
 Symbolic Z-matrix:
 Charge =  0 Multiplicity = 1

                         Standard orientation:
 ---------------------------------------------------------------------
 Center     Atomic      Atomic             Coordinates (Angstroms)
 Number     Number       Type             X           Y           Z
 ---------------------------------------------------------------------
      1          6           0        0.000000    0.000000   -0.878581
      2          1           0        0.000000    0.937260   -1.469931
      3          1           0       -0.000000   -0.937260   -1.469931
      4          8           0        0.000000    0.000000    1.026419
 ---------------------------------------------------------------------

 SCF Done:  E(RB3LYP) =  -114.323429779     A.U. after   12 cycles

 Excitation energies and oscillator strengths:

 Excited State   1:      Singlet-A2     1.1369 eV 1090.59 nm  f=0.0000  <S**2>=0.000
       3 -> 27         0.00062
       3 -> 38         0.00037
       3 -> 47         0.00330
       4 -> 27         0.00032
       4 -> 47        -0.00085
       5 ->  9         0.00061
       5 -> 13         0.00107
       5 -> 18         0.00144
       5 -> 23         0.00125
       5 -> 28         0.00106
       5 -> 37         0.00062
       5 -> 44         0.00018
       5 -> 52         0.00014
       6 -> 27        -0.00054
       6 -> 38        -0.00050
       6 -> 47         0.00084
       7 -> 12        -0.00139
       7 -> 16         0.00538
       7 -> 19        -0.00486
       7 -> 22        -0.00114
       7 -> 25        -0.00048
       7 -> 29        -0.00201
       7 -> 33         0.00026
       7 -> 49         0.00013
       7 -> 53         0.00036
       8 ->  9         0.71164
       8 -> 13        -0.00557
       8 -> 18         0.02047
       8 -> 23        -0.00052
       8 -> 28         0.00995
       8 -> 31         0.00160
       8 -> 37         0.00046
       8 -> 46        -0.00028
       8 -> 52         0.00181
       3 <- 27         0.00014
       3 <- 38         0.00016
       3 <- 47         0.00333
       4 <- 27         0.00061
       4 <- 38         0.00017
       4 <- 47        -0.00065
       5 <-  9         0.00053
       5 <- 13        -0.00029
       5 <- 18        -0.00031
       5 <- 23         0.00014
       5 <- 28        -0.00024
       5 <- 31         0.00020
       5 <- 37         0.00036
       6 <- 38        -0.00037
       6 <- 47         0.00060
       7 <- 12         0.00211
       7 <- 16        -0.01051
       7 <- 19         0.00604
       7 <- 22         0.00530
       7 <- 25        -0.00063
       7 <- 29         0.00565
       7 <- 33        -0.00034
       7 <- 49        -0.00047
       7 <- 53         0.00144
       8 <-  9        -0.08226
       8 <- 13        -0.00064
       8 <- 18        -0.00795
       8 <- 23        -0.00043
       8 <- 28        -0.00280
       8 <- 31        -0.00085
       8 <- 37        -0.00016
       8 <- 46         0.00013
       8 <- 52         0.00042
 This state for optimization and/or second-order correction.
 Total Energy, E(TD-HF/TD-DFT) =  -114.281651115
 Copying the excited state density for this state as the 1-particle RhoCI density.

 Excited State   2:      Singlet-A1     2.9823 eV  415.73 nm  f=0.0234  <S**2>=0.000
       3 -> 10        -0.01254
       3 -> 11        -0.00225
       3 -> 14         0.00038
       3 -> 15         0.00013
       3 -> 17        -0.00291
       3 -> 20        -0.00325
       3 -> 21         0.00064
       3 -> 24         0.00018
       3 -> 26         0.00084
       3 -> 32         0.00265
       3 -> 34         0.00095
       3 -> 36        -0.00090
       3 -> 39        -0.00032
       3 -> 43         0.00046
       3 -> 45        -0.00120
       3 -> 48         0.00231
       3 -> 50         0.00164
       3 -> 54        -0.00013
       4 -> 10        -0.00038
       4 -> 11         0.00931
       4 -> 14         0.00141
       4 -> 15        -0.00710
       4 -> 17         0.00197
       4 -> 20         0.00159
       4 -> 21         0.00021
       4 -> 24        -0.00360
       4 -> 26         0.00281
       4 -> 30         0.00010
       4 -> 32        -0.00107
       4 -> 34        -0.00066
       4 -> 39        -0.00026
       4 -> 43        -0.00041
       4 -> 45         0.00075
       4 -> 48        -0.00068
       4 -> 50        -0.00023
       4 -> 54         0.00013
       5 -> 12         0.00816
       5 -> 16         0.00147
       5 -> 19         0.00101
       5 -> 22         0.00632
       5 -> 25        -0.00381
       5 -> 29         0.00033
       5 -> 33        -0.00226
       5 -> 35         0.00270
       5 -> 40        -0.00088
       5 -> 42        -0.00099
       5 -> 51        -0.00089
       6 -> 10         0.26146
       6 -> 11         0.02991
       6 -> 14        -0.03256
       6 -> 15        -0.01909
       6 -> 17        -0.01460
       6 -> 20        -0.00037
       6 -> 21         0.00406
       6 -> 24        -0.00675
       6 -> 26        -0.00248
       6 -> 30        -0.00250
       6 -> 32         0.00470
       6 -> 34         0.00136
       6 -> 36         0.00070
       6 -> 39        -0.00149
       6 -> 43         0.00078
       6 -> 45        -0.00095
       6 -> 48         0.00070
       6 -> 50         0.00046
       6 -> 54        -0.00099
       7 ->  9         0.67369
       7 -> 13        -0.00786
       7 -> 18        -0.00874
       7 -> 23        -0.00299
       7 -> 28         0.00165
       7 -> 31        -0.00329
       7 -> 37         0.00135
       7 -> 44        -0.00095
       7 -> 52         0.00105
       8 -> 12        -0.00708
       8 -> 16         0.03076
       8 -> 19        -0.01697
       8 -> 22        -0.01008
       8 -> 29        -0.00710
       8 -> 33         0.00080
       8 -> 35        -0.00047
       8 -> 40         0.00015
       8 -> 42         0.00018
       8 -> 51         0.00012
       8 -> 53        -0.00047
       3 <- 10        -0.01028
       3 <- 11        -0.00218
       3 <- 14         0.00030
       3 <- 15        -0.00031
       3 <- 17        -0.00172
       3 <- 20        -0.00293
       3 <- 21         0.00021
       3 <- 24        -0.00025
       3 <- 30         0.00028
       3 <- 32         0.00224
       3 <- 34         0.00048
       3 <- 36        -0.00095
       3 <- 39        -0.00026
       3 <- 43         0.00049
       3 <- 45        -0.00130
       3 <- 48         0.00231
       3 <- 50         0.00165
       4 <- 10         0.00088
       4 <- 11         0.00713
       4 <- 14         0.00125
       4 <- 15        -0.00507
       4 <- 17         0.00124
       4 <- 20         0.00218
       4 <- 24        -0.00282
       4 <- 26         0.00256
       4 <- 30        -0.00041
       4 <- 32        -0.00105
       4 <- 34        -0.00056
       4 <- 36         0.00027
       4 <- 39        -0.00031
       4 <- 43        -0.00037
       4 <- 45         0.00066
       4 <- 48        -0.00041
       4 <- 50        -0.00011
       4 <- 54         0.00011
       5 <- 12         0.00525
       5 <- 16         0.00107
       5 <- 19         0.00085
       5 <- 22         0.00472
       5 <- 25        -0.00307
       5 <- 29         0.00034
       5 <- 33        -0.00193
       5 <- 35         0.00237
       5 <- 40        -0.00082
       5 <- 42        -0.00089
       5 <- 51        -0.00085
       6 <- 10         0.09174
       6 <- 11         0.01338
       6 <- 14        -0.01679
       6 <- 15        -0.01083
       6 <- 17        -0.00929
       6 <- 20        -0.00156
       6 <- 21         0.00302
       6 <- 24        -0.00457
       6 <- 26        -0.00113
       6 <- 30        -0.00133
       6 <- 32         0.00440
       6 <- 34         0.00152
       6 <- 36         0.00021
       6 <- 39        -0.00133
       6 <- 43         0.00065
       6 <- 45        -0.00069
       6 <- 48         0.00039
       6 <- 50         0.00033
       6 <- 54        -0.00092
       7 <-  9        -0.13004
       7 <- 13         0.00242
       7 <- 18        -0.01056
       7 <- 23         0.00022
       7 <- 28        -0.00124
       7 <- 31        -0.00158
       7 <- 37         0.00066
       7 <- 44        -0.00084
       7 <- 46        -0.00045
       7 <- 52         0.00098
       8 <- 12        -0.00328
       8 <- 16         0.01673
       8 <- 19        -0.01050
       8 <- 22        -0.00701
       8 <- 25         0.00013
       8 <- 29        -0.00584
       8 <- 33         0.00065
       8 <- 35        -0.00036
       8 <- 40         0.00011
       8 <- 42         0.00014
       8 <- 49        -0.00014
       8 <- 51         0.00011
       8 <- 53        -0.00045

 Excited State   3:      Singlet-B2     3.1042 eV  399.41 nm  f=0.0016  <S**2>=0.000
       3 -> 12        -0.00109
       3 -> 16         0.00101
       3 -> 19        -0.00357
       3 -> 22         0.00111
       3 -> 25        -0.00088
       3 -> 29        -0.00233
       3 -> 33         0.00031
       3 -> 35         0.00117
       3 -> 40        -0.00113
       3 -> 42        -0.00039
       3 -> 49        -0.00400
       3 -> 51         0.00015
       3 -> 53         0.00024
       4 -> 12         0.00034
       4 -> 16        -0.00125
       4 -> 19         0.00031
       4 -> 22         0.00154
       4 -> 25         0.00049
       4 -> 29         0.00074
       4 -> 33        -0.00029
       4 -> 35         0.00040
       4 -> 40         0.00023
       4 -> 49         0.00073
       5 -> 10         0.00926
       5 -> 11         0.00097
       5 -> 14        -0.00253
       5 -> 15         0.00271
       5 -> 17        -0.00053
       5 -> 20         0.00186
       5 -> 21         0.00256
       5 -> 24         0.00130
       5 -> 26        -0.00033
       5 -> 30        -0.00209
       5 -> 32        -0.00083
       5 -> 34        -0.00015
       5 -> 39         0.00056
       5 -> 41         0.00036
       5 -> 48        -0.00031
       5 -> 50         0.00021
       5 -> 54        -0.00017
       6 -> 12         0.00239
       6 -> 16        -0.00285
       6 -> 19         0.00427
       6 -> 22        -0.00067
       6 -> 25         0.00115
       6 -> 29         0.00034
       6 -> 33        -0.00019
       6 -> 35        -0.00107
       6 -> 40         0.00066
       6 -> 42         0.00058
       6 -> 49         0.00105
       6 -> 53        -0.00045
       7 -> 27        -0.00047
       7 -> 38         0.00027
       7 -> 47         0.00278
       8 -> 10         0.70548
       8 -> 11         0.04703
       8 -> 14        -0.04478
       8 -> 15        -0.01891
       8 -> 17        -0.01646
       8 -> 20         0.00623
       8 -> 21         0.00514
       8 -> 24        -0.00526
       8 -> 26        -0.00393
       8 -> 30        -0.01351
       8 -> 32         0.00068
       8 -> 34        -0.00099
       8 -> 36         0.00170
       8 -> 39         0.00034
       8 -> 41        -0.00017
       8 -> 45        -0.00076
       8 -> 48        -0.00342
       8 -> 50         0.00121
       8 -> 54        -0.00249
       3 <- 12        -0.00038
       3 <- 16         0.00037
       3 <- 19        -0.00179
       3 <- 22         0.00089
       3 <- 25        -0.00079
       3 <- 29        -0.00096
       3 <- 33         0.00029
       3 <- 35         0.00074
       3 <- 40        -0.00098
       3 <- 42        -0.00023
       3 <- 49        -0.00405
       3 <- 51         0.00015
       3 <- 53         0.00067
       4 <- 12         0.00012
       4 <- 16        -0.00156
       4 <- 19         0.00019
       4 <- 22         0.00192
       4 <- 25         0.00024
       4 <- 29         0.00102
       4 <- 33        -0.00030
       4 <- 35         0.00057
       4 <- 49         0.00051
       5 <- 10        -0.00095
       5 <- 11        -0.00051
       5 <- 14        -0.00039
       5 <- 15         0.00219
       5 <- 17         0.00019
       5 <- 20         0.00076
       5 <- 21         0.00148
       5 <- 24         0.00144
       5 <- 30        -0.00046
       5 <- 32        -0.00023
       5 <- 39         0.00028
       5 <- 41         0.00038
       5 <- 45        -0.00019
       5 <- 48        -0.00033
       5 <- 50         0.00011
       6 <- 12        -0.00100
       6 <- 16         0.00813
       6 <- 19        -0.00461
       6 <- 22        -0.00521
       6 <- 25         0.00133
       6 <- 29        -0.00622
       6 <- 33         0.00016
       6 <- 35        -0.00086
       6 <- 40         0.00065
       6 <- 42         0.00056
       6 <- 49         0.00158
       6 <- 53        -0.00144
       7 <- 27        -0.00048
       7 <- 38         0.00022
       7 <- 47         0.00242
       8 <- 10        -0.05208
       8 <- 11        -0.00704
       8 <- 14         0.00697
       8 <- 15         0.00220
       8 <- 17         0.00248
       8 <- 20        -0.00350
       8 <- 21        -0.00108
       8 <- 24         0.00143
       8 <- 26         0.00099
       8 <- 30         0.00254
       8 <- 32         0.00232
       8 <- 34         0.00077
       8 <- 36        -0.00089
       8 <- 39        -0.00089
       8 <- 41         0.00016
       8 <- 43         0.00033
       8 <- 45        -0.00145
       8 <- 48        -0.00286
       8 <- 50         0.00110
       8 <- 54        -0.00066

 Excited State   4:      Singlet-B1     3.3637 eV  368.60 nm  f=0.0000  <S**2>=0.000
       3 ->  9        -0.02003
       3 -> 13         0.00063
       3 -> 18        -0.00357
       3 -> 23         0.00113
       3 -> 28        -0.00132
       3 -> 31        -0.00104
       3 -> 37         0.00018
       3 -> 44         0.00028
       3 -> 46        -0.00080
       3 -> 52         0.00056
       4 ->  9        -0.00079
       4 -> 13        -0.00010
       4 -> 18         0.00024
       4 -> 23        -0.00016
       4 -> 28         0.00066
       4 -> 31        -0.00093
       4 -> 37        -0.00012
       4 -> 52        -0.00018
       5 -> 27        -0.00150
       5 -> 38         0.00050
       5 -> 47         0.00036
       6 ->  9         0.54028
       6 -> 13        -0.01404
       6 -> 18         0.01246
       6 -> 23        -0.00858
       6 -> 28         0.00380
       6 -> 31         0.00092
       6 -> 37        -0.00061
       6 -> 44        -0.00116
       6 -> 46         0.00263
       6 -> 52         0.00054
       7 -> 10         0.46086
       7 -> 11         0.03231
       7 -> 14        -0.03195
       7 -> 15        -0.01421
       7 -> 17        -0.01219
       7 -> 20         0.00426
       7 -> 21         0.00246
       7 -> 24        -0.00526
       7 -> 26        -0.00417
       7 -> 30        -0.00726
       7 -> 32         0.00117
       7 -> 34        -0.00041
       7 -> 36         0.00108
       7 -> 41        -0.00014
       7 -> 43         0.00048
       7 -> 45        -0.00098
       7 -> 48         0.00319
       7 -> 50         0.00106
       7 -> 54        -0.00086
       8 -> 27         0.00013
       8 -> 47         0.00388
       3 <-  9        -0.00665
       3 <- 13        -0.00060
       3 <- 18        -0.00231
       3 <- 23        -0.00026
       3 <- 28        -0.00082
       3 <- 31        -0.00072
       3 <- 46        -0.00074
       3 <- 52         0.00066
       4 <-  9         0.00050
       4 <- 13         0.00039
       4 <- 18         0.00120
       4 <- 23         0.00015
       4 <- 28         0.00143
       4 <- 31        -0.00070
       4 <- 44        -0.00031
       4 <- 46        -0.00015
       5 <- 27        -0.00156
       5 <- 38         0.00048
       5 <- 47         0.00033
       6 <-  9        -0.05645
       6 <- 13         0.00233
       6 <- 18        -0.00632
       6 <- 23         0.00066
       6 <- 28        -0.00421
       6 <- 31        -0.00155
       6 <- 37        -0.00032
       6 <- 44         0.00013
       6 <- 46         0.00251
       6 <- 52        -0.00053
       7 <- 10        -0.06395
       7 <- 11        -0.00878
       7 <- 14         0.01185
       7 <- 15         0.00632
       7 <- 17         0.00366
       7 <- 20         0.00057
       7 <- 21        -0.00299
       7 <- 24         0.00317
       7 <- 26         0.00173
       7 <- 30         0.00237
       7 <- 34         0.00030
       7 <- 36         0.00025
       7 <- 39        -0.00048
       7 <- 41         0.00024
       7 <- 43         0.00026
       7 <- 45        -0.00068
       7 <- 48         0.00294
       7 <- 50         0.00127
       7 <- 54         0.00042
       8 <- 27         0.00047
       8 <- 47         0.00357

 Excited State   5:      Singlet-B1     3.8923 eV  318.54 nm  f=0.0060  <S**2>=0.000
       3 ->  9         0.00354
       3 -> 13        -0.00019
       3 -> 18        -0.00067
       3 -> 28        -0.00190
       3 -> 31        -0.00101
       3 -> 44        -0.00022
       3 -> 46        -0.00328
       3 -> 52        -0.00038
       4 ->  9        -0.02929
       4 -> 13         0.00591
       4 -> 18         0.00065
       4 -> 23         0.00470
       4 -> 28         0.00054
       4 -> 31         0.00072
       4 -> 37         0.00036
       4 -> 44        -0.00039
       4 -> 46         0.00094
       4 -> 52         0.00021
       5 -> 27        -0.00578
       5 -> 38        -0.00374
       6 ->  9        -0.45892
       6 -> 13         0.00791
       6 -> 18        -0.00352
       6 -> 23         0.00525
       6 -> 28         0.00168
       6 -> 31        -0.00433
       6 -> 37         0.00276
       6 -> 44         0.00127
       6 -> 46        -0.00150
       6 -> 52        -0.00104
       7 -> 10         0.53534
       7 -> 11         0.02920
       7 -> 14        -0.03009
       7 -> 15        -0.02118
       7 -> 17        -0.00556
       7 -> 20        -0.00218
       7 -> 21         0.00185
       7 -> 24        -0.00707
       7 -> 26        -0.00379
       7 -> 30        -0.00613
       7 -> 32        -0.00030
       7 -> 34        -0.00331
       7 -> 36        -0.00144
       7 -> 39         0.00062
       7 -> 43         0.00031
       7 -> 45        -0.00064
       7 -> 48        -0.00044
       7 -> 50        -0.00024
       7 -> 54        -0.00157
       8 -> 27         0.00046
       8 -> 38         0.00017
       8 -> 47        -0.00050
       3 <-  9         0.00142
       3 <- 13         0.00091
       3 <- 23         0.00068
       3 <- 28        -0.00141
       3 <- 31         0.00014
       3 <- 37        -0.00031
       3 <- 44        -0.00027
       3 <- 46        -0.00338
       4 <-  9        -0.01509
       4 <- 13         0.00296
       4 <- 18        -0.00021
       4 <- 23         0.00300
       4 <- 28         0.00037
       4 <- 31         0.00051
       4 <- 37         0.00034
       4 <- 44        -0.00050
       4 <- 46         0.00057
       4 <- 52         0.00015
       5 <- 27        -0.00422
       5 <- 38        -0.00317
       6 <-  9        -0.01620
       6 <- 13        -0.00104
       6 <- 18        -0.00177
       6 <- 23         0.00051
       6 <- 28         0.00108
       6 <- 31        -0.00470
       6 <- 37         0.00262
       6 <- 44         0.00095
       6 <- 46        -0.00078
       6 <- 52        -0.00122
       7 <- 10        -0.00118
       7 <- 11         0.00048
       7 <- 14        -0.00227
       7 <- 15        -0.00678
       7 <- 17        -0.00031
       7 <- 20        -0.00503
       7 <- 21        -0.00011
       7 <- 24        -0.00343
       7 <- 26        -0.00071
       7 <- 30        -0.00060
       7 <- 32         0.00114
       7 <- 34        -0.00215
       7 <- 36        -0.00242
       7 <- 39         0.00018
       7 <- 43         0.00038

 The electronic state is 1-A1.
 Alpha  occ. eigenvalues --  -19.17803 -10.34216  -0.88481  -0.71848  -0.49397
 Alpha  occ. eigenvalues --   -0.38055  -0.30164  -0.28599
 Alpha virt. eigenvalues --   -0.17817  -0.09307  -0.00225   0.04033   0.06085
 Alpha virt. eigenvalues --    0.06176   0.11575   0.13029   0.18633   0.20895
 Alpha virt. eigenvalues --    0.23901   0.30423   0.38478   0.39245   0.50476

 Mulliken charges:
               1
     1  C   -0.106470
     2  H    0.194244
     3  H    0.194244
     4  O   -0.282019
 Sum of Mulliken charges =  -0.00000

 Dipole moment (field-independent basis, Debye):
    X=             -0.0000    Y=              0.0000    Z=             -4.3008  Tot=              4.3008
 Quadrupole moment (field-independent basis, Debye-Ang):
   XX=            -13.0994   YY=            -12.0867   ZZ=            -10.4166
   XY=              0.0000   XZ=              0.0000   YZ=             -0.0000

 Normal termination of Gaussian 16 at Fri Sep 17 10:53:13 2021.
