 Gaussian 16, Revision C.01,
 Gaussian 16:  ES64L-G16RevC.01  3-Jul-2019

 ----------------------------------------
 #P wB97XD/6-311+G* NoSymm #P Field=Y+272
 ----------------------------------------

 -------
 TitleMe
 -------
 Symbolic Z-matrix:
 Charge =  1 Multiplicity = 1

                          Input orientation:
 ---------------------------------------------------------------------
 Center     Atomic      Atomic             Coordinates (Angstroms)
 Number     Number       Type             X           Y           Z
 ---------------------------------------------------------------------
      1          6           0        0.519300    1.233000   -0.031900
      2          6           0        1.944500    1.269200   -0.036700
      3          6           0        2.620400    0.092800   -0.025000
      4          6           0       -0.196000    0.030100    0.001000
      5          1           0       -0.020700    2.174200   -0.043400
      6          1           0        2.482800    2.208900   -0.036100
      7          1           0       -1.277700    0.039900    0.011700
      8          7           0        4.092100    0.095900    0.036600
      9          8           0        4.639300   -1.021700    0.144600
     10          8           0        4.664900    1.198400   -0.023300
     11          6           0        0.494300   -1.167100    0.021000
     12          1           0       -0.032500   -2.114900    0.054500
     13          6           0        1.962900   -1.216500   -0.021100
     14          1           0        2.443600   -1.963100    0.615100
     15         35           0        2.173000   -1.949100   -1.906200
 ---------------------------------------------------------------------

 SCF Done:  E(RwB97XD) =  -3010.58450778     A.U. after   24 cycles

 Alpha  occ. eigenvalues -- -483.27536 -62.82483 -56.62234 -56.61598 -56.61571
 Alpha  occ. eigenvalues --  -19.46533 -19.46039 -14.85428 -10.58523 -10.56685
 Alpha  occ. eigenvalues --  -10.55072 -10.54416 -10.53922 -10.51925  -8.98232
 Alpha  occ. eigenvalues --   -6.81057  -6.78981  -6.78898  -2.90923  -2.90393
 Alpha  occ. eigenvalues --   -2.90328  -2.88668  -2.88666  -1.49834  -1.32819
 Alpha  occ. eigenvalues --   -1.21183  -1.11977  -1.10686  -1.02624  -0.98762
 Alpha  occ. eigenvalues --   -0.94003  -0.89724  -0.84734  -0.80446  -0.79866
 Alpha  occ. eigenvalues --   -0.79202  -0.77119  -0.75805  -0.74185  -0.70480
 Alpha  occ. eigenvalues --   -0.67161  -0.66255  -0.61768  -0.58131  -0.57439
 Alpha  occ. eigenvalues --   -0.56485  -0.55643  -0.51427  -0.50990
 Alpha virt. eigenvalues --   -0.28408  -0.20900  -0.20168  -0.16480  -0.13382
 Alpha virt. eigenvalues --   -0.11926  -0.09749  -0.09561  -0.07372  -0.05324
 Alpha virt. eigenvalues --   -0.05055  -0.03292  -0.01461  -0.00690  -0.00414

 Mulliken charges:
               1
     1  C   -0.103723
     2  C    0.252965
     3  C   -0.158379
     4  C   -0.414428
     5  H    0.221743
     6  H    0.236175
     7  H    0.325615
     8  N   -0.249558
     9  O    0.241299
    10  O   -0.082753
    11  C   -0.153304
    12  H    0.447039
    13  C   -0.433662
    14  H    0.473994
    15  Br   0.396977
 Sum of Mulliken charges =   1.00000

 Dipole moment (field-independent basis, Debye):
    X=              3.2029    Y=             -8.9657    Z=             -1.9025  Tot=              9.7089
 Quadrupole moment (field-independent basis, Debye-Ang):
   XX=            -67.4377   YY=            -48.0654   ZZ=            -59.3673
   XY=            -19.8319   XZ=             -5.0789   YZ=              6.7554

 Normal termination of Gaussian 16 at Thu May  2 14:24:11 2024.
