 Gaussian 16, Revision C.01,
 Gaussian 16:  ES64L-G16RevC.01  3-Jul-2019

 ----------------------------------------
 #P wB97XD/6-311+G* NoSymm #P Field=Y+272
 ----------------------------------------

 -------
 TitleMe
 -------
 Symbolic Z-matrix:
 Charge =  1 Multiplicity = 1

                          Input orientation:
 ---------------------------------------------------------------------
 Center     Atomic      Atomic             Coordinates (Angstroms)
 Number     Number       Type             X           Y           Z
 ---------------------------------------------------------------------
      1          6           0        0.029500    1.339700    0.068200
      2          6           0        1.434800    1.286700    0.006400
      3          6           0        2.111800    0.051100   -0.005400
      4          6           0        1.445100   -1.137200    0.031200
      5          6           0       -0.687900    0.168200    0.110000
      6          1           0       -0.471300    2.298400    0.078100
      7          1           0        2.027300    2.196500   -0.032200
      8          1           0        1.989700   -2.076400    0.023200
      9          1           0       -1.771600    0.180400    0.158200
     10          7           0        3.586400    0.051000   -0.067500
     11          8           0        4.147100   -1.059700   -0.088100
     12          8           0        4.145000    1.163900   -0.090100
     13          6           0       -0.023600   -1.145800    0.083500
     14          1           0       -0.436700   -1.872500    0.788900
     15         35           0       -0.535900   -1.869700   -1.740800
 ---------------------------------------------------------------------

 SCF Done:  E(RwB97XD) =  -3010.58382090     A.U. after   24 cycles

 Alpha  occ. eigenvalues -- -483.27494 -62.82450 -56.62195 -56.61558 -56.61546
 Alpha  occ. eigenvalues --  -19.45560 -19.45235 -14.84689 -10.57687 -10.56266
 Alpha  occ. eigenvalues --  -10.56068 -10.55034 -10.54712 -10.54033  -8.98203
 Alpha  occ. eigenvalues --   -6.81016  -6.78938  -6.78900  -2.90886  -2.90342
 Alpha  occ. eigenvalues --   -2.90312  -2.88651  -2.88650  -1.49076  -1.32077
 Alpha  occ. eigenvalues --   -1.21549  -1.12433  -1.10990  -1.01419  -1.00255
 Alpha  occ. eigenvalues --   -0.94231  -0.90054  -0.85093  -0.80400  -0.79661
 Alpha  occ. eigenvalues --   -0.79311  -0.77720  -0.75311  -0.74537  -0.71038
 Alpha  occ. eigenvalues --   -0.68110  -0.66506  -0.62158  -0.58604  -0.56835
 Alpha  occ. eigenvalues --   -0.55670  -0.54788  -0.51520  -0.51298
 Alpha virt. eigenvalues --   -0.28161  -0.21140  -0.20224  -0.16817  -0.15039
 Alpha virt. eigenvalues --   -0.11121  -0.10236  -0.09890  -0.07610  -0.05675
 Alpha virt. eigenvalues --   -0.05218  -0.03360  -0.01621  -0.01265  -0.00775

 Mulliken charges:
               1
     1  C   -0.620630
     2  C    0.699630
     3  C   -0.885689
     4  C    0.432058
     5  C   -0.127826
     6  H    0.209598
     7  H    0.257428
     8  H    0.456355
     9  H    0.344471
    10  N   -0.098890
    11  O    0.170936
    12  O   -0.121380
    13  C   -0.557699
    14  H    0.470980
    15  Br   0.370659
 Sum of Mulliken charges =   1.00000

 Dipole moment (field-independent basis, Debye):
    X=             -1.6758    Y=             -8.5301    Z=             -1.1206  Tot=              8.7651
 Quadrupole moment (field-independent basis, Debye-Ang):
   XX=            -72.5805   YY=            -49.4244   ZZ=            -60.4842
   XY=             -7.4103   XZ=              2.0141   YZ=              5.3410

 Normal termination of Gaussian 16 at Wed May  1 15:15:48 2024.
