 Gaussian 16, Revision A.03,
 Gaussian 16:  ES64L-G16RevA.03 25-Dec-2016

 --------------------------------------------------------------------
 #p B3LYP/6-311+G** #p TD=(singlets,nstates=30)IOp(6/8=3) IOp(9/40=4)
 --------------------------------------------------------------------

 -----------------------------
 Scan Step 20, Bond Length 0.6
 -----------------------------
 Symbolic Z-matrix:
 Charge =  0 Multiplicity = 1

                         Standard orientation:
 ---------------------------------------------------------------------
 Center     Atomic      Atomic             Coordinates (Angstroms)
 Number     Number       Type             X           Y           Z
 ---------------------------------------------------------------------
      1          6           0        0.000000   -0.000000   -0.226081
      2          1           0        0.000000    0.937260   -0.817431
      3          1           0       -0.000000   -0.937260   -0.817431
      4          8           0        0.000000    0.000000    0.373919
 ---------------------------------------------------------------------

 SCF Done:  E(RB3LYP) =  -111.566482547     A.U. after   11 cycles

 Excitation energies and oscillator strengths:

 Excited State   1:      Singlet-B2     4.5216 eV  274.21 nm  f=0.1397  <S**2>=0.000
       3 -> 11         0.00075
       3 -> 15         0.00093
       3 -> 19         0.00075
       3 -> 22         0.00078
       3 -> 25         0.00118
       3 -> 29         0.00014
       3 -> 31        -0.00027
       3 -> 40        -0.00037
       3 -> 43         0.00023
       3 -> 54         0.00016
       4 ->  9        -0.00262
       4 -> 12         0.00210
       4 -> 13         0.00311
       4 -> 16         0.00134
       4 -> 18         0.00213
       4 -> 20         0.00210
       4 -> 21         0.00157
       4 -> 24         0.00127
       4 -> 26        -0.00076
       4 -> 30         0.00128
       4 -> 32         0.00123
       4 -> 38        -0.00056
       4 -> 42         0.00045
       4 -> 44        -0.00026
       4 -> 47         0.00072
       4 -> 49        -0.00011
       4 -> 53        -0.00016
       5 -> 28         0.00204
       5 -> 35         0.00092
       5 -> 45         0.00072
       6 -> 11        -0.00645
       6 -> 15         0.00312
       6 -> 19        -0.00052
       6 -> 22        -0.00017
       6 -> 25         0.00430
       6 -> 29         0.00081
       6 -> 31        -0.00066
       6 -> 40        -0.00015
       6 -> 43         0.00016
       6 -> 46         0.00032
       7 -> 11         0.00898
       7 -> 15         0.00411
       7 -> 19         0.00365
       7 -> 22         0.00046
       7 -> 25         0.00124
       7 -> 29        -0.00115
       7 -> 31         0.00100
       7 -> 37        -0.00065
       7 -> 43        -0.00036
       7 -> 46         0.00043
       7 -> 50         0.00042
       7 -> 54        -0.00013
       8 ->  9         0.70467
       8 -> 12        -0.00313
       8 -> 13         0.05818
       8 -> 16        -0.00511
       8 -> 18        -0.02308
       8 -> 20         0.00555
       8 -> 21         0.01106
       8 -> 24        -0.00034
       8 -> 26        -0.00081
       8 -> 30        -0.00343
       8 -> 32        -0.00200
       8 -> 33        -0.00060
       8 -> 38        -0.00105
       8 -> 39        -0.00012
       8 -> 42         0.00075
       8 -> 44         0.00046
       8 -> 47        -0.00063
       8 -> 49         0.00026
       3 <- 11         0.00036
       3 <- 15         0.00057
       3 <- 19         0.00047
       3 <- 22         0.00065
       3 <- 25         0.00089
       3 <- 31        -0.00028
       3 <- 40        -0.00037
       3 <- 43         0.00023
       3 <- 54         0.00017
       4 <-  9        -0.00105
       4 <- 12        -0.00017
       4 <- 13         0.00255
       4 <- 16         0.00153
       4 <- 18         0.00026
       4 <- 20         0.00133
       4 <- 21         0.00129
       4 <- 24         0.00085
       4 <- 26        -0.00131
       4 <- 30         0.00098
       4 <- 32         0.00054
       4 <- 38        -0.00037
       4 <- 39         0.00014
       4 <- 42         0.00036
       4 <- 44        -0.00022
       4 <- 47         0.00066
       5 <- 28         0.00174
       5 <- 35         0.00075
       5 <- 45         0.00061
       6 <- 11        -0.00180
       6 <- 15         0.00301
       6 <- 22         0.00037
       6 <- 25         0.00326
       6 <- 29         0.00037
       6 <- 31        -0.00059
       6 <- 37         0.00012
       6 <- 40        -0.00014
       6 <- 43         0.00013
       6 <- 46         0.00029
       6 <- 50         0.00011
       7 <- 11         0.00218
       7 <- 15         0.00182
       7 <- 19         0.00079
       7 <- 22         0.00017
       7 <- 25         0.00054
       7 <- 29        -0.00173
       7 <- 31         0.00084
       7 <- 37        -0.00041
       7 <- 43        -0.00024
       7 <- 46         0.00046
       7 <- 50         0.00050
       8 <-  9        -0.01168
       8 <- 12        -0.00677
       8 <- 13         0.02388
       8 <- 16         0.00736
       8 <- 18         0.00062
       8 <- 20         0.00112
       8 <- 21         0.00581
       8 <- 24         0.00287
       8 <- 26        -0.00056
       8 <- 30        -0.00232
       8 <- 32        -0.00157
       8 <- 33        -0.00106
       8 <- 38        -0.00102
       8 <- 39        -0.00016
       8 <- 42         0.00068
       8 <- 44         0.00017
       8 <- 47        -0.00055
       8 <- 49         0.00017
 This state for optimization and/or second-order correction.
 Total Energy, E(TD-HF/TD-DFT) =  -111.400318297
 Copying the excited state density for this state as the 1-particle RhoCI density.

 Excited State   2:      Singlet-A2     4.8934 eV  253.37 nm  f=0.0000  <S**2>=0.000
       3 -> 28        -0.00189
       3 -> 35        -0.00104
       3 -> 45        -0.00033
       4 -> 10        -0.00077
       4 -> 14        -0.00043
       4 -> 17         0.00261
       4 -> 23        -0.00089
       4 -> 27        -0.00201
       4 -> 34         0.00021
       4 -> 36        -0.00114
       4 -> 48        -0.00014
       4 -> 52        -0.00022
       5 -> 11         0.00021
       5 -> 15        -0.00020
       5 -> 19         0.00032
       5 -> 22        -0.00073
       5 -> 25         0.00025
       5 -> 29         0.00032
       5 -> 37        -0.00031
       5 -> 40         0.00014
       5 -> 43        -0.00036
       5 -> 46        -0.00028
       5 -> 50         0.00017
       6 -> 28        -0.00311
       6 -> 35         0.00060
       6 -> 45         0.00012
       7 -> 28         0.00163
       7 -> 35        -0.00032
       7 -> 45        -0.00032
       8 -> 10         0.70659
       8 -> 14        -0.00915
       8 -> 17        -0.02625
       8 -> 23        -0.00365
       8 -> 27         0.00048
       8 -> 34         0.00339
       8 -> 36        -0.00160
       8 -> 41         0.00050
       8 -> 48         0.00015
       8 -> 52         0.00029
       3 <- 28        -0.00158
       3 <- 35        -0.00090
       3 <- 45        -0.00031
       4 <- 10        -0.00020
       4 <- 14         0.00040
       4 <- 17         0.00081
       4 <- 23        -0.00014
       4 <- 27        -0.00046
       4 <- 34         0.00067
       4 <- 36        -0.00067
       4 <- 41        -0.00014
       5 <- 11         0.00049
       5 <- 15        -0.00048
       5 <- 19         0.00114
       5 <- 22        -0.00093
       5 <- 25         0.00081
       5 <- 29         0.00123
       5 <- 31         0.00014
       5 <- 37        -0.00060
       5 <- 43        -0.00040
       5 <- 46        -0.00031
       5 <- 54        -0.00019
       6 <- 28        -0.00302
       6 <- 35         0.00074
       6 <- 45         0.00011
       7 <- 28         0.00166
       7 <- 35        -0.00044
       7 <- 45        -0.00034
       8 <- 10         0.00258
       8 <- 14         0.00308
       8 <- 17         0.00718
       8 <- 23        -0.00016
       8 <- 27        -0.00073
       8 <- 34         0.00323
       8 <- 36        -0.00128
       8 <- 41         0.00028
       8 <- 52         0.00012

 Excited State   3:      Singlet-B2     5.5668 eV  222.72 nm  f=0.0375  <S**2>=0.000
       3 -> 11        -0.00021
       3 -> 15         0.00042
       3 -> 19        -0.00040
       3 -> 22         0.00028
       3 -> 25         0.00017
       3 -> 29        -0.00021
       3 -> 31         0.00012
       3 -> 37        -0.00017
       3 -> 40         0.00017
       3 -> 43        -0.00018
       3 -> 54        -0.00019
       4 ->  9         0.00106
       4 -> 12         0.00020
       4 -> 13         0.00096
       4 -> 16         0.00188
       4 -> 18        -0.00091
       4 -> 20        -0.00058
       4 -> 21         0.00100
       4 -> 24         0.00088
       4 -> 26         0.00028
       4 -> 30        -0.00209
       4 -> 32        -0.00019
       4 -> 38         0.00039
       4 -> 39        -0.00092
       4 -> 42        -0.00030
       4 -> 47        -0.00043
       5 -> 28        -0.00100
       5 -> 35        -0.00114
       5 -> 45        -0.00061
       6 -> 11        -0.00083
       6 -> 15         0.00371
       6 -> 19        -0.00199
       6 -> 22        -0.00019
       6 -> 25         0.00155
       6 -> 29         0.00207
       6 -> 31         0.00046
       6 -> 37         0.00055
       6 -> 40         0.00041
       6 -> 43         0.00028
       6 -> 46        -0.00027
       6 -> 50        -0.00023
       6 -> 54         0.00015
       7 -> 11        -0.00131
       7 -> 15        -0.00421
       7 -> 19        -0.00101
       7 -> 22         0.00012
       7 -> 25        -0.00306
       7 -> 29        -0.00114
       7 -> 31        -0.00048
       7 -> 37         0.00050
       7 -> 46        -0.00056
       7 -> 50        -0.00026
       7 -> 54         0.00015
       8 ->  9         0.00071
       8 -> 12         0.70550
       8 -> 13         0.03843
       8 -> 16         0.02590
       8 -> 18         0.00479
       8 -> 20         0.01567
       8 -> 21         0.00545
       8 -> 24        -0.00097
       8 -> 26         0.00200
       8 -> 30        -0.00296
       8 -> 32         0.00052
       8 -> 33        -0.00016
       8 -> 38        -0.00070
       8 -> 39         0.00138
       8 -> 42         0.00090
       8 -> 44        -0.00015
       8 -> 47         0.00027
       8 -> 53        -0.00016
       3 <- 15         0.00037
       3 <- 19        -0.00015
       3 <- 22         0.00014
       3 <- 25         0.00026
       3 <- 31         0.00014
       3 <- 37        -0.00019
       3 <- 40         0.00014
       3 <- 43        -0.00018
       3 <- 54        -0.00023
       4 <-  9        -0.00106
       4 <- 12        -0.00020
       4 <- 13         0.00106
       4 <- 16         0.00066
       4 <- 18         0.00053
       4 <- 20        -0.00039
       4 <- 21         0.00069
       4 <- 24         0.00096
       4 <- 26         0.00039
       4 <- 30        -0.00141
       4 <- 33        -0.00054
       4 <- 38         0.00026
       4 <- 39        -0.00067
       4 <- 42        -0.00032
       4 <- 47        -0.00039
       5 <- 28        -0.00063
       5 <- 35        -0.00099
       5 <- 45        -0.00054
       6 <- 11        -0.00065
       6 <- 15         0.00076
       6 <- 19         0.00014
       6 <- 22        -0.00056
       6 <- 25         0.00146
       6 <- 29         0.00161
       6 <- 31         0.00064
       6 <- 37         0.00051
       6 <- 40         0.00034
       6 <- 43         0.00021
       6 <- 46        -0.00022
       6 <- 50        -0.00017
       6 <- 54         0.00011
       7 <- 11         0.00028
       7 <- 15        -0.00139
       7 <- 19        -0.00055
       7 <- 25        -0.00187
       7 <- 29        -0.00032
       7 <- 31        -0.00038
       7 <- 37         0.00017
       7 <- 46        -0.00049
       7 <- 50        -0.00034
       8 <-  9        -0.00621
       8 <- 12         0.00077
       8 <- 13         0.01227
       8 <- 16         0.00481
       8 <- 18        -0.00143
       8 <- 20        -0.00323
       8 <- 21         0.00326
       8 <- 24         0.00060
       8 <- 30        -0.00238
       8 <- 32         0.00054
       8 <- 33        -0.00018
       8 <- 38        -0.00053
       8 <- 39         0.00126
       8 <- 42         0.00079
       8 <- 44        -0.00010
       8 <- 47         0.00023

 Excited State   4:      Singlet-A1     5.7838 eV  214.37 nm  f=0.0015  <S**2>=0.000
       3 ->  9         0.00147
       3 -> 12        -0.00038
       3 -> 13         0.00020
       3 -> 16        -0.00091
       3 -> 18        -0.00171
       3 -> 20        -0.00015
       3 -> 21         0.00096
       3 -> 24        -0.00094
       3 -> 26        -0.00035
       3 -> 30         0.00065
       3 -> 32        -0.00078
       3 -> 33         0.00064
       3 -> 38         0.00047
       3 -> 39         0.00033
       3 -> 44        -0.00016
       3 -> 51         0.00019
       4 -> 11        -0.00565
       4 -> 15        -0.00528
       4 -> 19        -0.00476
       4 -> 22        -0.00268
       4 -> 25        -0.00322
       4 -> 29        -0.00042
       4 -> 37        -0.00094
       4 -> 40        -0.00014
       4 -> 43         0.00020
       4 -> 46        -0.00011
       4 -> 50         0.00011
       5 -> 10        -0.00255
       5 -> 14        -0.00394
       5 -> 17         0.00121
       5 -> 23         0.00365
       5 -> 27        -0.00051
       5 -> 34        -0.00076
       5 -> 36        -0.00058
       5 -> 48         0.00013
       6 ->  9         0.01122
       6 -> 12         0.00677
       6 -> 13        -0.00345
       6 -> 16        -0.00550
       6 -> 18        -0.00661
       6 -> 20         0.00388
       6 -> 21         0.00223
       6 -> 24        -0.00529
       6 -> 26         0.00142
       6 -> 30        -0.00041
       6 -> 32         0.00250
       6 -> 33         0.00182
       6 -> 38         0.00157
       6 -> 39        -0.00110
       6 -> 42        -0.00025
       6 -> 44         0.00080
       6 -> 47         0.00017
       6 -> 49        -0.00039
       6 -> 51         0.00012
       7 ->  9         0.00854
       7 -> 12        -0.01225
       7 -> 13        -0.00013
       7 -> 16         0.00614
       7 -> 18        -0.00832
       7 -> 20        -0.00362
       7 -> 21        -0.00172
       7 -> 24         0.00073
       7 -> 26        -0.00386
       7 -> 30        -0.00091
       7 -> 32        -0.00160
       7 -> 33         0.00047
       7 -> 38        -0.00097
       7 -> 39         0.00046
       7 -> 42         0.00017
       7 -> 44        -0.00032
       7 -> 51        -0.00016
       8 -> 11         0.70443
       8 -> 15         0.05599
       8 -> 19        -0.02222
       8 -> 22        -0.00123
       8 -> 25         0.00926
       8 -> 29        -0.00300
       8 -> 31         0.00217
       8 -> 37        -0.00353
       8 -> 40        -0.00063
       8 -> 43         0.00189
       8 -> 46        -0.00110
       8 -> 50         0.00023
       3 <-  9         0.00088
       3 <- 12        -0.00017
       3 <- 13         0.00016
       3 <- 16        -0.00060
       3 <- 18        -0.00111
       3 <- 20        -0.00010
       3 <- 21         0.00069
       3 <- 24        -0.00071
       3 <- 26        -0.00028
       3 <- 30         0.00052
       3 <- 32        -0.00056
       3 <- 33         0.00052
       3 <- 38         0.00037
       3 <- 39         0.00027
       3 <- 44        -0.00015
       3 <- 47         0.00012
       3 <- 51         0.00016
       4 <- 11        -0.00249
       4 <- 15        -0.00227
       4 <- 19        -0.00283
       4 <- 22        -0.00189
       4 <- 25        -0.00184
       4 <- 29        -0.00032
       4 <- 37        -0.00079
       4 <- 40        -0.00013
       4 <- 43         0.00019
       4 <- 50         0.00010
       5 <- 10        -0.00152
       5 <- 14        -0.00244
       5 <- 17         0.00078
       5 <- 23         0.00263
       5 <- 27        -0.00037
       5 <- 34        -0.00064
       5 <- 36        -0.00050
       5 <- 48         0.00012
       6 <-  9         0.00821
       6 <- 12         0.00347
       6 <- 13        -0.00284
       6 <- 16        -0.00418
       6 <- 18        -0.00352
       6 <- 20         0.00206
       6 <- 21         0.00238
       6 <- 24        -0.00361
       6 <- 26         0.00098
       6 <- 32         0.00187
       6 <- 33         0.00131
       6 <- 38         0.00149
       6 <- 39        -0.00081
       6 <- 42        -0.00024
       6 <- 44         0.00076
       6 <- 49        -0.00034
       6 <- 51         0.00012
       7 <-  9         0.00045
       7 <- 12        -0.00501
       7 <- 13         0.00100
       7 <- 16         0.00411
       7 <- 18        -0.00400
       7 <- 20        -0.00162
       7 <- 21        -0.00156
       7 <- 24         0.00059
       7 <- 26        -0.00263
       7 <- 30        -0.00083
       7 <- 32        -0.00122
       7 <- 33         0.00036
       7 <- 38        -0.00086
       7 <- 39         0.00023
       7 <- 44        -0.00032
       7 <- 47        -0.00011
       7 <- 51        -0.00014
       8 <- 11        -0.01318
       8 <- 15         0.00517
       8 <- 19        -0.01656
       8 <- 22        -0.00449
       8 <- 25         0.00486
       8 <- 29        -0.00232
       8 <- 31         0.00198
       8 <- 37        -0.00284
       8 <- 40        -0.00030
       8 <- 43         0.00153
       8 <- 46        -0.00102
       8 <- 50         0.00024

 Excited State   5:      Singlet-A2     8.4033 eV  147.54 nm  f=0.0000  <S**2>=0.000
       3 -> 28         0.00226
       3 -> 35         0.00130
       3 -> 45         0.00037
       4 -> 10        -0.00065
       4 -> 14        -0.00515
       4 -> 17        -0.00177
       4 -> 23         0.00288
       4 -> 27         0.00041
       4 -> 34         0.00049
       4 -> 36         0.00191
       4 -> 41        -0.00022
       4 -> 52         0.00018
       5 -> 15        -0.00011
       5 -> 19        -0.00045
       5 -> 22         0.00102
       5 -> 25        -0.00070
       5 -> 29        -0.00015
       5 -> 37         0.00036
       5 -> 40        -0.00017
       5 -> 43         0.00051
       5 -> 46         0.00033
       5 -> 50        -0.00012
       6 -> 28         0.00241
       6 -> 35        -0.00064
       7 -> 28        -0.00144
       7 -> 35         0.00026
       7 -> 45         0.00031
       8 -> 10         0.01172
       8 -> 14         0.70297
       8 -> 17         0.07344
       8 -> 23        -0.01720
       8 -> 27        -0.00177
       8 -> 34        -0.00263
       8 -> 36         0.00260
       8 -> 41        -0.00023
       8 -> 52        -0.00030
       3 <- 28         0.00159
       3 <- 35         0.00105
       3 <- 45         0.00040
       4 <- 10         0.00029
       4 <- 14        -0.00041
       4 <- 17        -0.00065
       4 <- 23         0.00023
       4 <- 27         0.00031
       4 <- 34        -0.00053
       4 <- 36         0.00075
       4 <- 41         0.00017
       5 <- 11         0.00043
       5 <- 19        -0.00016
       5 <- 22         0.00114
       5 <- 25        -0.00123
       5 <- 29        -0.00028
       5 <- 31        -0.00042
       5 <- 37         0.00084
       5 <- 43         0.00054
       5 <- 54         0.00018
       6 <- 28         0.00249
       6 <- 35        -0.00060
       6 <- 45        -0.00015
       7 <- 28        -0.00124
       7 <- 45         0.00013
       8 <- 10         0.00367
       8 <- 14        -0.00109
       8 <- 17        -0.00469
       8 <- 23         0.00082
       8 <- 27         0.00038
       8 <- 34        -0.00289
       8 <- 36         0.00127
       8 <- 41        -0.00024
       8 <- 52        -0.00012

 Excited State   6:      Singlet-B2     8.7992 eV  140.90 nm  f=0.1167  <S**2>=0.000

 The electronic state is 1-A1.
 Alpha  occ. eigenvalues --  -19.27602 -10.44081  -1.26332  -0.88229  -0.85565
 Alpha  occ. eigenvalues --   -0.58143  -0.52252  -0.19693
 Alpha virt. eigenvalues --    0.00274   0.02562   0.04425   0.04708   0.14199
 Alpha virt. eigenvalues --    0.16119   0.17688   0.18063   0.21920   0.22181
 Alpha virt. eigenvalues --    0.28388   0.36632   0.50660   0.57527   0.61136

 Mulliken charges:
               1
     1  C    0.211452
     2  H   -0.126244
     3  H   -0.126244
     4  O    0.041037
 Sum of Mulliken charges =   0.00000

 Dipole moment (field-independent basis, Debye):
    X=              0.0000    Y=              0.0000    Z=              1.5696  Tot=              1.5696
 Quadrupole moment (field-independent basis, Debye-Ang):
   XX=            -10.0616   YY=            -14.1730   ZZ=            -13.7174
   XY=             -0.0000   XZ=             -0.0000   YZ=              0.0000

 Normal termination of Gaussian 16 at Fri Sep 17 10:52:16 2021.
