 Gaussian 16, Revision A.03,
 Gaussian 16:  ES64L-G16RevA.03 25-Dec-2016

 --------------------------------------------------------------------
 #p B3LYP/6-311+G** #p TD=(singlets,nstates=30)IOp(6/8=3) IOp(9/40=4)
 --------------------------------------------------------------------

 -------------------------------
 Scan Step 49, Bond Length 0.745
 -------------------------------
 Symbolic Z-matrix:
 Charge =  0 Multiplicity = 1

                         Standard orientation:
 ---------------------------------------------------------------------
 Center     Atomic      Atomic             Coordinates (Angstroms)
 Number     Number       Type             X           Y           Z
 ---------------------------------------------------------------------
      1          6           0        0.000000    0.000000   -0.298581
      2          1           0        0.000000    0.937260   -0.889931
      3          1           0       -0.000000   -0.937260   -0.889931
      4          8           0        0.000000   -0.000000    0.446419
 ---------------------------------------------------------------------

 SCF Done:  E(RB3LYP) =  -113.470328026     A.U. after    9 cycles

 Excitation energies and oscillator strengths:

 Excited State   1:      Singlet-B2     5.1811 eV  239.30 nm  f=0.1111  <S**2>=0.000
       3 -> 11         0.00076
       3 -> 16         0.00048
       3 -> 19         0.00081
       3 -> 23         0.00027
       3 -> 24        -0.00100
       3 -> 29        -0.00022
       3 -> 32        -0.00012
       3 -> 40         0.00014
       3 -> 43         0.00019
       3 -> 50        -0.00013
       3 -> 53         0.00013
       4 ->  9        -0.00285
       4 -> 12         0.00407
       4 -> 14         0.00403
       4 -> 15         0.00161
       4 -> 18         0.00329
       4 -> 20         0.00185
       4 -> 21         0.00196
       4 -> 25         0.00151
       4 -> 26        -0.00081
       4 -> 30        -0.00072
       4 -> 31         0.00156
       4 -> 34         0.00042
       4 -> 38         0.00075
       4 -> 41        -0.00052
       4 -> 44        -0.00036
       4 -> 46        -0.00074
       4 -> 49         0.00026
       5 -> 28         0.00155
       5 -> 35         0.00064
       5 -> 45         0.00085
       6 -> 11        -0.00678
       6 -> 16         0.00234
       6 -> 19         0.00051
       6 -> 23        -0.00154
       6 -> 24        -0.00452
       6 -> 29        -0.00088
       6 -> 32        -0.00101
       6 -> 36         0.00059
       6 -> 43         0.00030
       6 -> 47         0.00017
       7 -> 11         0.00526
       7 -> 16         0.00398
       7 -> 19         0.00287
       7 -> 23        -0.00071
       7 -> 24        -0.00178
       7 -> 29         0.00064
       7 -> 32         0.00045
       7 -> 36        -0.00057
       7 -> 43        -0.00041
       7 -> 47         0.00046
       7 -> 50         0.00046
       7 -> 53        -0.00012
       8 ->  9         0.70577
       8 -> 12        -0.00042
       8 -> 14         0.03860
       8 -> 15        -0.00881
       8 -> 18        -0.02156
       8 -> 20         0.00599
       8 -> 21         0.00953
       8 -> 25        -0.00032
       8 -> 30        -0.00167
       8 -> 31        -0.00304
       8 -> 34        -0.00121
       8 -> 38         0.00109
       8 -> 39         0.00029
       8 -> 41        -0.00069
       8 -> 44         0.00021
       8 -> 46         0.00089
       8 -> 49        -0.00032
       8 -> 51         0.00011
       3 <- 11         0.00029
       3 <- 16         0.00015
       3 <- 19         0.00053
       3 <- 23         0.00018
       3 <- 24        -0.00076
       3 <- 29        -0.00019
       3 <- 32        -0.00014
       3 <- 40         0.00015
       3 <- 43         0.00018
       3 <- 53         0.00014
       4 <-  9        -0.00154
       4 <- 12        -0.00024
       4 <- 14         0.00329
       4 <- 15         0.00188
       4 <- 18         0.00077
       4 <- 20         0.00095
       4 <- 21         0.00142
       4 <- 25         0.00143
       4 <- 26        -0.00128
       4 <- 30        -0.00019
       4 <- 31         0.00061
       4 <- 34         0.00027
       4 <- 38         0.00047
       4 <- 39         0.00016
       4 <- 41        -0.00044
       4 <- 44        -0.00027
       4 <- 46        -0.00066
       4 <- 49         0.00020
       5 <- 28         0.00126
       5 <- 35         0.00051
       5 <- 45         0.00072
       6 <- 11        -0.00077
       6 <- 16         0.00234
       6 <- 19         0.00141
       6 <- 23        -0.00065
       6 <- 24        -0.00343
       6 <- 29        -0.00058
       6 <- 32        -0.00082
       6 <- 36         0.00052
       6 <- 43         0.00017
       6 <- 47         0.00013
       7 <- 11         0.00107
       7 <- 16         0.00215
       7 <- 19         0.00043
       7 <- 23        -0.00026
       7 <- 24        -0.00067
       7 <- 29         0.00123
       7 <- 32         0.00031
       7 <- 36        -0.00028
       7 <- 43        -0.00030
       7 <- 47         0.00047
       7 <- 50         0.00053
       8 <-  9        -0.00666
       8 <- 12        -0.00413
       8 <- 14         0.01743
       8 <- 15         0.00475
       8 <- 18         0.00146
       8 <- 20         0.00015
       8 <- 21         0.00484
       8 <- 25         0.00315
       8 <- 26         0.00040
       8 <- 30        -0.00116
       8 <- 31        -0.00183
       8 <- 34        -0.00147
       8 <- 38         0.00104
       8 <- 39         0.00024
       8 <- 41        -0.00054
       8 <- 46         0.00073
       8 <- 49        -0.00026
 This state for optimization and/or second-order correction.
 Total Energy, E(TD-HF/TD-DFT) =  -113.279925229
 Copying the excited state density for this state as the 1-particle RhoCI density.

 Excited State   2:      Singlet-A2     5.4065 eV  229.32 nm  f=0.0000  <S**2>=0.000
       3 -> 28        -0.00207
       3 -> 35        -0.00141
       3 -> 45        -0.00058
       4 -> 10        -0.00156
       4 -> 13        -0.00307
       4 -> 17        -0.00462
       4 -> 22         0.00243
       4 -> 27        -0.00242
       4 -> 33        -0.00036
       4 -> 37        -0.00201
       4 -> 42        -0.00025
       4 -> 48        -0.00012
       4 -> 52        -0.00038
       5 -> 11         0.00037
       5 -> 19         0.00038
       5 -> 23        -0.00117
       5 -> 24        -0.00013
       5 -> 32        -0.00015
       5 -> 36        -0.00038
       5 -> 43        -0.00042
       5 -> 47        -0.00045
       5 -> 50         0.00019
       5 -> 53        -0.00013
       6 -> 28        -0.00366
       6 -> 35         0.00055
       6 -> 45         0.00022
       7 -> 28         0.00011
       7 -> 35        -0.00012
       7 -> 45        -0.00062
       8 -> 10         0.70445
       8 -> 13         0.05401
       8 -> 17         0.02949
       8 -> 22         0.00098
       8 -> 27         0.00268
       8 -> 33         0.00317
       8 -> 37        -0.00218
       8 -> 48         0.00011
       8 -> 52         0.00049
       3 <- 28        -0.00165
       3 <- 35        -0.00122
       3 <- 45        -0.00057
       4 <- 10        -0.00017
       4 <- 13        -0.00093
       4 <- 17        -0.00062
       4 <- 27        -0.00025
       4 <- 33         0.00086
       4 <- 37        -0.00104
       4 <- 42        -0.00031
       5 <- 11         0.00073
       5 <- 16        -0.00073
       5 <- 19         0.00199
       5 <- 23        -0.00207
       5 <- 24        -0.00149
       5 <- 29        -0.00140
       5 <- 32         0.00037
       5 <- 36        -0.00102
       5 <- 43        -0.00052
       5 <- 47        -0.00041
       5 <- 53        -0.00036
       6 <- 28        -0.00370
       6 <- 35         0.00065
       6 <- 45         0.00023
       7 <- 28         0.00022
       7 <- 35        -0.00011
       7 <- 45        -0.00057
       8 <- 10        -0.00067
       8 <- 13        -0.00695
       8 <- 17        -0.00529
       8 <- 22         0.00022
       8 <- 27        -0.00041
       8 <- 33         0.00302
       8 <- 37        -0.00179
       8 <- 42         0.00013
       8 <- 52         0.00016

 Excited State   3:      Singlet-B2     6.0434 eV  205.15 nm  f=0.0296  <S**2>=0.000
       3 -> 11        -0.00011
       3 -> 16         0.00052
       3 -> 19        -0.00022
       3 -> 23         0.00026
       3 -> 24        -0.00042
       3 -> 29         0.00058
       3 -> 32         0.00013
       3 -> 36        -0.00024
       3 -> 43        -0.00025
       3 -> 47         0.00017
       3 -> 50         0.00015
       3 -> 53        -0.00015
       4 ->  9         0.00274
       4 -> 12         0.00035
       4 -> 14         0.00168
       4 -> 15         0.00314
       4 -> 18        -0.00196
       4 -> 20        -0.00026
       4 -> 21         0.00138
       4 -> 25         0.00082
       4 -> 26         0.00085
       4 -> 30        -0.00165
       4 -> 31        -0.00164
       4 -> 34        -0.00016
       4 -> 38        -0.00014
       4 -> 39        -0.00094
       4 -> 41         0.00039
       4 -> 46         0.00060
       4 -> 49        -0.00020
       4 -> 51        -0.00012
       5 -> 28        -0.00098
       5 -> 35        -0.00130
       5 -> 45        -0.00080
       6 -> 11         0.00086
       6 -> 16         0.00487
       6 -> 19        -0.00062
       6 -> 23        -0.00051
       6 -> 24        -0.00330
       6 -> 29        -0.00172
       6 -> 32         0.00050
       6 -> 36         0.00035
       6 -> 40        -0.00037
       6 -> 43         0.00021
       7 -> 11        -0.00273
       7 -> 16        -0.00235
       7 -> 19        -0.00205
       7 -> 23         0.00107
       7 -> 24         0.00201
       7 -> 29         0.00020
       7 -> 32        -0.00031
       7 -> 36         0.00088
       7 -> 40        -0.00021
       7 -> 43         0.00039
       7 -> 47        -0.00065
       7 -> 50        -0.00044
       7 -> 53         0.00018
       8 ->  9        -0.00015
       8 -> 12         0.70590
       8 -> 14         0.02565
       8 -> 15         0.02651
       8 -> 18         0.01144
       8 -> 20         0.01580
       8 -> 21         0.00472
       8 -> 25        -0.00073
       8 -> 26         0.00138
       8 -> 30        -0.00223
       8 -> 31        -0.00038
       8 -> 34        -0.00031
       8 -> 39         0.00130
       8 -> 41        -0.00091
       8 -> 46        -0.00060
       8 -> 49         0.00024
       8 -> 54        -0.00015
       3 <- 11         0.00012
       3 <- 16         0.00052
       3 <- 24        -0.00046
       3 <- 29         0.00038
       3 <- 32         0.00014
       3 <- 36        -0.00026
       3 <- 43        -0.00022
       3 <- 47         0.00013
       3 <- 53        -0.00022
       4 <-  9        -0.00130
       4 <- 14         0.00149
       4 <- 15         0.00070
       4 <- 18         0.00064
       4 <- 20        -0.00043
       4 <- 21         0.00094
       4 <- 25         0.00095
       4 <- 26         0.00082
       4 <- 30        -0.00126
       4 <- 31        -0.00065
       4 <- 34        -0.00068
       4 <- 39        -0.00072
       4 <- 41         0.00039
       4 <- 46         0.00058
       4 <- 49        -0.00011
       4 <- 51        -0.00011
       5 <- 28        -0.00055
       5 <- 35        -0.00110
       5 <- 45        -0.00070
       6 <- 11        -0.00014
       6 <- 16         0.00113
       6 <- 19         0.00073
       6 <- 23        -0.00092
       6 <- 24        -0.00210
       6 <- 29        -0.00104
       6 <- 32         0.00062
       6 <- 36         0.00048
       6 <- 40        -0.00034
       6 <- 43         0.00012
       7 <- 11        -0.00030
       7 <- 16        -0.00091
       7 <- 19        -0.00041
       7 <- 23         0.00041
       7 <- 24         0.00088
       7 <- 29        -0.00033
       7 <- 32        -0.00015
       7 <- 36         0.00050
       7 <- 40        -0.00015
       7 <- 43         0.00027
       7 <- 47        -0.00057
       7 <- 50        -0.00048
       8 <-  9        -0.00381
       8 <- 12         0.00133
       8 <- 14         0.00950
       8 <- 15         0.00328
       8 <- 18        -0.00131
       8 <- 20        -0.00270
       8 <- 21         0.00321
       8 <- 25         0.00063
       8 <- 26        -0.00030
       8 <- 30        -0.00195
       8 <- 31        -0.00054
       8 <- 39         0.00106
       8 <- 41        -0.00079
       8 <- 46        -0.00049
       8 <- 49         0.00010

 Excited State   4:      Singlet-A1     6.1932 eV  200.19 nm  f=0.0201  <S**2>=0.000
       3 ->  9         0.00121
       3 -> 12        -0.00059
       3 -> 14         0.00013
       3 -> 15        -0.00064
       3 -> 18        -0.00140
       3 -> 21         0.00061
       3 -> 25        -0.00045
       3 -> 26        -0.00021
       3 -> 30         0.00096
       3 -> 31        -0.00029
       3 -> 34         0.00031
       3 -> 38        -0.00031
       3 -> 39         0.00032
       3 -> 46        -0.00011
       3 -> 51         0.00022
       3 -> 54        -0.00017
       4 -> 11        -0.00660
       4 -> 16        -0.00739
       4 -> 19        -0.00478
       4 -> 23        -0.00195
       4 -> 24         0.00344
       4 -> 29        -0.00063
       4 -> 32         0.00011
       4 -> 36        -0.00103
       4 -> 43         0.00028
       4 -> 50         0.00028
       5 -> 10        -0.00471
       5 -> 13         0.00283
       5 -> 17        -0.00414
       5 -> 22        -0.00342
       5 -> 27        -0.00102
       5 -> 33        -0.00093
       5 -> 37        -0.00057
       5 -> 42        -0.00025
       5 -> 48         0.00030
       6 ->  9         0.00864
       6 -> 12         0.00975
       6 -> 14        -0.00551
       6 -> 15        -0.00413
       6 -> 18        -0.00422
       6 -> 20         0.00653
       6 -> 21        -0.00013
       6 -> 25        -0.00656
       6 -> 26         0.00121
       6 -> 30        -0.00067
       6 -> 31         0.00132
       6 -> 34         0.00161
       6 -> 38        -0.00090
       6 -> 39        -0.00124
       6 -> 44         0.00048
       6 -> 49         0.00044
       7 ->  9         0.01044
       7 -> 12        -0.00882
       7 -> 15         0.00236
       7 -> 18        -0.00847
       7 -> 20        -0.00110
       7 -> 21         0.00013
       7 -> 26        -0.00155
       7 -> 30         0.00013
       7 -> 31        -0.00133
       7 -> 34         0.00068
       7 -> 39         0.00010
       7 -> 44        -0.00014
       7 -> 49         0.00014
       7 -> 51        -0.00024
       8 -> 11         0.70505
       8 -> 16         0.04840
       8 -> 19        -0.01518
       8 -> 23         0.00062
       8 -> 24        -0.00395
       8 -> 29         0.00415
       8 -> 32         0.00176
       8 -> 36        -0.00298
       8 -> 40         0.00026
       8 -> 43         0.00173
       8 -> 47        -0.00070
       8 -> 50         0.00010
       3 <-  9         0.00060
       3 <- 12        -0.00027
       3 <- 15        -0.00038
       3 <- 18        -0.00086
       3 <- 21         0.00036
       3 <- 25        -0.00039
       3 <- 26        -0.00018
       3 <- 30         0.00064
       3 <- 31        -0.00015
       3 <- 34         0.00028
       3 <- 38        -0.00023
       3 <- 39         0.00027
       3 <- 46        -0.00015
       3 <- 51         0.00018
       3 <- 54        -0.00015
       4 <- 11        -0.00249
       4 <- 16        -0.00280
       4 <- 19        -0.00262
       4 <- 23        -0.00147
       4 <- 24         0.00183
       4 <- 29        -0.00030
       4 <- 32         0.00021
       4 <- 36        -0.00087
       4 <- 43         0.00025
       4 <- 50         0.00024
       5 <- 10        -0.00230
       5 <- 13         0.00144
       5 <- 17        -0.00231
       5 <- 22        -0.00225
       5 <- 27        -0.00071
       5 <- 33        -0.00075
       5 <- 37        -0.00048
       5 <- 42        -0.00021
       5 <- 48         0.00027
       6 <-  9         0.00741
       6 <- 12         0.00430
       6 <- 14        -0.00429
       6 <- 15        -0.00346
       6 <- 18        -0.00242
       6 <- 20         0.00368
       6 <- 21         0.00077
       6 <- 25        -0.00427
       6 <- 26         0.00067
       6 <- 31         0.00118
       6 <- 34         0.00117
       6 <- 38        -0.00096
       6 <- 39        -0.00098
       6 <- 44         0.00050
       6 <- 46         0.00012
       6 <- 49         0.00035
       7 <-  9         0.00282
       7 <- 12        -0.00316
       7 <- 14         0.00050
       7 <- 15         0.00154
       7 <- 18        -0.00396
       7 <- 20        -0.00039
       7 <- 26        -0.00092
       7 <- 31        -0.00104
       7 <- 34         0.00047
       7 <- 44        -0.00015
       7 <- 46         0.00011
       7 <- 51        -0.00022
       8 <- 11        -0.00683
       8 <- 16         0.00477
       8 <- 19        -0.01401
       8 <- 23        -0.00306
       8 <- 24        -0.00031
       8 <- 29         0.00267
       8 <- 32         0.00152
       8 <- 36        -0.00230
       8 <- 43         0.00138
       8 <- 47        -0.00072

 Excited State   5:      Singlet-A2     7.8398 eV  158.15 nm  f=0.0000  <S**2>=0.000
       3 -> 28        -0.00263
       3 -> 35        -0.00190
       3 -> 45        -0.00074
       4 -> 10        -0.00271
       4 -> 13        -0.00954
       4 -> 17        -0.00080
       4 -> 22         0.00339
       4 -> 27        -0.00077
       4 -> 33        -0.00164
       4 -> 37        -0.00306
       4 -> 42        -0.00019
       4 -> 52        -0.00046
       5 -> 16         0.00113
       5 -> 19         0.00039
       5 -> 23        -0.00169
       5 -> 24        -0.00040
       5 -> 29         0.00023
       5 -> 32        -0.00012
       5 -> 36        -0.00051
       5 -> 43        -0.00062
       5 -> 47        -0.00054
       5 -> 50         0.00011
       5 -> 53        -0.00018
       6 -> 28        -0.00277
       6 -> 35         0.00083
       7 -> 35        -0.00018
       7 -> 45        -0.00079
       8 -> 10        -0.05549
       8 -> 13         0.70351
       8 -> 17         0.03766
       8 -> 22        -0.02281
       8 -> 27         0.00307
       8 -> 33         0.00259
       8 -> 37        -0.00259
       8 -> 52         0.00051
       3 <- 28        -0.00177
       3 <- 35        -0.00157
       3 <- 45        -0.00082
       4 <- 10        -0.00034
       4 <- 13        -0.00082
       4 <- 17        -0.00012
       4 <- 27        -0.00012
       4 <- 33         0.00063
       4 <- 37        -0.00113
       4 <- 42        -0.00036
       4 <- 52        -0.00015
       5 <- 11        -0.00029
       5 <- 16         0.00035
       5 <- 19         0.00090
       5 <- 23        -0.00255
       5 <- 24        -0.00157
       5 <- 29        -0.00040
       5 <- 32         0.00073
       5 <- 36        -0.00146
       5 <- 43        -0.00084
       5 <- 47        -0.00025
       5 <- 53        -0.00041
       6 <- 28        -0.00317
       6 <- 35         0.00043
       6 <- 45         0.00022
       7 <- 35         0.00012
       7 <- 45        -0.00048
       8 <- 10        -0.00672
       8 <- 13        -0.00423
       8 <- 17        -0.00301
       8 <- 22         0.00073
       8 <- 27        -0.00044
       8 <- 33         0.00270
       8 <- 37        -0.00172
       8 <- 42         0.00015
       8 <- 52         0.00020

 Excited State   6:      Singlet-B2     9.2970 eV  133.36 nm  f=0.0980  <S**2>=0.000
       3 -> 11         0.00037
       3 -> 16        -0.00074
       3 -> 19         0.00077
       3 -> 23        -0.00037
       3 -> 24         0.00024
       3 -> 29        -0.00065
       3 -> 32         0.00053
       3 -> 36         0.00010
       3 -> 40        -0.00039
       3 -> 43        -0.00028
       3 -> 47        -0.00021
       4 ->  9         0.00389

 The electronic state is 1-A1.
 Alpha  occ. eigenvalues --  -19.15980 -10.26408  -1.32813  -0.71631  -0.68061
 Alpha  occ. eigenvalues --   -0.57787  -0.54831  -0.21583
 Alpha virt. eigenvalues --    0.01136   0.02769   0.04438   0.04582   0.12807
 Alpha virt. eigenvalues --    0.14432   0.17658   0.19269   0.21691   0.24454
 Alpha virt. eigenvalues --    0.25693   0.36551   0.50621   0.55816   0.56556

 Mulliken charges:
               1
     1  C    0.336049
     2  H   -0.065773
     3  H   -0.065773
     4  O   -0.204502
 Sum of Mulliken charges =  -0.00000

 Dipole moment (field-independent basis, Debye):
    X=              0.0000    Y=             -0.0000    Z=              0.6046  Tot=              0.6046
 Quadrupole moment (field-independent basis, Debye-Ang):
   XX=            -10.3932   YY=            -13.1313   ZZ=            -13.5217
   XY=             -0.0000   XZ=             -0.0000   YZ=             -0.0000

 Normal termination of Gaussian 16 at Fri Sep 17 10:52:25 2021.
