 Gaussian 16, Revision C.01,
 Gaussian 16:  ES64L-G16RevC.01  3-Jul-2019

 ----------------------------------------
 #P wB97XD/6-311+G* NoSymm #P Field=Y+204
 ----------------------------------------

 -------
 TitleMe
 -------
 Symbolic Z-matrix:
 Charge =  1 Multiplicity = 1

                          Input orientation:
 ---------------------------------------------------------------------
 Center     Atomic      Atomic             Coordinates (Angstroms)
 Number     Number       Type             X           Y           Z
 ---------------------------------------------------------------------
      1          6           0        0.029500    1.339700    0.068200
      2          6           0        1.434800    1.286700    0.006400
      3          6           0        2.111800    0.051100   -0.005400
      4          6           0        1.445100   -1.137200    0.031200
      5          6           0       -0.687900    0.168200    0.110000
      6          1           0       -0.471300    2.298400    0.078100
      7          1           0        2.027300    2.196500   -0.032200
      8          1           0        1.989700   -2.076400    0.023200
      9          1           0       -1.771600    0.180400    0.158200
     10          7           0        3.586400    0.051000   -0.067500
     11          8           0        4.147100   -1.059700   -0.088100
     12          8           0        4.145000    1.163900   -0.090100
     13          6           0       -0.023600   -1.145800    0.083500
     14          1           0       -0.436700   -1.872500    0.788900
     15         35           0       -0.535900   -1.869700   -1.740800
 ---------------------------------------------------------------------

 SCF Done:  E(RwB97XD) =  -3010.56371276     A.U. after   21 cycles

 Alpha  occ. eigenvalues -- -483.28254 -62.83230 -56.62963 -56.62340 -56.62333
 Alpha  occ. eigenvalues --  -19.45488 -19.45244 -14.84768 -10.57554 -10.56327
 Alpha  occ. eigenvalues --  -10.56216 -10.55497 -10.55450 -10.53664  -8.99000
 Alpha  occ. eigenvalues --   -6.81781  -6.79748  -6.79722  -2.91660  -2.91125
 Alpha  occ. eigenvalues --   -2.91103  -2.89478  -2.89478  -1.49101  -1.32095
 Alpha  occ. eigenvalues --   -1.21682  -1.12650  -1.11145  -1.01969  -1.00399
 Alpha  occ. eigenvalues --   -0.94409  -0.90184  -0.84978  -0.80348  -0.79812
 Alpha  occ. eigenvalues --   -0.79363  -0.77621  -0.75426  -0.74883  -0.71213
 Alpha  occ. eigenvalues --   -0.68382  -0.66761  -0.62513  -0.58802  -0.56741
 Alpha  occ. eigenvalues --   -0.55674  -0.54925  -0.52609  -0.52235
 Alpha virt. eigenvalues --   -0.28408  -0.20416  -0.17091  -0.14855  -0.12887
 Alpha virt. eigenvalues --   -0.11477  -0.08199  -0.07896  -0.06401  -0.04031
 Alpha virt. eigenvalues --   -0.03296  -0.02135  -0.01109  -0.00281  -0.00170

 Mulliken charges:
               1
     1  C   -0.609728
     2  C    0.644035
     3  C   -0.840417
     4  C    0.386844
     5  C   -0.085154
     6  H    0.242629
     7  H    0.286284
     8  H    0.437086
     9  H    0.345765
    10  N   -0.101150
    11  O    0.135872
    12  O   -0.085660
    13  C   -0.530050
    14  H    0.454787
    15  Br   0.318856
 Sum of Mulliken charges =   1.00000

 Dipole moment (field-independent basis, Debye):
    X=             -1.4746    Y=             -6.5081    Z=             -0.8283  Tot=              6.7242
 Quadrupole moment (field-independent basis, Debye-Ang):
   XX=            -72.2692   YY=            -49.8981   ZZ=            -60.9951
   XY=             -5.2344   XZ=              1.7828   YZ=              4.3914

 Normal termination of Gaussian 16 at Wed May  1 15:11:34 2024.
