 Gaussian 16, Revision C.01,
 Gaussian 16:  ES64L-G16RevC.01  3-Jul-2019

 ----------------------------------------
 #P wB97XD/6-311+G* NoSymm #P Field=Y-126
 ----------------------------------------

 -------
 TitleMe
 -------
 Symbolic Z-matrix:
 Charge =  1 Multiplicity = 1

                          Input orientation:
 ---------------------------------------------------------------------
 Center     Atomic      Atomic             Coordinates (Angstroms)
 Number     Number       Type             X           Y           Z
 ---------------------------------------------------------------------
      1          6           0        0.029500    1.339700    0.068200
      2          6           0        1.434800    1.286700    0.006400
      3          6           0        2.111800    0.051100   -0.005400
      4          6           0        1.445100   -1.137200    0.031200
      5          6           0       -0.687900    0.168200    0.110000
      6          1           0       -0.471300    2.298400    0.078100
      7          1           0        2.027300    2.196500   -0.032200
      8          1           0        1.989700   -2.076400    0.023200
      9          1           0       -1.771600    0.180400    0.158200
     10          7           0        3.586400    0.051000   -0.067500
     11          8           0        4.147100   -1.059700   -0.088100
     12          8           0        4.145000    1.163900   -0.090100
     13          6           0       -0.023600   -1.145800    0.083500
     14          1           0       -0.436700   -1.872500    0.788900
     15         35           0       -0.535900   -1.869700   -1.740800
 ---------------------------------------------------------------------

 SCF Done:  E(RwB97XD) =  -3010.54140750     A.U. after   19 cycles

 Alpha  occ. eigenvalues -- -483.33173 -62.88222 -56.67883 -56.67354 -56.67353
 Alpha  occ. eigenvalues --  -19.46213 -19.45903 -14.85541 -10.59893 -10.57698
 Alpha  occ. eigenvalues --  -10.57626 -10.57237 -10.56651 -10.52268  -9.04045
 Alpha  occ. eigenvalues --   -6.86635  -6.84897  -6.84889  -2.96561  -2.96096
 Alpha  occ. eigenvalues --   -2.96088  -2.94696  -2.94696  -1.49823  -1.32792
 Alpha  occ. eigenvalues --   -1.23140  -1.14910  -1.11798  -1.05845  -1.01206
 Alpha  occ. eigenvalues --   -0.95919  -0.91198  -0.85452  -0.81028  -0.80802
 Alpha  occ. eigenvalues --   -0.80217  -0.78931  -0.76255  -0.75922  -0.73038
 Alpha  occ. eigenvalues --   -0.69389  -0.67408  -0.64027  -0.61190  -0.58797
 Alpha  occ. eigenvalues --   -0.57298  -0.56580  -0.56260  -0.55697
 Alpha virt. eigenvalues --   -0.30209  -0.21568  -0.16883  -0.14119  -0.12717
 Alpha virt. eigenvalues --   -0.09107  -0.08971  -0.06800  -0.05593  -0.04713
 Alpha virt. eigenvalues --   -0.03976  -0.03849  -0.02490  -0.02277  -0.01477

 Mulliken charges:
               1
     1  C   -0.550343
     2  C    0.460042
     3  C   -0.655529
     4  C    0.264211
     5  C    0.037729
     6  H    0.384122
     7  H    0.410416
     8  H    0.330287
     9  H    0.354677
    10  N   -0.109111
    11  O   -0.032169
    12  O    0.100924
    13  C   -0.458595
    14  H    0.371426
    15  Br   0.091912
 Sum of Mulliken charges =   1.00000

 Dipole moment (field-independent basis, Debye):
    X=             -0.3841    Y=              3.0345    Z=              0.4450  Tot=              3.0909
 Quadrupole moment (field-independent basis, Debye-Ang):
   XX=            -70.5188   YY=            -53.8241   ZZ=            -63.7037
   XY=              5.3502   XZ=              0.7076   YZ=              0.0026

 Normal termination of Gaussian 16 at Wed May  1 15:04:38 2024.
