 Gaussian 16, Revision A.03,
 Gaussian 16:  ES64L-G16RevA.03 25-Dec-2016

 --------------------------------------------------------------------
 #p B3LYP/6-311+G** #p TD=(singlets,nstates=30)IOp(6/8=3) IOp(9/40=4)
 --------------------------------------------------------------------

 ------------------------------
 Scan Step 240, Bond Length 1.7
 ------------------------------
 Symbolic Z-matrix:
 Charge =  0 Multiplicity = 1

                         Standard orientation:
 ---------------------------------------------------------------------
 Center     Atomic      Atomic             Coordinates (Angstroms)
 Number     Number       Type             X           Y           Z
 ---------------------------------------------------------------------
      1          6           0        0.000000    0.000000   -0.776081
      2          1           0        0.000000    0.937260   -1.367431
      3          1           0       -0.000000   -0.937260   -1.367431
      4          8           0        0.000000   -0.000000    0.923919
 ---------------------------------------------------------------------

 SCF Done:  E(RB3LYP) =  -114.391118778     A.U. after   11 cycles

 Excitation energies and oscillator strengths:

 Excited State   1:      Singlet-A2     1.6443 eV  754.01 nm  f=0.0000  <S**2>=0.000
       3 -> 27         0.00095
       3 -> 38         0.00066
       3 -> 46         0.00335
       4 -> 27         0.00054
       4 -> 46        -0.00117
       5 ->  9         0.00452
       5 -> 13         0.00108
       5 -> 18         0.00231
       5 -> 23         0.00155
       5 -> 28         0.00192
       5 -> 37         0.00106
       5 -> 44         0.00027
       5 -> 52         0.00026
       6 -> 27        -0.00062
       6 -> 38        -0.00068
       6 -> 46         0.00116
       7 -> 12        -0.00106
       7 -> 16         0.00503
       7 -> 19        -0.00432
       7 -> 22        -0.00098
       7 -> 25         0.00077
       7 -> 29        -0.00171
       7 -> 33         0.00032
       7 -> 49         0.00012
       7 -> 50         0.00012
       7 -> 53         0.00042
       8 ->  9         0.70942
       8 -> 13        -0.00996
       8 -> 18         0.02131
       8 -> 23        -0.00218
       8 -> 28         0.01081
       8 -> 31         0.00141
       8 -> 37         0.00057
       8 -> 48        -0.00031
       8 -> 52         0.00191
       3 <- 27         0.00037
       3 <- 38         0.00041
       3 <- 46         0.00339
       4 <- 27         0.00097
       4 <- 38         0.00022
       4 <- 46        -0.00093
       5 <- 13        -0.00044
       5 <- 18        -0.00054
       5 <- 23         0.00022
       5 <- 28        -0.00038
       5 <- 31         0.00029
       5 <- 37         0.00061
       6 <- 38        -0.00054
       6 <- 46         0.00088
       7 <- 12         0.00115
       7 <- 16        -0.01037
       7 <- 19         0.00457
       7 <- 22         0.00646
       7 <- 25         0.00059
       7 <- 29         0.00547
       7 <- 33        -0.00041
       7 <- 35         0.00047
       7 <- 40        -0.00031
       7 <- 42         0.00016
       7 <- 49        -0.00046
       7 <- 53         0.00146
       8 <-  9        -0.06150
       8 <- 18        -0.00713
       8 <- 28        -0.00258
       8 <- 31        -0.00072
       8 <- 37        -0.00033
       8 <- 48         0.00012
       8 <- 52         0.00048
 This state for optimization and/or second-order correction.
 Total Energy, E(TD-HF/TD-DFT) =  -114.330690582
 Copying the excited state density for this state as the 1-particle RhoCI density.

 Excited State   2:      Singlet-A1     4.2869 eV  289.22 nm  f=0.0526  <S**2>=0.000
       3 -> 10        -0.01797
       3 -> 11        -0.00726
       3 -> 14         0.00585
       3 -> 15         0.00222
       3 -> 17        -0.00335
       3 -> 20        -0.00395
       3 -> 21        -0.00026
       3 -> 24         0.00149
       3 -> 26         0.00266
       3 -> 30        -0.00128
       3 -> 32         0.00276
       3 -> 34         0.00164
       3 -> 36        -0.00119
       3 -> 39         0.00064
       3 -> 43         0.00050
       3 -> 45         0.00052
       3 -> 47         0.00229
       3 -> 51         0.00129
       4 -> 10        -0.00571
       4 -> 11         0.01273
       4 -> 14         0.00343
       4 -> 15        -0.00918
       4 -> 17         0.00278
       4 -> 20         0.00371
       4 -> 21         0.00038
       4 -> 24        -0.00441
       4 -> 26         0.00433
       4 -> 30         0.00087
       4 -> 32        -0.00136
       4 -> 34        -0.00121
       4 -> 36         0.00037
       4 -> 41         0.00011
       4 -> 43        -0.00051
       4 -> 45        -0.00082
       4 -> 47        -0.00100
       4 -> 51        -0.00032
       4 -> 54         0.00013
       5 -> 12         0.01356
       5 -> 16         0.00663
       5 -> 19         0.00138
       5 -> 22         0.00748
       5 -> 25         0.00658
       5 -> 29         0.00015
       5 -> 33        -0.00278
       5 -> 35         0.00278
       5 -> 40        -0.00131
       5 -> 42         0.00078
       5 -> 49         0.00033
       5 -> 50        -0.00076
       6 -> 10         0.20849
       6 -> 11         0.06970
       6 -> 14        -0.07375
       6 -> 15        -0.03921
       6 -> 17        -0.01837
       6 -> 20        -0.00597
       6 -> 21         0.00959
       6 -> 24        -0.01111
       6 -> 26        -0.00507
       6 -> 30        -0.00669
       6 -> 32         0.00193
       6 -> 34         0.00141
       6 -> 36        -0.00012
       6 -> 39         0.00106
       6 -> 41        -0.00026
       6 -> 43         0.00086
       6 -> 45         0.00083
       6 -> 47         0.00101
       6 -> 51         0.00074
       6 -> 54        -0.00083
       7 ->  9         0.68086
       7 -> 13        -0.00345
       7 -> 18        -0.01470
       7 -> 23        -0.00137
       7 -> 31        -0.00319
       7 -> 37         0.00113
       7 -> 44        -0.00102
       7 -> 48         0.00026
       7 -> 52         0.00106
       8 -> 12        -0.00790
       8 -> 16         0.05327
       8 -> 19        -0.02188
       8 -> 22        -0.01978
       8 -> 25         0.00021
       8 -> 29        -0.01024
       8 -> 33         0.00155
       8 -> 35        -0.00163
       8 -> 40         0.00078
       8 -> 42        -0.00036
       8 -> 49         0.00040
       8 -> 50         0.00019
       8 -> 53        -0.00061
       3 <- 10        -0.01299
       3 <- 11        -0.00564
       3 <- 14         0.00459
       3 <- 15         0.00129
       3 <- 17        -0.00181
       3 <- 20        -0.00309
       3 <- 21        -0.00069
       3 <- 24         0.00079
       3 <- 26         0.00142
       3 <- 30        -0.00076
       3 <- 32         0.00249
       3 <- 34         0.00096
       3 <- 36        -0.00106
       3 <- 39         0.00060
       3 <- 43         0.00059
       3 <- 45         0.00070
       3 <- 47         0.00234
       3 <- 51         0.00128
       3 <- 54         0.00019
       4 <- 10        -0.00239
       4 <- 11         0.00850
       4 <- 14         0.00203
       4 <- 15        -0.00580
       4 <- 17         0.00153
       4 <- 20         0.00360
       4 <- 21         0.00023
       4 <- 24        -0.00316
       4 <- 26         0.00359
       4 <- 30         0.00016
       4 <- 32        -0.00160
       4 <- 34        -0.00104
       4 <- 36         0.00065
       4 <- 43        -0.00048
       4 <- 45        -0.00084
       4 <- 47        -0.00064
       4 <- 51        -0.00018
       4 <- 54         0.00010
       5 <- 12         0.00697
       5 <- 16         0.00380
       5 <- 19         0.00102
       5 <- 22         0.00497
       5 <- 25         0.00476
       5 <- 29         0.00023
       5 <- 33        -0.00223
       5 <- 35         0.00233
       5 <- 40        -0.00117
       5 <- 42         0.00066
       5 <- 49         0.00030
       5 <- 50        -0.00070
       6 <- 10         0.06693
       6 <- 11         0.02490
       6 <- 14        -0.03158
       6 <- 15        -0.01846
       6 <- 17        -0.00986
       6 <- 20        -0.00464
       6 <- 21         0.00601
       6 <- 24        -0.00703
       6 <- 26        -0.00288
       6 <- 30        -0.00468
       6 <- 32         0.00225
       6 <- 34         0.00165
       6 <- 36        -0.00054
       6 <- 39         0.00104
       6 <- 41        -0.00020
       6 <- 43         0.00072
       6 <- 45         0.00067
       6 <- 47         0.00060
       6 <- 51         0.00059
       6 <- 54        -0.00073
       7 <-  9        -0.12880
       7 <- 13         0.00561
       7 <- 18        -0.01288
       7 <- 23         0.00223
       7 <- 28        -0.00289
       7 <- 31        -0.00154
       7 <- 37         0.00049
       7 <- 44        -0.00069
       7 <- 48        -0.00030
       7 <- 52         0.00094
       8 <- 12        -0.00243
       8 <- 16         0.02219
       8 <- 19        -0.01080
       8 <- 22        -0.01176
       8 <- 29        -0.00776
       8 <- 33         0.00119
       8 <- 35        -0.00127
       8 <- 40         0.00063
       8 <- 42        -0.00029
       8 <- 49         0.00024
       8 <- 50         0.00016
       8 <- 53        -0.00056

 Excited State   3:      Singlet-B1     4.7136 eV  263.03 nm  f=0.0011  <S**2>=0.000
       3 ->  9        -0.02639
       3 -> 13         0.00129
       3 -> 18        -0.00414
       3 -> 23         0.00148
       3 -> 28        -0.00078
       3 -> 31        -0.00051
       3 -> 44         0.00025
       3 -> 48         0.00096
       3 -> 52         0.00087
       4 ->  9         0.01191
       4 -> 13        -0.00250
       4 -> 18         0.00015
       4 -> 23        -0.00225
       4 -> 28         0.00032
       4 -> 31        -0.00139
       4 -> 37        -0.00036
       4 -> 44         0.00012
       4 -> 48        -0.00089
       4 -> 52        -0.00046
       5 -> 27         0.00015
       5 -> 38         0.00197
       5 -> 46         0.00067
       6 ->  9         0.70034
       6 -> 13        -0.01851
       6 -> 18         0.01553
       6 -> 23        -0.01060
       6 -> 28         0.00379
       6 -> 31         0.00287
       6 -> 37        -0.00194
       6 -> 44        -0.00243
       6 -> 48         0.00382
       6 -> 52         0.00127
       7 -> 10         0.09511
       7 -> 11         0.02571
       7 -> 14        -0.02121
       7 -> 15        -0.00615
       7 -> 17        -0.00896
       7 -> 20         0.00333
       7 -> 21         0.00082
       7 -> 24        -0.00128
       7 -> 26        -0.00201
       7 -> 30        -0.00390
       7 -> 32        -0.00031
       7 -> 34         0.00092
       7 -> 36         0.00164
       7 -> 39         0.00017
       7 -> 41        -0.00034
       7 -> 43         0.00050
       7 -> 45         0.00016
       7 -> 47         0.00392
       7 -> 51         0.00120
       7 -> 54         0.00023
       8 -> 27         0.00026
       8 -> 46         0.00486
       3 <-  9        -0.00892
       3 <- 13        -0.00080
       3 <- 18        -0.00271
       3 <- 23        -0.00061
       3 <- 28        -0.00046
       3 <- 31        -0.00072
       3 <- 37         0.00013
       3 <- 44        -0.00017
       3 <- 48         0.00110
       3 <- 52         0.00073
       4 <-  9         0.00655
       4 <- 13        -0.00040
       4 <- 18         0.00170
       4 <- 23        -0.00074
       4 <- 28         0.00147
       4 <- 31        -0.00093
       4 <- 37        -0.00022
       4 <- 48        -0.00077
       4 <- 52        -0.00026
       5 <- 27        -0.00043
       5 <- 38         0.00164
       5 <- 46         0.00059
       6 <-  9        -0.02944
       6 <- 13         0.00180
       6 <- 18        -0.00371
       6 <- 23        -0.00017
       6 <- 28        -0.00362
       6 <- 31         0.00082
       6 <- 37        -0.00164
       6 <- 44        -0.00113
       6 <- 48         0.00341
       6 <- 52         0.00034
       7 <- 10        -0.02929
       7 <- 11        -0.01081
       7 <- 14         0.01475
       7 <- 15         0.00998
       7 <- 17         0.00215
       7 <- 20         0.00423
       7 <- 21        -0.00381
       7 <- 24         0.00434
       7 <- 26         0.00169
       7 <- 30         0.00151
       7 <- 32         0.00025
       7 <- 34         0.00109
       7 <- 36         0.00218
       7 <- 39         0.00052
       7 <- 43         0.00032
       7 <- 47         0.00362
       7 <- 51         0.00118
       7 <- 54         0.00100
       8 <- 27         0.00074
       8 <- 38         0.00018
       8 <- 46         0.00456

 Excited State   4:      Singlet-B2     5.0400 eV  246.00 nm  f=0.0066  <S**2>=0.000
       3 -> 12        -0.00144
       3 -> 16         0.00187
       3 -> 19        -0.00455
       3 -> 22         0.00080
       3 -> 25         0.00072
       3 -> 29        -0.00320
       3 -> 35         0.00198
       3 -> 40        -0.00173
       3 -> 42         0.00041
       3 -> 49        -0.00331
       3 -> 50         0.00021
       3 -> 53         0.00031
       4 -> 12         0.00046
       4 -> 16        -0.00220
       4 -> 19         0.00040
       4 -> 22         0.00251
       4 -> 25        -0.00124
       4 -> 29         0.00131
       4 -> 33        -0.00044
       4 -> 35         0.00051
       4 -> 40         0.00044
       4 -> 49         0.00061
       4 -> 50        -0.00012
       5 -> 10         0.01070
       5 -> 11         0.00341
       5 -> 14        -0.00757
       5 -> 15         0.00424
       5 -> 17        -0.00015
       5 -> 20         0.00215
       5 -> 21         0.00483
       5 -> 24         0.00174
       5 -> 26        -0.00121
       5 -> 30        -0.00197
       5 -> 32        -0.00195
       5 -> 34        -0.00079
       5 -> 36        -0.00019
       5 -> 39        -0.00095
       5 -> 41         0.00059
       5 -> 45         0.00010
       5 -> 47        -0.00068
       5 -> 51         0.00042
       5 -> 54        -0.00024
       6 -> 12         0.00285
       6 -> 16        -0.00226
       6 -> 19         0.00367
       6 -> 22        -0.00043
       6 -> 25        -0.00098
       6 -> 29        -0.00031
       6 -> 33         0.00011
       6 -> 35        -0.00181
       6 -> 40         0.00145
       6 -> 42        -0.00059
       6 -> 49         0.00158
       6 -> 53        -0.00042
       7 -> 27        -0.00066
       7 -> 38         0.00061
       7 -> 46         0.00366
       8 -> 10         0.68456
       8 -> 11         0.14216
       8 -> 14        -0.09922
       8 -> 15        -0.03943
       8 -> 17        -0.01593
       8 -> 20         0.00132
       8 -> 21         0.00751
       8 -> 24        -0.00685
       8 -> 26        -0.00540
       8 -> 30        -0.01134
       8 -> 32        -0.00372
       8 -> 34        -0.00183
       8 -> 36         0.00043
       8 -> 39        -0.00075
       8 -> 43        -0.00019
       8 -> 45         0.00124
       8 -> 47        -0.00449
       8 -> 51         0.00205
       8 -> 54        -0.00210
       3 <- 12        -0.00052
       3 <- 16         0.00057
       3 <- 19        -0.00217
       3 <- 22         0.00096
       3 <- 25         0.00064
       3 <- 29        -0.00127
       3 <- 35         0.00146
       3 <- 40        -0.00151
       3 <- 42         0.00033
       3 <- 49        -0.00339
       3 <- 50         0.00019
       3 <- 53         0.00085
       4 <- 16        -0.00210
       4 <- 22         0.00253
       4 <- 25        -0.00077
       4 <- 29         0.00132
       4 <- 33        -0.00049
       4 <- 35         0.00074
       4 <- 40         0.00016
       4 <- 49         0.00044
       5 <- 10        -0.00060
       5 <- 11        -0.00122
       5 <- 14        -0.00083
       5 <- 15         0.00339
       5 <- 17         0.00021
       5 <- 20         0.00071
       5 <- 21         0.00200
       5 <- 24         0.00216
       5 <- 26        -0.00032
       5 <- 30        -0.00045
       5 <- 32        -0.00025
       5 <- 34        -0.00015
       5 <- 39        -0.00036
       5 <- 41         0.00062
       5 <- 43         0.00010
       5 <- 45         0.00035
       5 <- 47        -0.00062
       5 <- 51         0.00022
       6 <- 12        -0.00025
       6 <- 16         0.00659
       6 <- 19        -0.00312
       6 <- 22        -0.00472
       6 <- 25        -0.00082
       6 <- 29        -0.00548
       6 <- 33         0.00043
       6 <- 35        -0.00176
       6 <- 40         0.00148
       6 <- 42        -0.00066
       6 <- 49         0.00189
       6 <- 53        -0.00125
       7 <- 27        -0.00064
       7 <- 38         0.00049
       7 <- 46         0.00307
       8 <- 10        -0.02646
       8 <- 11        -0.01004
       8 <- 14         0.01045
       8 <- 15         0.00302
       8 <- 17         0.00089
       8 <- 20        -0.00279
       8 <- 21        -0.00199
       8 <- 24         0.00159
       8 <- 26         0.00174
       8 <- 30        -0.00026
       8 <- 32         0.00293
       8 <- 34         0.00116
       8 <- 36        -0.00051
       8 <- 39         0.00147
       8 <- 41         0.00041
       8 <- 43         0.00048
       8 <- 45         0.00200
       8 <- 47        -0.00353
       8 <- 51         0.00137
       8 <- 54        -0.00056

 Excited State   5:      Singlet-B1     6.0141 eV  206.16 nm  f=0.0079  <S**2>=0.000
       3 ->  9        -0.01274
       3 -> 13         0.00073
       3 -> 18        -0.00301
       3 -> 23         0.00089
       3 -> 28        -0.00326
       3 -> 31        -0.00161
       3 -> 44         0.00046
       3 -> 48        -0.00243
       4 ->  9        -0.03359
       4 -> 13         0.00631
       4 -> 18         0.00135
       4 -> 23         0.00464
       4 -> 28         0.00181
       4 -> 37         0.00034
       4 -> 44        -0.00047
       4 -> 48         0.00062
       4 -> 52         0.00012
       5 -> 27        -0.00718
       5 -> 38        -0.00316
       5 -> 46         0.00047
       6 ->  9        -0.09834
       6 -> 13        -0.00243
       6 -> 18         0.00213
       6 -> 23        -0.00069
       6 -> 28         0.00334
       6 -> 31        -0.00366
       6 -> 37         0.00198
       6 -> 44         0.00016
       6 -> 48         0.00072
       6 -> 52        -0.00056
       7 -> 10         0.68198
       7 -> 11         0.12195
       7 -> 14        -0.08899
       7 -> 15        -0.04447
       7 -> 17        -0.00981
       7 -> 20        -0.00437
       7 -> 21         0.00380
       7 -> 24        -0.00994
       7 -> 26        -0.00729
       7 -> 30        -0.00682
       7 -> 32        -0.00190
       7 -> 34        -0.00399
       7 -> 36        -0.00178
       7 -> 39        -0.00066
       7 -> 43         0.00062
       7 -> 45         0.00091
       7 -> 47         0.00185
       7 -> 51         0.00093
       7 -> 54        -0.00143
       8 -> 27         0.00103
       8 -> 38         0.00029
       8 -> 46         0.00218
       3 <-  9        -0.00273
       3 <- 13         0.00065
       3 <- 18        -0.00122
       3 <- 23         0.00060
       3 <- 28        -0.00205
       3 <- 31        -0.00031
       3 <- 37        -0.00020
       3 <- 44         0.00019
       3 <- 48        -0.00261
       3 <- 52         0.00041
       4 <-  9        -0.01142
       4 <- 13         0.00249
       4 <- 18         0.00050
       4 <- 23         0.00238
       4 <- 28         0.00167
       4 <- 31        -0.00024
       4 <- 37         0.00041
       4 <- 44        -0.00069
       4 <- 48         0.00020
       4 <- 52         0.00010
       5 <- 27        -0.00483
       5 <- 38        -0.00243
       5 <- 46         0.00043
       6 <-  9        -0.02588
       6 <- 18        -0.00371
       6 <- 23         0.00033
       6 <- 28        -0.00063
       6 <- 31        -0.00422

 The electronic state is 1-A1.
 Alpha  occ. eigenvalues --  -19.17497 -10.33296  -0.91000  -0.70520  -0.48988
 Alpha  occ. eigenvalues --   -0.40413  -0.31919  -0.28869
 Alpha virt. eigenvalues --   -0.15803  -0.03547   0.00426   0.04069   0.06108
 Alpha virt. eigenvalues --    0.07381   0.12255   0.13915   0.18867   0.21230
 Alpha virt. eigenvalues --    0.23986   0.30290   0.38754   0.40362   0.50835

 Mulliken charges:
               1
     1  C   -0.078293
     2  H    0.186354
     3  H    0.186354
     4  O   -0.294416
 Sum of Mulliken charges =  -0.00000

 Dipole moment (field-independent basis, Debye):
    X=             -0.0000    Y=              0.0000    Z=             -3.9532  Tot=              3.9532
 Quadrupole moment (field-independent basis, Debye-Ang):
   XX=            -12.8891   YY=            -11.9555   ZZ=            -11.0179
   XY=              0.0000   XZ=              0.0000   YZ=              0.0000

 Normal termination of Gaussian 16 at Fri Sep 17 10:53:04 2021.
