 Gaussian 16, Revision A.03,
 Gaussian 16:  ES64L-G16RevA.03 25-Dec-2016

 --------------------------------------------------------------------
 #p B3LYP/6-311+G** #p TD=(singlets,nstates=30)IOp(6/8=3) IOp(9/40=4)
 --------------------------------------------------------------------

 ------------------------------
 Scan Step 76, Bond Length 0.88
 ------------------------------
 Symbolic Z-matrix:
 Charge =  0 Multiplicity = 1

                         Standard orientation:
 ---------------------------------------------------------------------
 Center     Atomic      Atomic             Coordinates (Angstroms)
 Number     Number       Type             X           Y           Z
 ---------------------------------------------------------------------
      1          6           0        0.000000    0.000000   -0.366081
      2          1           0        0.000000    0.937260   -0.957431
      3          1           0       -0.000000   -0.937260   -0.957431
      4          8           0        0.000000   -0.000000    0.513919
 ---------------------------------------------------------------------

 SCF Done:  E(RB3LYP) =  -114.183046126     A.U. after    9 cycles

 Excitation energies and oscillator strengths:

 Excited State   1:      Singlet-A2     5.5364 eV  223.94 nm  f=0.0000  <S**2>=0.000
       3 -> 27         0.00280
       3 -> 35         0.00217
       3 -> 46         0.00115
       4 -> 10         0.00739
       4 -> 13         0.00868
       4 -> 17         0.00600
       4 -> 22        -0.00352
       4 -> 28         0.00299
       4 -> 32         0.00174
       4 -> 37         0.00341
       4 -> 43         0.00050
       4 -> 52         0.00068
       5 -> 27         0.00353
       5 -> 35        -0.00070
       5 -> 46        -0.00065
       6 -> 12        -0.00055
       6 -> 16        -0.00091
       6 -> 18        -0.00046
       6 -> 23         0.00172
       6 -> 24         0.00043
       6 -> 29        -0.00035
       6 -> 33         0.00025
       6 -> 36         0.00053
       6 -> 42         0.00050
       6 -> 47         0.00064
       6 -> 50        -0.00018
       6 -> 53         0.00026
       7 -> 27         0.00100
       7 -> 35        -0.00025
       7 -> 46         0.00111
       8 -> 10         0.69606
       8 -> 13         0.12036
       8 -> 17         0.03038
       8 -> 22        -0.00692
       8 -> 28         0.00497
       8 -> 32         0.00341
       8 -> 37        -0.00236
       8 -> 43        -0.00018
       8 -> 52         0.00089
       3 <- 27         0.00209
       3 <- 35         0.00187
       3 <- 46         0.00119
       4 <- 10         0.00025
       4 <- 13         0.00115
       4 <- 17         0.00011
       4 <- 22         0.00021
       4 <- 32        -0.00107
       4 <- 37         0.00157
       4 <- 43         0.00043
       4 <- 52         0.00017
       5 <- 27         0.00397
       5 <- 35        -0.00049
       5 <- 46        -0.00064
       6 <- 12        -0.00092
       6 <- 16         0.00169
       6 <- 18        -0.00307
       6 <- 23         0.00434
       6 <- 24        -0.00165
       6 <- 29         0.00166
       6 <- 33        -0.00085
       6 <- 36         0.00187
       6 <- 40        -0.00014
       6 <- 42         0.00085
       6 <- 47         0.00050
       6 <- 53         0.00070
       7 <- 27         0.00109
       7 <- 35        -0.00031
       7 <- 46         0.00090
       8 <- 10        -0.00783
       8 <- 13        -0.00860
       8 <- 17        -0.00429
       8 <- 22         0.00045
       8 <- 28        -0.00039
       8 <- 32         0.00284
       8 <- 37        -0.00225
       8 <- 52         0.00027
 This state for optimization and/or second-order correction.
 Total Energy, E(TD-HF/TD-DFT) =  -113.979586761
 Copying the excited state density for this state as the 1-particle RhoCI density.

 Excited State   2:      Singlet-B2     5.8557 eV  211.73 nm  f=0.0878  <S**2>=0.000
       3 -> 12         0.00089
       3 -> 16         0.00024
       3 -> 18         0.00101
       3 -> 24         0.00114
       3 -> 29        -0.00019
       3 -> 36        -0.00010
       3 -> 42         0.00014
       3 -> 50        -0.00015
       4 ->  9         0.00165
       4 -> 11        -0.00659
       4 -> 14         0.00525
       4 -> 15         0.00160
       4 -> 19         0.00373
       4 -> 20         0.00123
       4 -> 21         0.00282
       4 -> 25         0.00123
       4 -> 26        -0.00116
       4 -> 30        -0.00218
       4 -> 31         0.00027
       4 -> 34         0.00035
       4 -> 38        -0.00080
       4 -> 39         0.00014
       4 -> 41         0.00042
       4 -> 44         0.00042
       4 -> 45        -0.00057
       4 -> 48         0.00038
       5 -> 12        -0.00635
       5 -> 16         0.00120
       5 -> 18         0.00130
       5 -> 23        -0.00246
       5 -> 24         0.00409
       5 -> 29        -0.00059
       5 -> 33        -0.00102
       5 -> 36         0.00088
       5 -> 40        -0.00016
       5 -> 42         0.00044
       6 -> 27         0.00105
       6 -> 35         0.00025
       6 -> 46         0.00086
       7 -> 12         0.00245
       7 -> 16         0.00312
       7 -> 18         0.00371
       7 -> 23        -0.00214
       7 -> 24         0.00245
       7 -> 36        -0.00021
       7 -> 42        -0.00037
       7 -> 47         0.00040
       7 -> 50         0.00049
       8 ->  9         0.70625
       8 -> 11        -0.01385
       8 -> 14        -0.02046
       8 -> 15         0.01146
       8 -> 19         0.02030
       8 -> 20        -0.00787
       8 -> 21        -0.00790
       8 -> 25         0.00068
       8 -> 26        -0.00053
       8 -> 31         0.00287
       8 -> 34         0.00153
       8 -> 38         0.00086
       8 -> 39        -0.00054
       8 -> 41        -0.00040
       8 -> 44        -0.00030
       8 -> 45        -0.00107
       8 -> 48         0.00034
       8 -> 54        -0.00014
       3 <- 12         0.00029
       3 <- 18         0.00061
       3 <- 24         0.00083
       3 <- 29        -0.00017
       3 <- 36        -0.00011
       3 <- 42         0.00012
       3 <- 53         0.00010
       4 <-  9         0.00205
       4 <- 11         0.00010
       4 <- 14         0.00414
       4 <- 15         0.00174
       4 <- 19         0.00094
       4 <- 20         0.00042
       4 <- 21         0.00176
       4 <- 25         0.00165
       4 <- 26        -0.00125
       4 <- 30        -0.00080
       4 <- 31        -0.00019
       4 <- 34         0.00014
       4 <- 38        -0.00052
       4 <- 39         0.00016
       4 <- 41         0.00043
       4 <- 44         0.00029
       4 <- 45        -0.00051
       4 <- 48         0.00033
       5 <- 12        -0.00011
       5 <- 16         0.00107
       5 <- 18         0.00238
       5 <- 23        -0.00145
       5 <- 24         0.00313
       5 <- 29        -0.00048
       5 <- 33        -0.00077
       5 <- 36         0.00067
       5 <- 40        -0.00020
       5 <- 42         0.00020
       6 <- 27         0.00082
       6 <- 35         0.00020
       6 <- 46         0.00073
       7 <- 12         0.00067
       7 <- 16         0.00200
       7 <- 18         0.00129
       7 <- 23        -0.00087
       7 <- 24         0.00114
       7 <- 29         0.00072
       7 <- 42        -0.00033
       7 <- 47         0.00037
       7 <- 50         0.00055
       8 <-  9        -0.00450
       8 <- 11        -0.00219
       8 <- 14        -0.01317
       8 <- 15        -0.00217
       8 <- 19        -0.00110
       8 <- 20         0.00025
       8 <- 21        -0.00423
       8 <- 25        -0.00312
       8 <- 26        -0.00064
       8 <- 30         0.00049
       8 <- 31         0.00151
       8 <- 34         0.00155
       8 <- 38         0.00086
       8 <- 39        -0.00044
       8 <- 41        -0.00026
       8 <- 44        -0.00033
       8 <- 45        -0.00078
       8 <- 48         0.00031

 Excited State   3:      Singlet-B2     6.6486 eV  186.48 nm  f=0.0226  <S**2>=0.000
       3 -> 12        -0.00011
       3 -> 16         0.00065
       3 -> 23         0.00019
       3 -> 24         0.00043
       3 -> 29         0.00093
       3 -> 33         0.00014
       3 -> 36        -0.00029
       3 -> 42        -0.00030
       3 -> 47         0.00019
       3 -> 50         0.00021
       4 ->  9        -0.00493
       4 -> 14         0.00289
       4 -> 15         0.00456
       4 -> 19        -0.00321
       4 -> 20         0.00066
       4 -> 21         0.00138
       4 -> 25         0.00095
       4 -> 26         0.00122
       4 -> 30        -0.00073
       4 -> 31        -0.00217
       4 -> 34        -0.00044
       4 -> 39        -0.00078
       4 -> 41        -0.00068
       4 -> 44         0.00010
       4 -> 45         0.00061
       4 -> 48        -0.00042
       4 -> 51        -0.00021
       5 -> 12         0.00268
       5 -> 16         0.00441
       5 -> 18         0.00157
       5 -> 23        -0.00138
       5 -> 24         0.00371
       5 -> 29        -0.00123
       5 -> 33         0.00056
       5 -> 36        -0.00012
       5 -> 40        -0.00026
       5 -> 47         0.00013
       5 -> 50         0.00011
       6 -> 27        -0.00087
       6 -> 35        -0.00134
       6 -> 46        -0.00105
       7 -> 12        -0.00292
       7 -> 18        -0.00241
       7 -> 23         0.00130
       7 -> 24        -0.00041
       7 -> 33        -0.00024
       7 -> 36         0.00119
       7 -> 40        -0.00031
       7 -> 42         0.00065
       7 -> 47        -0.00066
       7 -> 50        -0.00058
       7 -> 53         0.00017
       8 ->  9         0.01419
       8 -> 11         0.70593
       8 -> 14        -0.01790
       8 -> 15        -0.02366
       8 -> 19        -0.01700
       8 -> 20        -0.01508
       8 -> 21        -0.00304
       8 -> 25         0.00038
       8 -> 26        -0.00039
       8 -> 30         0.00177
       8 -> 31         0.00047
       8 -> 34         0.00038
       8 -> 38        -0.00014
       8 -> 39        -0.00076
       8 -> 41        -0.00125
       8 -> 44         0.00012
       8 -> 45         0.00069
       8 -> 48        -0.00061
       8 -> 51        -0.00011
       8 -> 54         0.00016
       3 <- 12         0.00022
       3 <- 16         0.00060
       3 <- 18         0.00023
       3 <- 24         0.00049
       3 <- 29         0.00062
       3 <- 33         0.00017
       3 <- 36        -0.00032
       3 <- 42        -0.00026
       3 <- 47         0.00015
       3 <- 50         0.00011
       3 <- 53        -0.00021
       4 <-  9         0.00136
       4 <- 11        -0.00024
       4 <- 14         0.00181
       4 <- 15         0.00058
       4 <- 19         0.00064
       4 <- 20        -0.00029
       4 <- 21         0.00102
       4 <- 25         0.00093
       4 <- 26         0.00094
       4 <- 30        -0.00086
       4 <- 31        -0.00083
       4 <- 34        -0.00098
       4 <- 39        -0.00057
       4 <- 41        -0.00069
       4 <- 45         0.00063
       4 <- 48        -0.00029
       4 <- 51        -0.00020
       5 <- 12         0.00025
       5 <- 16         0.00079
       5 <- 18         0.00112
       5 <- 23        -0.00126
       5 <- 24         0.00183
       5 <- 29        -0.00054
       5 <- 33         0.00057
       5 <- 36         0.00019
       5 <- 40        -0.00025
       5 <- 50         0.00020
       6 <- 27        -0.00041
       6 <- 35        -0.00111
       6 <- 46        -0.00091
       7 <- 12        -0.00037
       7 <- 16        -0.00038
       7 <- 18        -0.00021
       7 <- 23         0.00025
       7 <- 29        -0.00037
       7 <- 36         0.00083
       7 <- 40        -0.00025
       7 <- 42         0.00045
       7 <- 47        -0.00058
       7 <- 50        -0.00055
       8 <-  9        -0.00205
       8 <- 11         0.00133
       8 <- 14        -0.00678
       8 <- 15        -0.00161
       8 <- 19         0.00192
       8 <- 20         0.00204
       8 <- 21        -0.00273
       8 <- 25        -0.00043
       8 <- 26         0.00080
       8 <- 30         0.00120
       8 <- 31         0.00112
       8 <- 38        -0.00031
       8 <- 39        -0.00052
       8 <- 41        -0.00106
       8 <- 45         0.00059
       8 <- 48        -0.00039
       8 <- 51        -0.00014

 Excited State   4:      Singlet-A1     6.7859 eV  182.71 nm  f=0.0407  <S**2>=0.000
       3 ->  9         0.00131
       3 -> 11        -0.00080
       3 -> 15         0.00058
       3 -> 19         0.00132
       3 -> 20        -0.00032
       3 -> 21        -0.00031
       3 -> 25         0.00026
       3 -> 30        -0.00104
       3 -> 31        -0.00023
       3 -> 34        -0.00021
       3 -> 38        -0.00034
       3 -> 39        -0.00026
       3 -> 41        -0.00012
       3 -> 48        -0.00014
       3 -> 51        -0.00028
       3 -> 54         0.00020
       4 -> 12         0.00746
       4 -> 16         0.00795
       4 -> 18         0.00695
       4 -> 23         0.00082
       4 -> 24         0.00410
       4 -> 29         0.00066
       4 -> 33        -0.00016
       4 -> 36         0.00095
       4 -> 42        -0.00024
       4 -> 50        -0.00036
       4 -> 53        -0.00013
       5 ->  9         0.00564
       5 -> 11         0.01059
       5 -> 14         0.00625
       5 -> 15         0.00213
       5 -> 19         0.00114
       5 -> 20        -0.00672
       5 -> 21         0.00201
       5 -> 25         0.00683
       5 -> 26        -0.00089
       5 -> 30         0.00082
       5 -> 31        -0.00074
       5 -> 34        -0.00105
       5 -> 38        -0.00031
       5 -> 39         0.00089
       5 -> 41         0.00013
       5 -> 44         0.00012
       5 -> 45        -0.00033
       5 -> 48        -0.00029
       6 -> 10         0.00734
       6 -> 13        -0.00327
       6 -> 17         0.00513
       6 -> 22         0.00404
       6 -> 28         0.00073
       6 -> 32         0.00090
       6 -> 37         0.00054
       6 -> 43         0.00048
       6 -> 49        -0.00037
       7 ->  9         0.01306
       7 -> 11        -0.00532
       7 -> 14         0.00273
       7 -> 15        -0.00108
       7 -> 19         0.00798
       7 -> 20        -0.00281
       7 -> 21         0.00090
       7 -> 25         0.00194
       7 -> 30        -0.00025
       7 -> 31         0.00065
       7 -> 34        -0.00096
       7 -> 39         0.00024
       7 -> 48        -0.00021
       7 -> 51         0.00043
       8 -> 12         0.70544
       8 -> 16         0.04263
       8 -> 18        -0.00224
       8 -> 23         0.00333
       8 -> 24         0.00161
       8 -> 29         0.00338
       8 -> 33         0.00156
       8 -> 36        -0.00257
       8 -> 40         0.00013
       8 -> 42         0.00144
       8 -> 47        -0.00047
       8 -> 53        -0.00011
       3 <-  9         0.00057
       3 <- 11        -0.00031
       3 <- 15         0.00029
       3 <- 19         0.00074
       3 <- 20        -0.00012
       3 <- 21        -0.00010
       3 <- 25         0.00031
       3 <- 30        -0.00062
       3 <- 31        -0.00019
       3 <- 34        -0.00017
       3 <- 38        -0.00025
       3 <- 39        -0.00022
       3 <- 41        -0.00013
       3 <- 48        -0.00017
       3 <- 51        -0.00024
       3 <- 54         0.00018
       4 <- 12         0.00263
       4 <- 16         0.00239
       4 <- 18         0.00342
       4 <- 23         0.00082
       4 <- 24         0.00221
       4 <- 29         0.00023
       4 <- 33        -0.00028
       4 <- 36         0.00082
       4 <- 42        -0.00021
       4 <- 50        -0.00029
       4 <- 53        -0.00012
       5 <-  9         0.00585
       5 <- 11         0.00384
       5 <- 14         0.00469
       5 <- 15         0.00204
       5 <- 19         0.00084
       5 <- 20        -0.00379
       5 <- 21         0.00057
       5 <- 25         0.00418
       5 <- 26        -0.00040
       5 <- 30         0.00016
       5 <- 31        -0.00096
       5 <- 34        -0.00088
       5 <- 38        -0.00041
       5 <- 39         0.00074
       5 <- 44         0.00019
       5 <- 45        -0.00029
       5 <- 48        -0.00023
       6 <- 10         0.00269
       6 <- 13        -0.00134
       6 <- 17         0.00239
       6 <- 22         0.00243
       6 <- 28         0.00045
       6 <- 32         0.00069
       6 <- 37         0.00044
       6 <- 43         0.00040
       6 <- 49        -0.00032
       7 <-  9         0.00453
       7 <- 11        -0.00131
       7 <- 14         0.00132
       7 <- 15        -0.00038
       7 <- 19         0.00346
       7 <- 20        -0.00166
       7 <- 21         0.00027
       7 <- 25         0.00117
       7 <- 26        -0.00011
       7 <- 30        -0.00031
       7 <- 31         0.00039
       7 <- 34        -0.00066
       7 <- 38        -0.00014
       7 <- 39         0.00030
       7 <- 45        -0.00011
       7 <- 48        -0.00010
       7 <- 51         0.00040
       8 <- 12        -0.00382
       8 <- 16         0.00560
       8 <- 18        -0.01088
       8 <- 23        -0.00096
       8 <- 24        -0.00196
       8 <- 29         0.00174
       8 <- 33         0.00119
       8 <- 36        -0.00183
       8 <- 42         0.00116
       8 <- 47        -0.00053
       8 <- 53        -0.00013

 Excited State   5:      Singlet-A2     7.5986 eV  163.17 nm  f=0.0000  <S**2>=0.000
       3 -> 27         0.00183
       3 -> 35         0.00149
       3 -> 46         0.00072
       4 -> 10         0.00803
       4 -> 13         0.00834
       4 -> 17        -0.00204
       4 -> 22        -0.00152
       4 -> 28         0.00036
       4 -> 32         0.00223
       4 -> 37         0.00258
       4 -> 43         0.00032
       4 -> 49        -0.00010
       4 -> 52         0.00042
       5 -> 27         0.00108
       5 -> 35        -0.00076
       5 -> 46        -0.00025
       6 -> 12         0.00019
       6 -> 16        -0.00198
       6 -> 18        -0.00041
       6 -> 23         0.00137
       6 -> 24         0.00017
       6 -> 29        -0.00038
       6 -> 36         0.00039
       6 -> 42         0.00039
       6 -> 47         0.00038
       6 -> 53         0.00018
       7 -> 27         0.00027
       7 -> 35        -0.00021
       7 -> 46         0.00077
       8 -> 10        -0.12104
       8 -> 13         0.69616
       8 -> 17         0.00763
       8 -> 22        -0.02339
       8 -> 28         0.00207
       8 -> 32         0.00168
       8 -> 37        -0.00122
       8 -> 43        -0.00016
       8 -> 49        -0.00015
       8 -> 52         0.00047
       3 <- 27         0.00112
       3 <- 35         0.00122
       3 <- 46         0.00083
       4 <- 10         0.00032
       4 <- 13         0.00033
       4 <- 17        -0.00049
       4 <- 22         0.00011
       4 <- 32        -0.00032
       4 <- 37         0.00085
       4 <- 43         0.00025
       4 <- 52         0.00013
       5 <- 27         0.00165
       5 <- 35        -0.00010
       5 <- 46        -0.00030
       6 <- 12         0.00042
       6 <- 16        -0.00045
       6 <- 18        -0.00080
       6 <- 23         0.00264
       6 <- 24        -0.00058
       6 <- 29         0.00011
       6 <- 33        -0.00074
       6 <- 36         0.00137
       6 <- 42         0.00075
       6 <- 47         0.00017
       6 <- 53         0.00039
       7 <- 27         0.00050
       7 <- 35        -0.00027
       7 <- 46         0.00040
       8 <- 10        -0.00696
       8 <- 13        -0.00159
       8 <- 17        -0.00106
       8 <- 22         0.00057
       8 <- 28        -0.00027
       8 <- 32         0.00125
       8 <- 37        -0.00109
       8 <- 52         0.00018

 Excited State   6:      Singlet-B2     9.8836 eV  125.44 nm  f=0.2604  <S**2>=0.000
       3 -> 12        -0.00041

 The electronic state is 1-A1.
 Alpha  occ. eigenvalues --  -19.13873 -10.23635  -1.27649  -0.61682  -0.59413
 Alpha  occ. eigenvalues --   -0.56905  -0.52271  -0.23986
 Alpha virt. eigenvalues --    0.01394   0.01690   0.04410   0.04424   0.09250
 Alpha virt. eigenvalues --    0.14232   0.17736   0.20332   0.21861   0.23403
 Alpha virt. eigenvalues --    0.26012   0.36383   0.50180   0.52854   0.53848

 Mulliken charges:
               1
     1  C    0.225008
     2  H   -0.003248
     3  H   -0.003248
     4  O   -0.218513
 Sum of Mulliken charges =   0.00000

 Dipole moment (field-independent basis, Debye):
    X=              0.0000    Y=              0.0000    Z=             -0.4556  Tot=              0.4556
 Quadrupole moment (field-independent basis, Debye-Ang):
   XX=            -10.7582   YY=            -12.3929   ZZ=            -13.2374
   XY=             -0.0000   XZ=             -0.0000   YZ=              0.0000

 Normal termination of Gaussian 16 at Fri Sep 17 10:52:31 2021.
