 Gaussian 16, Revision C.01,
 Gaussian 16:  ES64L-G16RevC.01  3-Jul-2019

 ----------------------------------------
 #P wB97XD/6-311+G* NoSymm #P Field=Y-282
 ----------------------------------------

 -------
 TitleMe
 -------
 Symbolic Z-matrix:
 Charge =  1 Multiplicity = 1

                          Input orientation:
 ---------------------------------------------------------------------
 Center     Atomic      Atomic             Coordinates (Angstroms)
 Number     Number       Type             X           Y           Z
 ---------------------------------------------------------------------
      1          6           0        0.519300    1.233000   -0.031900
      2          6           0        1.944500    1.269200   -0.036700
      3          6           0        2.620400    0.092800   -0.025000
      4          6           0       -0.196000    0.030100    0.001000
      5          1           0       -0.020700    2.174200   -0.043400
      6          1           0        2.482800    2.208900   -0.036100
      7          1           0       -1.277700    0.039900    0.011700
      8          7           0        4.092100    0.095900    0.036600
      9          8           0        4.639300   -1.021700    0.144600
     10          8           0        4.664900    1.198400   -0.023300
     11          6           0        0.494300   -1.167100    0.021000
     12          1           0       -0.032500   -2.114900    0.054500
     13          6           0        1.962900   -1.216500   -0.021100
     14          1           0        2.443600   -1.963100    0.615100
     15         35           0        2.173000   -1.949100   -1.906200
 ---------------------------------------------------------------------

 SCF Done:  E(RwB97XD) =  -3010.56796316     A.U. after   23 cycles

 Alpha  occ. eigenvalues -- -483.35984 -62.91047 -56.70675 -56.70200 -56.70186
 Alpha  occ. eigenvalues --  -19.47088 -19.46536 -14.86053 -10.62273 -10.60023
 Alpha  occ. eigenvalues --  -10.59529 -10.57625 -10.54496 -10.53147  -9.06882
 Alpha  occ. eigenvalues --   -6.89378  -6.87803  -6.87759  -2.99325  -2.98911
 Alpha  occ. eigenvalues --   -2.98876  -2.97614  -2.97613  -1.50388  -1.33348
 Alpha  occ. eigenvalues --   -1.24535  -1.15278  -1.13887  -1.07924  -1.01930
 Alpha  occ. eigenvalues --   -0.97085  -0.91921  -0.86500  -0.82016  -0.81740
 Alpha  occ. eigenvalues --   -0.80838  -0.79594  -0.77232  -0.76467  -0.74279
 Alpha  occ. eigenvalues --   -0.69668  -0.67908  -0.65173  -0.63249  -0.61752
 Alpha  occ. eigenvalues --   -0.58713  -0.58022  -0.56446  -0.55943
 Alpha virt. eigenvalues --   -0.32204  -0.23301  -0.21485  -0.19943  -0.18229
 Alpha virt. eigenvalues --   -0.16645  -0.13879  -0.12187  -0.11684  -0.09954
 Alpha virt. eigenvalues --   -0.07880  -0.06974  -0.05848  -0.04927  -0.03264

 Mulliken charges:
               1
     1  C   -0.123702
     2  C    0.256701
     3  C   -0.019555
     4  C   -0.275520
     5  H    0.452575
     6  H    0.447247
     7  H    0.340987
     8  N   -0.233892
     9  O   -0.059284
    10  O    0.232576
    11  C   -0.174537
    12  H    0.247185
    13  C   -0.407112
    14  H    0.341230
    15  Br  -0.024897
 Sum of Mulliken charges =   1.00000

 Dipole moment (field-independent basis, Debye):
    X=              2.3513    Y=              7.4537    Z=              0.3461  Tot=              7.8235
 Quadrupole moment (field-independent basis, Debye-Ang):
   XX=            -68.3179   YY=            -56.8255   ZZ=            -65.3921
   XY=             14.4017   XZ=             -0.1860   YZ=             -2.0198

 Normal termination of Gaussian 16 at Thu May  2 14:22:31 2024.
