 Gaussian 16, Revision C.01,
 Gaussian 16:  ES64L-G16RevC.01  3-Jul-2019

 ----------------------------------------
 #P wB97XD/6-311+G* NoSymm #P Field=Y+184
 ----------------------------------------

 -------
 TitleMe
 -------
 Symbolic Z-matrix:
 Charge =  1 Multiplicity = 1

                          Input orientation:
 ---------------------------------------------------------------------
 Center     Atomic      Atomic             Coordinates (Angstroms)
 Number     Number       Type             X           Y           Z
 ---------------------------------------------------------------------
      1          6           0        0.519300    1.233000   -0.031900
      2          6           0        1.944500    1.269200   -0.036700
      3          6           0        2.620400    0.092800   -0.025000
      4          6           0       -0.196000    0.030100    0.001000
      5          1           0       -0.020700    2.174200   -0.043400
      6          1           0        2.482800    2.208900   -0.036100
      7          1           0       -1.277700    0.039900    0.011700
      8          7           0        4.092100    0.095900    0.036600
      9          8           0        4.639300   -1.021700    0.144600
     10          8           0        4.664900    1.198400   -0.023300
     11          6           0        0.494300   -1.167100    0.021000
     12          1           0       -0.032500   -2.114900    0.054500
     13          6           0        1.962900   -1.216500   -0.021100
     14          1           0        2.443600   -1.963100    0.615100
     15         35           0        2.173000   -1.949100   -1.906200
 ---------------------------------------------------------------------

 SCF Done:  E(RwB97XD) =  -3010.55804479     A.U. after   21 cycles

 Alpha  occ. eigenvalues -- -483.28517 -62.83491 -56.63225 -56.62607 -56.62586
 Alpha  occ. eigenvalues --  -19.46346 -19.45986 -14.85452 -10.58681 -10.56676
 Alpha  occ. eigenvalues --  -10.55768 -10.55471 -10.53662 -10.52056  -8.99261
 Alpha  occ. eigenvalues --   -6.82046  -6.80026  -6.79960  -2.91923  -2.91403
 Alpha  occ. eigenvalues --   -2.91350  -2.89735  -2.89734  -1.49788  -1.32762
 Alpha  occ. eigenvalues --   -1.21453  -1.12133  -1.11168  -1.03145  -0.99189
 Alpha  occ. eigenvalues --   -0.94364  -0.89902  -0.84635  -0.80491  -0.79836
 Alpha  occ. eigenvalues --   -0.79396  -0.77224  -0.75904  -0.74593  -0.70846
 Alpha  occ. eigenvalues --   -0.67554  -0.66724  -0.62252  -0.58469  -0.57306
 Alpha  occ. eigenvalues --   -0.56440  -0.55717  -0.52840  -0.52142
 Alpha virt. eigenvalues --   -0.28857  -0.20145  -0.15819  -0.13737  -0.12235
 Alpha virt. eigenvalues --   -0.11515  -0.07249  -0.07127  -0.05625  -0.03458
 Alpha virt. eigenvalues --   -0.02720  -0.01834  -0.00808  -0.00121   0.00385

 Mulliken charges:
               1
     1  C   -0.102589
     2  C    0.211058
     3  C   -0.122297
     4  C   -0.385720
     5  H    0.263881
     6  H    0.275190
     7  H    0.326735
     8  N   -0.246913
     9  O    0.191664
    10  O   -0.034651
    11  C   -0.171902
    12  H    0.419464
    13  C   -0.403094
    14  H    0.454413
    15  Br   0.324760
 Sum of Mulliken charges =   1.00000

 Dipole moment (field-independent basis, Debye):
    X=              3.0604    Y=             -6.3285    Z=             -1.5130  Tot=              7.1907
 Quadrupole moment (field-independent basis, Debye-Ang):
   XX=            -67.5786   YY=            -48.8471   ZZ=            -60.2456
   XY=            -14.3068   XZ=             -4.2282   YZ=              5.3351

 Normal termination of Gaussian 16 at Thu May  2 14:20:40 2024.
