 Gaussian 16, Revision C.01,
 Gaussian 16:  ES64L-G16RevC.01  3-Jul-2019

 ---------------------------------------
 #P wB97XD/6-311+G* NoSymm #P Field=X-87
 ---------------------------------------

 -------
 TitleMe
 -------
 Symbolic Z-matrix:
 Charge =  1 Multiplicity = 1

                          Input orientation:
 ---------------------------------------------------------------------
 Center     Atomic      Atomic             Coordinates (Angstroms)
 Number     Number       Type             X           Y           Z
 ---------------------------------------------------------------------
      1          6           0        0.029500    1.339700    0.068200
      2          6           0        1.434800    1.286700    0.006400
      3          6           0        2.111800    0.051100   -0.005400
      4          6           0        1.445100   -1.137200    0.031200
      5          6           0       -0.687900    0.168200    0.110000
      6          1           0       -0.471300    2.298400    0.078100
      7          1           0        2.027300    2.196500   -0.032200
      8          1           0        1.989700   -2.076400    0.023200
      9          1           0       -1.771600    0.180400    0.158200
     10          7           0        3.586400    0.051000   -0.067500
     11          8           0        4.147100   -1.059700   -0.088100
     12          8           0        4.145000    1.163900   -0.090100
     13          6           0       -0.023600   -1.145800    0.083500
     14          1           0       -0.436700   -1.872500    0.788900
     15         35           0       -0.535900   -1.869700   -1.740800
 ---------------------------------------------------------------------

 SCF Done:  E(RwB97XD) =  -3010.53695046     A.U. after   21 cycles

 Alpha  occ. eigenvalues -- -483.30577 -62.85616 -56.65290 -56.64743 -56.64741
 Alpha  occ. eigenvalues --  -19.41242 -19.41172 -14.80837 -10.57434 -10.55806
 Alpha  occ. eigenvalues --  -10.55652 -10.55053 -10.54834 -10.51971  -9.01432
 Alpha  occ. eigenvalues --   -6.84060  -6.82264  -6.82251  -2.93976  -2.93498
 Alpha  occ. eigenvalues --   -2.93486  -2.92049  -2.92049  -1.45013  -1.27934
 Alpha  occ. eigenvalues --   -1.21079  -1.12416  -1.10201  -1.03379  -0.98465
 Alpha  occ. eigenvalues --   -0.93984  -0.89058  -0.83058  -0.78836  -0.77593
 Alpha  occ. eigenvalues --   -0.76851  -0.75610  -0.74418  -0.71647  -0.70720
 Alpha  occ. eigenvalues --   -0.68038  -0.66008  -0.62176  -0.58897  -0.56001
 Alpha  occ. eigenvalues --   -0.54349  -0.52279  -0.51125  -0.50798
 Alpha virt. eigenvalues --   -0.28328  -0.18211  -0.14687  -0.11029  -0.10012
 Alpha virt. eigenvalues --   -0.07084  -0.05635  -0.05546  -0.03467  -0.02153
 Alpha virt. eigenvalues --   -0.01954  -0.01031  -0.00876  -0.00454   0.00243

 Mulliken charges:
               1
     1  C   -0.552351
     2  C    0.478127
     3  C   -0.683748
     4  C    0.317139
     5  C   -0.018557
     6  H    0.315674
     7  H    0.381564
     8  H    0.386449
     9  H    0.310516
    10  N   -0.111672
    11  O    0.070772
    12  O    0.067943
    13  C   -0.480583
    14  H    0.389769
    15  Br   0.128960
 Sum of Mulliken charges =   1.00000

 Dipole moment (field-independent basis, Debye):
    X=              1.7722    Y=             -0.2973    Z=              0.1888  Tot=              1.8069
 Quadrupole moment (field-independent basis, Debye-Ang):
   XX=            -65.2638   YY=            -52.2860   ZZ=            -63.2729
   XY=              0.8627   XZ=              0.4409   YZ=              1.0680

 Normal termination of Gaussian 16 at Wed May  1 14:48:27 2024.
