 Gaussian 16, Revision A.03,
 Gaussian 16:  ES64L-G16RevA.03 25-Dec-2016

 --------------------------------------------------------------------
 #p B3LYP/6-311+G** #p TD=(singlets,nstates=30)IOp(6/8=3) IOp(9/40=4)
 --------------------------------------------------------------------

 -----------------------------
 Scan Step 80, Bond Length 0.9
 -----------------------------
 Symbolic Z-matrix:
 Charge =  0 Multiplicity = 1

                         Standard orientation:
 ---------------------------------------------------------------------
 Center     Atomic      Atomic             Coordinates (Angstroms)
 Number     Number       Type             X           Y           Z
 ---------------------------------------------------------------------
      1          6           0        0.000000    0.000000   -0.376081
      2          1           0        0.000000    0.937260   -0.967431
      3          1           0       -0.000000   -0.937260   -0.967431
      4          8           0        0.000000   -0.000000    0.523919
 ---------------------------------------------------------------------

 SCF Done:  E(RB3LYP) =  -114.243130920     A.U. after    9 cycles

 Excitation energies and oscillator strengths:

 Excited State   1:      Singlet-A2     5.4945 eV  225.65 nm  f=0.0000  <S**2>=0.000
       3 -> 27         0.00288
       3 -> 36         0.00226
       3 -> 46         0.00125
       4 ->  9         0.00886
       4 -> 13         0.00915
       4 -> 17         0.00608
       4 -> 22        -0.00351
       4 -> 28         0.00309
       4 -> 32         0.00197
       4 -> 37         0.00358
       4 -> 43         0.00054
       4 -> 52         0.00072
       5 -> 27         0.00347
       5 -> 36        -0.00072
       5 -> 46        -0.00070
       6 -> 12        -0.00057
       6 -> 16        -0.00109
       6 -> 18        -0.00053
       6 -> 23         0.00175
       6 -> 24         0.00054
       6 -> 29        -0.00041
       6 -> 33         0.00026
       6 -> 35         0.00054
       6 -> 40        -0.00011
       6 -> 42         0.00050
       6 -> 47         0.00065
       6 -> 50        -0.00018
       6 -> 53         0.00028
       7 -> 27         0.00098
       7 -> 36        -0.00030
       7 -> 46         0.00120
       8 ->  9         0.69561
       8 -> 13         0.12293
       8 -> 17         0.02994
       8 -> 22        -0.00806
       8 -> 28         0.00526
       8 -> 32         0.00344
       8 -> 37        -0.00230
       8 -> 43        -0.00021
       8 -> 52         0.00095
       3 <- 27         0.00212
       3 <- 36         0.00194
       3 <- 46         0.00129
       4 <-  9         0.00026
       4 <- 13         0.00114
       4 <- 22         0.00025
       4 <- 32        -0.00109
       4 <- 37         0.00163
       4 <- 43         0.00044
       4 <- 49         0.00010
       4 <- 52         0.00018
       5 <- 27         0.00396
       5 <- 36        -0.00045
       5 <- 46        -0.00068
       6 <- 12        -0.00093
       6 <- 16         0.00202
       6 <- 18        -0.00314
       6 <- 23         0.00468
       6 <- 24        -0.00159
       6 <- 29         0.00172
       6 <- 33        -0.00092
       6 <- 35         0.00199
       6 <- 40        -0.00017
       6 <- 42         0.00089
       6 <- 47         0.00050
       6 <- 53         0.00075
       7 <- 27         0.00112
       7 <- 36        -0.00035
       7 <- 46         0.00095
       8 <-  9        -0.00907
       8 <- 13        -0.00845
       8 <- 17        -0.00418
       8 <- 22         0.00049
       8 <- 28        -0.00040
       8 <- 32         0.00276
       8 <- 37        -0.00227
       8 <- 52         0.00029
 This state for optimization and/or second-order correction.
 Total Energy, E(TD-HF/TD-DFT) =  -114.041210904
 Copying the excited state density for this state as the 1-particle RhoCI density.

 Excited State   2:      Singlet-B2     5.9485 eV  208.43 nm  f=0.0843  <S**2>=0.000
       3 -> 12         0.00092
       3 -> 16         0.00018
       3 -> 18         0.00105
       3 -> 24         0.00116
       3 -> 29        -0.00018
       3 -> 35        -0.00011
       3 -> 42         0.00014
       3 -> 50        -0.00015
       4 -> 10         0.00131
       4 -> 11        -0.00696
       4 -> 14         0.00544
       4 -> 15         0.00158
       4 -> 19         0.00373
       4 -> 20        -0.00113
       4 -> 21         0.00299
       4 -> 25         0.00116
       4 -> 26        -0.00124
       4 -> 30        -0.00228
       4 -> 31         0.00014
       4 -> 34         0.00029
       4 -> 38        -0.00078
       4 -> 39         0.00015
       4 -> 41         0.00038
       4 -> 44         0.00043
       4 -> 45        -0.00057
       4 -> 48         0.00037
       5 -> 12        -0.00614
       5 -> 16         0.00107
       5 -> 18         0.00152
       5 -> 23        -0.00259
       5 -> 24         0.00407
       5 -> 29        -0.00052
       5 -> 33        -0.00100
       5 -> 35         0.00089
       5 -> 40        -0.00018
       5 -> 42         0.00045
       6 -> 27         0.00098
       6 -> 36         0.00019
       6 -> 46         0.00086
       7 -> 12         0.00230
       7 -> 16         0.00274
       7 -> 18         0.00390
       7 -> 23        -0.00226
       7 -> 24         0.00238
       7 -> 35        -0.00017
       7 -> 42        -0.00038
       7 -> 47         0.00039
       7 -> 50         0.00050
       8 -> 10         0.70624
       8 -> 11        -0.01713
       8 -> 14        -0.01790
       8 -> 15         0.01150
       8 -> 19         0.02008
       8 -> 20         0.00817
       8 -> 21        -0.00762
       8 -> 25         0.00072
       8 -> 26        -0.00060
       8 -> 31         0.00275
       8 -> 34         0.00158
       8 -> 38         0.00082
       8 -> 39        -0.00056
       8 -> 41        -0.00035
       8 -> 44        -0.00041
       8 -> 45        -0.00106
       8 -> 48         0.00032
       8 -> 54        -0.00015
       3 <- 12         0.00030
       3 <- 18         0.00061
       3 <- 23        -0.00011
       3 <- 24         0.00084
       3 <- 29        -0.00017
       3 <- 35        -0.00012
       3 <- 42         0.00011
       4 <- 10         0.00212
       4 <- 14         0.00426
       4 <- 15         0.00169
       4 <- 19         0.00094
       4 <- 20        -0.00034
       4 <- 21         0.00182
       4 <- 25         0.00166
       4 <- 26        -0.00126
       4 <- 30        -0.00083
       4 <- 31        -0.00028
       4 <- 38        -0.00052
       4 <- 39         0.00016
       4 <- 41         0.00040
       4 <- 44         0.00029
       4 <- 45        -0.00051
       4 <- 48         0.00032
       5 <- 16         0.00084
       5 <- 18         0.00252
       5 <- 23        -0.00155
       5 <- 24         0.00309
       5 <- 29        -0.00042
       5 <- 33        -0.00075
       5 <- 35         0.00067
       5 <- 40        -0.00021
       5 <- 42         0.00019
       6 <- 27         0.00076
       6 <- 36         0.00015
       6 <- 46         0.00072
       7 <- 12         0.00064
       7 <- 16         0.00183
       7 <- 18         0.00142
       7 <- 23        -0.00091
       7 <- 24         0.00109
       7 <- 29         0.00067
       7 <- 42        -0.00033
       7 <- 47         0.00036
       7 <- 50         0.00055
       8 <- 10        -0.00428
       8 <- 11        -0.00197
       8 <- 14        -0.01260
       8 <- 15        -0.00187
       8 <- 19        -0.00102
       8 <- 20        -0.00028
       8 <- 21        -0.00414
       8 <- 25        -0.00311
       8 <- 26        -0.00063
       8 <- 30         0.00051
       8 <- 31         0.00140
       8 <- 34         0.00156
       8 <- 38         0.00082
       8 <- 39        -0.00045
       8 <- 41        -0.00021
       8 <- 44        -0.00040
       8 <- 45        -0.00075
       8 <- 48         0.00030

 Excited State   3:      Singlet-B2     6.7381 eV  184.00 nm  f=0.0219  <S**2>=0.000
       3 -> 12        -0.00012
       3 -> 16         0.00067
       3 -> 23         0.00018
       3 -> 24         0.00043
       3 -> 29         0.00099
       3 -> 33         0.00014
       3 -> 35        -0.00030
       3 -> 42        -0.00031
       3 -> 47         0.00020
       3 -> 50         0.00022
       4 -> 10        -0.00526
       4 -> 14         0.00313
       4 -> 15         0.00478
       4 -> 19        -0.00337
       4 -> 20        -0.00085
       4 -> 21         0.00135
       4 -> 25         0.00099
       4 -> 26         0.00124
       4 -> 30        -0.00074
       4 -> 31        -0.00213
       4 -> 34        -0.00050
       4 -> 39        -0.00075
       4 -> 41        -0.00072
       4 -> 44         0.00011
       4 -> 45         0.00061
       4 -> 48        -0.00044
       4 -> 51        -0.00022
       5 -> 12         0.00280
       5 -> 16         0.00415
       5 -> 18         0.00191
       5 -> 23        -0.00144
       5 -> 24         0.00367
       5 -> 29        -0.00118
       5 -> 33         0.00056
       5 -> 35        -0.00016
       5 -> 40        -0.00025
       5 -> 47         0.00014
       5 -> 50         0.00013
       6 -> 27        -0.00084
       6 -> 36        -0.00133
       6 -> 46        -0.00109
       7 -> 12        -0.00295
       7 -> 16         0.00014
       7 -> 18        -0.00242
       7 -> 23         0.00133
       7 -> 24        -0.00032
       7 -> 33        -0.00026
       7 -> 35         0.00123
       7 -> 40        -0.00032
       7 -> 42         0.00067
       7 -> 47        -0.00066
       7 -> 50        -0.00060
       7 -> 53         0.00016
       8 -> 10         0.01755
       8 -> 11         0.70587
       8 -> 14        -0.01711
       8 -> 15        -0.02311
       8 -> 19        -0.01784
       8 -> 20         0.01487
       8 -> 21        -0.00282
       8 -> 25         0.00035
       8 -> 26        -0.00020
       8 -> 30         0.00174
       8 -> 31         0.00038
       8 -> 34         0.00040
       8 -> 38        -0.00014
       8 -> 39        -0.00066
       8 -> 41        -0.00131
       8 -> 44         0.00012
       8 -> 45         0.00070
       8 -> 48        -0.00065
       8 -> 51        -0.00014
       8 -> 54         0.00017
       3 <- 12         0.00024
       3 <- 16         0.00060
       3 <- 18         0.00029
       3 <- 24         0.00048
       3 <- 29         0.00065
       3 <- 33         0.00017
       3 <- 35        -0.00032
       3 <- 42        -0.00027
       3 <- 47         0.00015
       3 <- 50         0.00012
       3 <- 53        -0.00021
       4 <- 10         0.00136
       4 <- 11        -0.00030
       4 <- 14         0.00184
       4 <- 15         0.00056
       4 <- 19         0.00064
       4 <- 20         0.00026
       4 <- 21         0.00102
       4 <- 25         0.00093
       4 <- 26         0.00094
       4 <- 30        -0.00084
       4 <- 31        -0.00077
       4 <- 34        -0.00103
       4 <- 39        -0.00053
       4 <- 41        -0.00073
       4 <- 44         0.00012
       4 <- 45         0.00063
       4 <- 48        -0.00030
       4 <- 51        -0.00021
       5 <- 12         0.00027
       5 <- 16         0.00066
       5 <- 18         0.00116
       5 <- 23        -0.00127
       5 <- 24         0.00176
       5 <- 29        -0.00051
       5 <- 33         0.00056
       5 <- 35         0.00016
       5 <- 40        -0.00024
       5 <- 50         0.00020
       6 <- 27        -0.00038
       6 <- 36        -0.00110
       6 <- 46        -0.00094
       7 <- 12        -0.00036
       7 <- 16        -0.00034
       7 <- 18        -0.00023
       7 <- 23         0.00026
       7 <- 29        -0.00033
       7 <- 35         0.00086
       7 <- 40        -0.00025
       7 <- 42         0.00047
       7 <- 47        -0.00058
       7 <- 50        -0.00056
       8 <- 10        -0.00185
       8 <- 11         0.00127
       8 <- 14        -0.00644
       8 <- 15        -0.00144
       8 <- 19         0.00201
       8 <- 20        -0.00196
       8 <- 21        -0.00265
       8 <- 25        -0.00039
       8 <- 26         0.00088
       8 <- 30         0.00114
       8 <- 31         0.00112
       8 <- 38        -0.00031
       8 <- 39        -0.00042
       8 <- 41        -0.00110
       8 <- 45         0.00060
       8 <- 48        -0.00042
       8 <- 51        -0.00016

 Excited State   4:      Singlet-A1     6.8755 eV  180.33 nm  f=0.0431  <S**2>=0.000
       3 -> 10         0.00133
       3 -> 11        -0.00084
       3 -> 14         0.00013
       3 -> 15         0.00057
       3 -> 19         0.00130
       3 -> 20         0.00038
       3 -> 21        -0.00025
       3 -> 25         0.00023
       3 -> 30        -0.00106
       3 -> 31        -0.00025
       3 -> 34        -0.00021
       3 -> 38        -0.00035
       3 -> 39        -0.00024
       3 -> 41        -0.00014
       3 -> 48        -0.00015
       3 -> 51        -0.00029
       3 -> 54         0.00020
       4 -> 12         0.00755
       4 -> 16         0.00760
       4 -> 18         0.00764
       4 -> 23         0.00062
       4 -> 24         0.00421
       4 -> 29         0.00062
       4 -> 33        -0.00016
       4 -> 35         0.00094
       4 -> 42        -0.00023
       4 -> 50        -0.00036
       4 -> 53        -0.00014
       5 -> 10         0.00559
       5 -> 11         0.01037
       5 -> 14         0.00627
       5 -> 15         0.00185
       5 -> 19         0.00101
       5 -> 20         0.00664
       5 -> 21         0.00217
       5 -> 25         0.00687
       5 -> 26        -0.00085
       5 -> 30         0.00077
       5 -> 31        -0.00067
       5 -> 34        -0.00101
       5 -> 38        -0.00026
       5 -> 39         0.00083
       5 -> 41         0.00015
       5 -> 45        -0.00033
       5 -> 48        -0.00027
       6 ->  9         0.00776
       6 -> 13        -0.00360
       6 -> 17         0.00517
       6 -> 22         0.00417
       6 -> 28         0.00065
       6 -> 32         0.00089
       6 -> 37         0.00053
       6 -> 43         0.00050
       6 -> 49        -0.00037
       7 -> 10         0.01315
       7 -> 11        -0.00517
       7 -> 14         0.00295
       7 -> 15        -0.00113
       7 -> 19         0.00773
       7 -> 20         0.00310
       7 -> 21         0.00107
       7 -> 25         0.00200
       7 -> 26        -0.00011
       7 -> 30        -0.00017
       7 -> 31         0.00062
       7 -> 34        -0.00094
       7 -> 39         0.00023
       7 -> 48        -0.00020
       7 -> 51         0.00045
       8 -> 12         0.70548
       8 -> 16         0.04172
       8 -> 18         0.00129
       8 -> 23         0.00370
       8 -> 24         0.00150
       8 -> 29         0.00320
       8 -> 33         0.00154
       8 -> 35        -0.00252
       8 -> 40         0.00010
       8 -> 42         0.00139
       8 -> 47        -0.00044
       8 -> 50        -0.00011
       8 -> 53        -0.00012
       3 <- 10         0.00057
       3 <- 11        -0.00031
       3 <- 14         0.00010
       3 <- 15         0.00027
       3 <- 19         0.00071
       3 <- 20         0.00015
       3 <- 25         0.00029
       3 <- 30        -0.00063
       3 <- 31        -0.00020
       3 <- 34        -0.00016
       3 <- 38        -0.00026
       3 <- 39        -0.00021
       3 <- 41        -0.00014
       3 <- 48        -0.00017
       3 <- 51        -0.00025
       3 <- 54         0.00018
       4 <- 12         0.00265
       4 <- 16         0.00213
       4 <- 18         0.00365
       4 <- 23         0.00071
       4 <- 24         0.00228
       4 <- 29         0.00020
       4 <- 33        -0.00029
       4 <- 35         0.00082
       4 <- 42        -0.00020
       4 <- 50        -0.00029
       4 <- 53        -0.00012
       5 <- 10         0.00575
       5 <- 11         0.00366
       5 <- 14         0.00468
       5 <- 15         0.00184
       5 <- 19         0.00076
       5 <- 20         0.00375
       5 <- 21         0.00070
       5 <- 25         0.00416
       5 <- 26        -0.00037
       5 <- 30         0.00012
       5 <- 31        -0.00091
       5 <- 34        -0.00089
       5 <- 38        -0.00035
       5 <- 39         0.00070
       5 <- 44         0.00013
       5 <- 45        -0.00030
       5 <- 48        -0.00022
       6 <-  9         0.00268
       6 <- 13        -0.00143
       6 <- 17         0.00234
       6 <- 22         0.00247
       6 <- 28         0.00039
       6 <- 32         0.00067
       6 <- 37         0.00044
       6 <- 43         0.00043
       6 <- 49        -0.00032
       7 <- 10         0.00449
       7 <- 11        -0.00120
       7 <- 14         0.00142
       7 <- 15        -0.00039
       7 <- 19         0.00329
       7 <- 20         0.00179
       7 <- 21         0.00036
       7 <- 25         0.00120
       7 <- 26        -0.00021
       7 <- 30        -0.00027
       7 <- 31         0.00036
       7 <- 34        -0.00066
       7 <- 38        -0.00012
       7 <- 39         0.00030
       7 <- 41         0.00010
       7 <- 45        -0.00010
       7 <- 51         0.00042
       8 <- 12        -0.00354
       8 <- 16         0.00606
       8 <- 18        -0.01017
       8 <- 23        -0.00068
       8 <- 24        -0.00211
       8 <- 29         0.00157
       8 <- 33         0.00115
       8 <- 35        -0.00176
       8 <- 42         0.00113
       8 <- 47        -0.00051
       8 <- 53        -0.00014

 Excited State   5:      Singlet-A2     7.6159 eV  162.80 nm  f=0.0000  <S**2>=0.000
       3 -> 27         0.00167
       3 -> 36         0.00138
       3 -> 46         0.00069
       4 ->  9         0.00863
       4 -> 13         0.00747
       4 -> 17        -0.00254
       4 -> 22        -0.00115
       4 -> 28         0.00027
       4 -> 32         0.00222
       4 -> 37         0.00242
       4 -> 43         0.00032
       4 -> 49        -0.00010
       4 -> 52         0.00039
       5 -> 27         0.00085
       5 -> 36        -0.00074
       5 -> 46        -0.00024
       6 -> 12         0.00023
       6 -> 16        -0.00204
       6 -> 18        -0.00051
       6 -> 23         0.00127
       6 -> 24         0.00021
       6 -> 29        -0.00036
       6 -> 35         0.00036
       6 -> 42         0.00035
       6 -> 47         0.00034
       6 -> 53         0.00017
       7 -> 27         0.00019
       7 -> 36        -0.00023
       7 -> 46         0.00073
       8 ->  9        -0.12352
       8 -> 13         0.69577
       8 -> 17         0.00433
       8 -> 22        -0.02300
       8 -> 28         0.00180
       8 -> 32         0.00156
       8 -> 37        -0.00100
       8 -> 43        -0.00016
       8 -> 49        -0.00016
       8 -> 52         0.00044
       3 <- 27         0.00099
       3 <- 36         0.00112
       3 <- 46         0.00079
       4 <-  9         0.00031
       4 <- 13         0.00023
       4 <- 17        -0.00053
       4 <- 22         0.00011
       4 <- 32        -0.00026
       4 <- 37         0.00077
       4 <- 43         0.00022
       4 <- 52         0.00012
       5 <- 27         0.00141
       5 <- 46        -0.00028
       6 <- 12         0.00046
       6 <- 16        -0.00047
       6 <- 18        -0.00074
       6 <- 23         0.00250
       6 <- 24        -0.00042
       6 <- 33        -0.00071
       6 <- 35         0.00130
       6 <- 42         0.00071
       6 <- 47         0.00015
       6 <- 53         0.00037
       7 <- 27         0.00044
       7 <- 36        -0.00027
       7 <- 46         0.00037
       8 <-  9        -0.00665
       8 <- 13        -0.00099
       8 <- 17        -0.00087
       8 <- 22         0.00054
       8 <- 28        -0.00024
       8 <- 32         0.00105
       8 <- 37        -0.00096
       8 <- 52         0.00017

 Excited State   6:      Singlet-B2     9.9470 eV  124.64 nm  f=0.2738  <S**2>=0.000
       3 -> 12        -0.00041

 The electronic state is 1-A1.
 Alpha  occ. eigenvalues --  -19.13813 -10.23669  -1.26469  -0.60541  -0.59721
 Alpha  occ. eigenvalues --   -0.55551  -0.51831  -0.24341
 Alpha virt. eigenvalues --    0.01367   0.01396   0.04385   0.04418   0.08841
 Alpha virt. eigenvalues --    0.14176   0.17773   0.20410   0.21887   0.23144
 Alpha virt. eigenvalues --    0.26187   0.36322   0.50076   0.52569   0.53371

 Mulliken charges:
               1
     1  C    0.204092
     2  H    0.005525
     3  H    0.005525
     4  O   -0.215141
 Sum of Mulliken charges =  -0.00000

 Dipole moment (field-independent basis, Debye):
    X=              0.0000    Y=             -0.0000    Z=             -0.6082  Tot=              0.6082
 Quadrupole moment (field-independent basis, Debye-Ang):
   XX=            -10.8168   YY=            -12.3108   ZZ=            -13.1913
   XY=             -0.0000   XZ=             -0.0000   YZ=              0.0000

 Normal termination of Gaussian 16 at Fri Sep 17 10:52:31 2021.
