 Gaussian 16, Revision C.01,
 Gaussian 16:  ES64L-G16RevC.01  3-Jul-2019

 ----------------------------------------
 #P wB97XD/6-311+G* NoSymm #P Field=Y-204
 ----------------------------------------

 -------
 TitleMe
 -------
 Symbolic Z-matrix:
 Charge =  1 Multiplicity = 1

                          Input orientation:
 ---------------------------------------------------------------------
 Center     Atomic      Atomic             Coordinates (Angstroms)
 Number     Number       Type             X           Y           Z
 ---------------------------------------------------------------------
      1          6           0        0.519300    1.233000   -0.031900
      2          6           0        1.944500    1.269200   -0.036700
      3          6           0        2.620400    0.092800   -0.025000
      4          6           0       -0.196000    0.030100    0.001000
      5          1           0       -0.020700    2.174200   -0.043400
      6          1           0        2.482800    2.208900   -0.036100
      7          1           0       -1.277700    0.039900    0.011700
      8          7           0        4.092100    0.095900    0.036600
      9          8           0        4.639300   -1.021700    0.144600
     10          8           0        4.664900    1.198400   -0.023300
     11          6           0        0.494300   -1.167100    0.021000
     12          1           0       -0.032500   -2.114900    0.054500
     13          6           0        1.962900   -1.216500   -0.021100
     14          1           0        2.443600   -1.963100    0.615100
     15         35           0        2.173000   -1.949100   -1.906200
 ---------------------------------------------------------------------

 SCF Done:  E(RwB97XD) =  -3010.54870275     A.U. after   23 cycles

 Alpha  occ. eigenvalues -- -483.34466 -62.89520 -56.69168 -56.68660 -56.68656
 Alpha  occ. eigenvalues --  -19.46751 -19.46348 -14.85893 -10.60985 -10.59743
 Alpha  occ. eigenvalues --  -10.58837 -10.57348 -10.53854 -10.53119  -9.05350
 Alpha  occ. eigenvalues --   -6.87903  -6.86227  -6.86209  -2.97837  -2.97390
 Alpha  occ. eigenvalues --   -2.97376  -2.96033  -2.96033  -1.50185  -1.33142
 Alpha  occ. eigenvalues --   -1.23802  -1.14412  -1.13434  -1.06920  -1.01423
 Alpha  occ. eigenvalues --   -0.96498  -0.91442  -0.85890  -0.81579  -0.81193
 Alpha  occ. eigenvalues --   -0.80507  -0.79025  -0.76700  -0.76318  -0.73522
 Alpha  occ. eigenvalues --   -0.69344  -0.67855  -0.64492  -0.62061  -0.60164
 Alpha  occ. eigenvalues --   -0.58115  -0.57571  -0.56182  -0.55813
 Alpha virt. eigenvalues --   -0.31500  -0.20871  -0.18467  -0.18064  -0.14104
 Alpha virt. eigenvalues --   -0.13458  -0.12527  -0.09068  -0.08202  -0.07191
 Alpha virt. eigenvalues --   -0.05882  -0.04778  -0.04182  -0.03798  -0.01525

 Mulliken charges:
               1
     1  C   -0.121070
     2  C    0.225411
     3  C   -0.039684
     4  C   -0.286578
     5  H    0.424932
     6  H    0.422452
     7  H    0.337531
     8  N   -0.233956
     9  O   -0.020795
    10  O    0.187697
    11  C   -0.199633
    12  H    0.278853
    13  C   -0.369643
    14  H    0.360761
    15  Br   0.033722
 Sum of Mulliken charges =   1.00000

 Dipole moment (field-independent basis, Debye):
    X=              2.4744    Y=              5.1069    Z=              0.0462  Tot=              5.6750
 Quadrupole moment (field-independent basis, Debye-Ang):
   XX=            -68.1749   YY=            -54.8923   ZZ=            -64.4529
   XY=              9.5396   XZ=             -0.8289   YZ=             -0.7368

 Normal termination of Gaussian 16 at Thu May  2 14:22:36 2024.
