 Gaussian 16, Revision A.03,
 Gaussian 16:  ES64L-G16RevA.03 25-Dec-2016

 --------------------------------------------------------------------
 #p B3LYP/6-311+G** #p TD=(singlets,nstates=30)IOp(6/8=3) IOp(9/40=4)
 --------------------------------------------------------------------

 -----------------------------
 Scan Step 40, Bond Length 0.7
 -----------------------------
 Symbolic Z-matrix:
 Charge =  0 Multiplicity = 1

                         Standard orientation:
 ---------------------------------------------------------------------
 Center     Atomic      Atomic             Coordinates (Angstroms)
 Number     Number       Type             X           Y           Z
 ---------------------------------------------------------------------
      1          6           0        0.000000    0.000000   -0.276081
      2          1           0        0.000000    0.937260   -0.867431
      3          1           0       -0.000000   -0.937260   -0.867431
      4          8           0        0.000000   -0.000000    0.423919
 ---------------------------------------------------------------------

 SCF Done:  E(RB3LYP) =  -113.053852398     A.U. after   10 cycles

 Excitation energies and oscillator strengths:

 Excited State   1:      Singlet-B2     4.9563 eV  250.15 nm  f=0.1192  <S**2>=0.000
       3 -> 11         0.00075
       3 -> 16         0.00056
       3 -> 19         0.00077
       3 -> 22         0.00038
       3 -> 24        -0.00099
       3 -> 29        -0.00021
       3 -> 32        -0.00016
       3 -> 40        -0.00019
       3 -> 43         0.00020
       3 -> 50        -0.00012
       3 -> 53         0.00015
       4 ->  9        -0.00290
       4 -> 12         0.00336
       4 -> 14         0.00369
       4 -> 15         0.00155
       4 -> 18         0.00299
       4 -> 20         0.00198
       4 -> 21         0.00179
       4 -> 25         0.00150
       4 -> 26        -0.00078
       4 -> 30         0.00027
       4 -> 31         0.00166
       4 -> 33         0.00033
       4 -> 38        -0.00070
       4 -> 42        -0.00050
       4 -> 44        -0.00032
       4 -> 46        -0.00077
       4 -> 49         0.00019
       5 -> 28         0.00172
       5 -> 35         0.00075
       5 -> 45         0.00082
       6 -> 11        -0.00571
       6 -> 16         0.00321
       6 -> 19         0.00064
       6 -> 22        -0.00113
       6 -> 24        -0.00470
       6 -> 29        -0.00076
       6 -> 32        -0.00084
       6 -> 36         0.00034
       6 -> 43         0.00020
       6 -> 47         0.00029
       7 -> 11         0.00732
       7 -> 16         0.00363
       7 -> 19         0.00284
       7 -> 22        -0.00015
       7 -> 24        -0.00084
       7 -> 29         0.00096
       7 -> 32         0.00075
       7 -> 36        -0.00069
       7 -> 43        -0.00043
       7 -> 47         0.00043
       7 -> 50         0.00044
       7 -> 53        -0.00011
       8 ->  9         0.70548
       8 -> 12        -0.00020
       8 -> 14         0.04470
       8 -> 15        -0.00731
       8 -> 18        -0.02186
       8 -> 20         0.00560
       8 -> 21         0.00999
       8 -> 25        -0.00022
       8 -> 26        -0.00023
       8 -> 30        -0.00276
       8 -> 31        -0.00234
       8 -> 33        -0.00110
       8 -> 38        -0.00112
       8 -> 39         0.00017
       8 -> 42        -0.00073
       8 -> 44         0.00029
       8 -> 46         0.00081
       8 -> 49        -0.00029
       8 -> 51         0.00012
       3 <- 11         0.00031
       3 <- 16         0.00023
       3 <- 19         0.00051
       3 <- 22         0.00029
       3 <- 24        -0.00075
       3 <- 29        -0.00018
       3 <- 32        -0.00017
       3 <- 40        -0.00019
       3 <- 43         0.00019
       3 <- 53         0.00015
       4 <-  9        -0.00137
       4 <- 12        -0.00023
       4 <- 14         0.00303
       4 <- 15         0.00184
       4 <- 18         0.00064
       4 <- 20         0.00110
       4 <- 21         0.00135
       4 <- 25         0.00129
       4 <- 26        -0.00131
       4 <- 30         0.00030
       4 <- 31         0.00068
       4 <- 33         0.00025
       4 <- 38        -0.00044
       4 <- 39         0.00016
       4 <- 42        -0.00042
       4 <- 44        -0.00025
       4 <- 46        -0.00069
       4 <- 49         0.00013
       5 <- 28         0.00142
       5 <- 35         0.00060
       5 <- 45         0.00069
       6 <- 11        -0.00084
       6 <- 16         0.00290
       6 <- 19         0.00105
       6 <- 22        -0.00032
       6 <- 24        -0.00346
       6 <- 29        -0.00034
       6 <- 32        -0.00071
       6 <- 36         0.00036
       6 <- 43         0.00012
       6 <- 47         0.00026
       6 <- 50         0.00015
       7 <- 11         0.00149
       7 <- 16         0.00167
       7 <- 19         0.00022
       7 <- 29         0.00147
       7 <- 32         0.00058
       7 <- 36        -0.00041
       7 <- 43        -0.00030
       7 <- 47         0.00045
       7 <- 50         0.00050
       8 <-  9        -0.00774
       8 <- 12        -0.00495
       8 <- 14         0.01914
       8 <- 15         0.00569
       8 <- 18         0.00146
       8 <- 20         0.00040
       8 <- 21         0.00507
       8 <- 25         0.00312
       8 <- 26         0.00017
       8 <- 30        -0.00181
       8 <- 31        -0.00149
       8 <- 33        -0.00142
       8 <- 38        -0.00107
       8 <- 39         0.00013
       8 <- 42        -0.00060
       8 <- 46         0.00069
       8 <- 49        -0.00021
 This state for optimization and/or second-order correction.
 Total Energy, E(TD-HF/TD-DFT) =  -112.871710208
 Copying the excited state density for this state as the 1-particle RhoCI density.

 Excited State   2:      Singlet-A2     5.2527 eV  236.04 nm  f=0.0000  <S**2>=0.000
       3 -> 28        -0.00191
       3 -> 35        -0.00123
       3 -> 45        -0.00047
       4 -> 10        -0.00105
       4 -> 13         0.00158
       4 -> 17        -0.00400
       4 -> 23         0.00192
       4 -> 27        -0.00228
       4 -> 37        -0.00166
       4 -> 41        -0.00019
       4 -> 48        -0.00013
       4 -> 52        -0.00031
       5 -> 11         0.00031
       5 -> 16        -0.00011
       5 -> 19         0.00036
       5 -> 22        -0.00100
       5 -> 24        -0.00020
       5 -> 29        -0.00017
       5 -> 32        -0.00013
       5 -> 36        -0.00034
       5 -> 43        -0.00039
       5 -> 47        -0.00039
       5 -> 50         0.00019
       5 -> 53        -0.00011
       6 -> 28        -0.00344
       6 -> 35         0.00049
       7 -> 28         0.00110
       7 -> 35        -0.00027
       7 -> 45        -0.00051
       8 -> 10         0.70567
       8 -> 13        -0.03542
       8 -> 17         0.02853
       8 -> 23         0.00244
       8 -> 27         0.00196
       8 -> 34         0.00318
       8 -> 37        -0.00202
       8 -> 41         0.00019
       8 -> 48         0.00013
       8 -> 52         0.00041
       3 <- 28        -0.00155
       3 <- 35        -0.00107
       3 <- 45        -0.00045
       4 <- 10        -0.00017
       4 <- 13         0.00079
       4 <- 17        -0.00071
       4 <- 23         0.00010
       4 <- 27        -0.00033
       4 <- 34         0.00079
       4 <- 37        -0.00089
       4 <- 41        -0.00026
       5 <- 11         0.00065
       5 <- 16        -0.00062
       5 <- 19         0.00167
       5 <- 22        -0.00157
       5 <- 24        -0.00129
       5 <- 29        -0.00135
       5 <- 32         0.00027
       5 <- 36        -0.00083
       5 <- 43        -0.00046
       5 <- 47        -0.00038
       5 <- 53        -0.00029
       6 <- 28        -0.00338
       6 <- 35         0.00063
       7 <- 28         0.00119
       7 <- 35        -0.00032
       7 <- 45        -0.00050
       8 <- 10         0.00075
       8 <- 13         0.00590
       8 <- 17        -0.00582
       8 <- 23         0.00020
       8 <- 27        -0.00047
       8 <- 34         0.00305
       8 <- 37        -0.00162
       8 <- 41         0.00016
       8 <- 52         0.00014

 Excited State   3:      Singlet-B2     5.8641 eV  211.43 nm  f=0.0324  <S**2>=0.000
       3 -> 11        -0.00013
       3 -> 16         0.00048
       3 -> 19        -0.00026
       3 -> 22         0.00028
       3 -> 24        -0.00037
       3 -> 29         0.00046
       3 -> 32         0.00013
       3 -> 36        -0.00022
       3 -> 43        -0.00023
       3 -> 47         0.00016
       3 -> 50         0.00012
       3 -> 53        -0.00016
       4 ->  9         0.00212
       4 -> 12         0.00034
       4 -> 14         0.00140
       4 -> 15         0.00272
       4 -> 18        -0.00157
       4 -> 20        -0.00042
       4 -> 21         0.00129
       4 -> 25         0.00084
       4 -> 26         0.00069
       4 -> 30        -0.00212
       4 -> 31        -0.00085
       4 -> 33        -0.00011
       4 -> 38         0.00020
       4 -> 39        -0.00096
       4 -> 42         0.00034
       4 -> 46         0.00055
       4 -> 49        -0.00013
       5 -> 28        -0.00099
       5 -> 35        -0.00125
       5 -> 45        -0.00073
       6 -> 11        -0.00012
       6 -> 16         0.00414
       6 -> 19        -0.00140
       6 -> 22        -0.00014
       6 -> 24        -0.00247
       6 -> 29        -0.00180
       6 -> 32         0.00043
       6 -> 36         0.00055
       6 -> 40         0.00041
       6 -> 43         0.00029
       6 -> 47        -0.00024
       6 -> 50        -0.00021
       6 -> 53         0.00011
       7 -> 11        -0.00247
       7 -> 16        -0.00374
       7 -> 19        -0.00155
       7 -> 22         0.00088
       7 -> 24         0.00287
       7 -> 29         0.00072
       7 -> 32        -0.00041
       7 -> 36         0.00067
       7 -> 40         0.00012
       7 -> 43         0.00024
       7 -> 47        -0.00060
       7 -> 50        -0.00035
       7 -> 53         0.00015
       8 ->  9        -0.00086
       8 -> 12         0.70579
       8 -> 14         0.02925
       8 -> 15         0.02697
       8 -> 18         0.00950
       8 -> 20         0.01581
       8 -> 21         0.00515
       8 -> 25        -0.00085
       8 -> 26         0.00162
       8 -> 30        -0.00245
       8 -> 31         0.00027
       8 -> 33        -0.00028
       8 -> 38        -0.00026
       8 -> 39         0.00139
       8 -> 42        -0.00087
       8 -> 46        -0.00050
       8 -> 49         0.00015
       8 -> 54        -0.00015
       3 <- 16         0.00048
       3 <- 22         0.00013
       3 <- 24        -0.00042
       3 <- 29         0.00029
       3 <- 32         0.00013
       3 <- 36        -0.00024
       3 <- 43        -0.00020
       3 <- 47         0.00012
       3 <- 53        -0.00022
       4 <-  9        -0.00124
       4 <- 12        -0.00012
       4 <- 14         0.00137
       4 <- 15         0.00070
       4 <- 18         0.00062
       4 <- 20        -0.00043
       4 <- 21         0.00088
       4 <- 25         0.00097
       4 <- 26         0.00071
       4 <- 30        -0.00142
       4 <- 31        -0.00019
       4 <- 33        -0.00062
       4 <- 38         0.00014
       4 <- 39        -0.00072
       4 <- 42         0.00035
       4 <- 46         0.00052
       5 <- 28        -0.00057
       5 <- 35        -0.00107
       5 <- 45        -0.00064
       6 <- 11        -0.00033
       6 <- 16         0.00090
       6 <- 19         0.00049
       6 <- 22        -0.00069
       6 <- 24        -0.00182
       6 <- 29        -0.00126
       6 <- 32         0.00059
       6 <- 36         0.00057
       6 <- 40         0.00037
       6 <- 43         0.00019
       6 <- 47        -0.00021
       6 <- 50        -0.00013
       7 <- 11        -0.00016
       7 <- 16        -0.00127
       7 <- 19        -0.00055
       7 <- 22         0.00049
       7 <- 24         0.00151
       7 <- 32        -0.00030
       7 <- 36         0.00030
       7 <- 43         0.00016
       7 <- 47        -0.00053
       7 <- 50        -0.00042
       8 <-  9        -0.00456
       8 <- 12         0.00121
       8 <- 14         0.01045
       8 <- 15         0.00391
       8 <- 18        -0.00119
       8 <- 20        -0.00291
       8 <- 21         0.00330
       8 <- 25         0.00065
       8 <- 26        -0.00016
       8 <- 30        -0.00216
       8 <- 31         0.00018
       8 <- 39         0.00118
       8 <- 42        -0.00076
       8 <- 46        -0.00041

 Excited State   4:      Singlet-A1     6.0229 eV  205.85 nm  f=0.0129  <S**2>=0.000
       3 ->  9         0.00123
       3 -> 12        -0.00053
       3 -> 14         0.00018
       3 -> 15        -0.00067
       3 -> 18        -0.00144
       3 -> 21         0.00071
       3 -> 25        -0.00054
       3 -> 26        -0.00026
       3 -> 30         0.00079
       3 -> 31        -0.00064
       3 -> 33         0.00036
       3 -> 38         0.00033
       3 -> 39         0.00032
       3 -> 46        -0.00012
       3 -> 51         0.00020
       3 -> 54        -0.00015
       4 -> 11        -0.00632
       4 -> 16        -0.00680
       4 -> 19        -0.00465
       4 -> 22        -0.00222
       4 -> 24         0.00331
       4 -> 29        -0.00044
       4 -> 36        -0.00104
       4 -> 40        -0.00010
       4 -> 43         0.00027
       4 -> 50         0.00023
       5 -> 10        -0.00395
       5 -> 13        -0.00320
       5 -> 17        -0.00346
       5 -> 23        -0.00338
       5 -> 27        -0.00099
       5 -> 34        -0.00091
       5 -> 37        -0.00058
       5 -> 41        -0.00017
       5 -> 48         0.00026
       6 ->  9         0.01076
       6 -> 12         0.00740
       6 -> 14        -0.00470
       6 -> 15        -0.00417
       6 -> 18        -0.00637
       6 -> 20         0.00547
       6 -> 21         0.00070
       6 -> 25        -0.00610
       6 -> 26         0.00098
       6 -> 30        -0.00036
       6 -> 31         0.00138
       6 -> 33         0.00187
       6 -> 38         0.00110
       6 -> 39        -0.00120
       6 -> 42         0.00011
       6 -> 44         0.00055
       6 -> 49         0.00046
       7 ->  9         0.00804
       7 -> 12        -0.01128
       7 -> 14         0.00117
       7 -> 15         0.00403
       7 -> 18        -0.00744
       7 -> 20        -0.00306
       7 -> 21        -0.00016
       7 -> 25         0.00144
       7 -> 26        -0.00236
       7 -> 30        -0.00038
       7 -> 31        -0.00169
       7 -> 33         0.00029
       7 -> 38        -0.00041
       7 -> 39         0.00043
       7 -> 44        -0.00027
       7 -> 51        -0.00018
       8 -> 11         0.70486
       8 -> 16         0.05093
       8 -> 19        -0.01770
       8 -> 22        -0.00021
       8 -> 24        -0.00543
       8 -> 29         0.00407
       8 -> 32         0.00186
       8 -> 36        -0.00313
       8 -> 40        -0.00032
       8 -> 43         0.00180
       8 -> 47        -0.00081
       8 -> 50         0.00016
       3 <-  9         0.00064
       3 <- 12        -0.00026
       3 <- 14         0.00013
       3 <- 15        -0.00041
       3 <- 18        -0.00091
       3 <- 21         0.00045
       3 <- 25        -0.00044
       3 <- 26        -0.00021
       3 <- 30         0.00057
       3 <- 31        -0.00041
       3 <- 33         0.00032
       3 <- 38         0.00024
       3 <- 39         0.00027
       3 <- 46        -0.00016
       3 <- 51         0.00016
       3 <- 54        -0.00013
       4 <- 11        -0.00249
       4 <- 16        -0.00270
       4 <- 19        -0.00261
       4 <- 22        -0.00163
       4 <- 24         0.00178
       4 <- 29        -0.00021
       4 <- 32         0.00017
       4 <- 36        -0.00087
       4 <- 43         0.00025
       4 <- 50         0.00020
       5 <- 10        -0.00207
       5 <- 13        -0.00175
       5 <- 17        -0.00202
       5 <- 23        -0.00230
       5 <- 27        -0.00071
       5 <- 34        -0.00074
       5 <- 37        -0.00049
       5 <- 41        -0.00014
       5 <- 48         0.00023
       6 <-  9         0.00800
       6 <- 12         0.00355
       6 <- 14        -0.00367
       6 <- 15        -0.00344
       6 <- 18        -0.00349
       6 <- 20         0.00310
       6 <- 21         0.00130
       6 <- 25        -0.00404
       6 <- 26         0.00058
       6 <- 30         0.00014
       6 <- 31         0.00105
       6 <- 33         0.00134
       6 <- 38         0.00112
       6 <- 39        -0.00095
       6 <- 44         0.00055
       6 <- 49         0.00038
       7 <-  9         0.00089
       7 <- 12        -0.00443
       7 <- 14         0.00149
       7 <- 15         0.00281
       7 <- 18        -0.00347
       7 <- 20        -0.00145
       7 <- 21        -0.00039
       7 <- 25         0.00098
       7 <- 26        -0.00148
       7 <- 30        -0.00046
       7 <- 31        -0.00131
       7 <- 33         0.00019
       7 <- 38        -0.00038
       7 <- 39         0.00023
       7 <- 44        -0.00028
       7 <- 46         0.00010
       7 <- 51        -0.00017
       8 <- 11        -0.00828
       8 <- 16         0.00497
       8 <- 19        -0.01487
       8 <- 22        -0.00370
       8 <- 24        -0.00159
       8 <- 29         0.00277
       8 <- 32         0.00165
       8 <- 36        -0.00246
       8 <- 40        -0.00010
       8 <- 43         0.00144
       8 <- 47        -0.00080
       8 <- 50         0.00015

 Excited State   5:      Singlet-A2     8.0163 eV  154.67 nm  f=0.0000  <S**2>=0.000
       3 -> 28         0.00267
       3 -> 35         0.00183
       3 -> 45         0.00066
       4 -> 10         0.00130
       4 -> 13        -0.00841
       4 -> 17         0.00133
       4 -> 23        -0.00349
       4 -> 27         0.00076
       4 -> 34         0.00127
       4 -> 37         0.00286
       4 -> 52         0.00040
       5 -> 16        -0.00077
       5 -> 19        -0.00045
       5 -> 22         0.00157
       5 -> 24         0.00059
       5 -> 29        -0.00011
       5 -> 32         0.00011
       5 -> 36         0.00049
       5 -> 43         0.00064
       5 -> 47         0.00051
       5 -> 50        -0.00013
       5 -> 53         0.00016
       6 -> 28         0.00292
       6 -> 35        -0.00073
       6 -> 45         0.00012
       7 -> 28        -0.00093
       7 -> 35         0.00039
       7 -> 45         0.00066
       8 -> 10         0.03730
       8 -> 13         0.70396
       8 -> 17        -0.05049
       8 -> 23         0.02144
       8 -> 27        -0.00291
       8 -> 34        -0.00277
       8 -> 37         0.00280
       8 -> 52        -0.00046
       3 <- 28         0.00182
       3 <- 35         0.00150
       3 <- 45         0.00073
       4 <- 10         0.00033
       4 <- 13        -0.00081
       4 <- 17         0.00035
       4 <- 23        -0.00015
       4 <- 27         0.00020
       4 <- 34        -0.00065
       4 <- 37         0.00108
       4 <- 41         0.00033
       4 <- 52         0.00013
       5 <- 11         0.00032
       5 <- 16        -0.00028
       5 <- 19        -0.00072
       5 <- 22         0.00215
       5 <- 24         0.00164
       5 <- 29         0.00043
       5 <- 32        -0.00066
       5 <- 36         0.00133
       5 <- 43         0.00079
       5 <- 47         0.00022
       5 <- 53         0.00036
       6 <- 28         0.00317
       6 <- 35        -0.00051
       6 <- 45        -0.00012
       7 <- 28        -0.00099
       7 <- 45         0.00042
       8 <- 10         0.00599
       8 <- 13        -0.00394
       8 <- 17         0.00371
       8 <- 23        -0.00076
       8 <- 27         0.00047
       8 <- 34        -0.00300
       8 <- 37         0.00172

 The electronic state is 1-A1.
 Alpha  occ. eigenvalues --  -19.17923 -10.29401  -1.32586  -0.75989  -0.72737
 Alpha  occ. eigenvalues --   -0.57854  -0.54824  -0.20868
 Alpha virt. eigenvalues --    0.00939   0.02811   0.04434   0.04637   0.14035
 Alpha virt. eigenvalues --    0.14416   0.17722   0.18808   0.21677   0.23794
 Alpha virt. eigenvalues --    0.26542   0.36562   0.50685   0.57121   0.57265

 Mulliken charges:
               1
     1  C    0.331255
     2  H   -0.086465
     3  H   -0.086465
     4  O   -0.158326
 Sum of Mulliken charges =   0.00000

 Dipole moment (field-independent basis, Debye):
    X=              0.0000    Y=              0.0000    Z=              0.9440  Tot=              0.9440
 Quadrupole moment (field-independent basis, Debye-Ang):
   XX=            -10.2846   YY=            -13.4423   ZZ=            -13.5978
   XY=             -0.0000   XZ=             -0.0000   YZ=             -0.0000

 Normal termination of Gaussian 16 at Fri Sep 17 10:52:23 2021.
