 Gaussian 16, Revision C.01,
 Gaussian 16:  ES64L-G16RevC.01  3-Jul-2019

 ----------------------------------------
 #P wB97XD/6-311+G* NoSymm #P Field=Z+243
 ----------------------------------------

 -------
 TitleMe
 -------
 Symbolic Z-matrix:
 Charge =  1 Multiplicity = 1

                          Input orientation:
 ---------------------------------------------------------------------
 Center     Atomic      Atomic             Coordinates (Angstroms)
 Number     Number       Type             X           Y           Z
 ---------------------------------------------------------------------
      1          6           0        0.029500    1.339700    0.068200
      2          6           0        1.434800    1.286700    0.006400
      3          6           0        2.111800    0.051100   -0.005400
      4          6           0        1.445100   -1.137200    0.031200
      5          6           0       -0.687900    0.168200    0.110000
      6          1           0       -0.471300    2.298400    0.078100
      7          1           0        2.027300    2.196500   -0.032200
      8          1           0        1.989700   -2.076400    0.023200
      9          1           0       -1.771600    0.180400    0.158200
     10          7           0        3.586400    0.051000   -0.067500
     11          8           0        4.147100   -1.059700   -0.088100
     12          8           0        4.145000    1.163900   -0.090100
     13          6           0       -0.023600   -1.145800    0.083500
     14          1           0       -0.436700   -1.872500    0.788900
     15         35           0       -0.535900   -1.869700   -1.740800
 ---------------------------------------------------------------------

 SCF Done:  E(RwB97XD) =  -3010.55581434     A.U. after   19 cycles

 Alpha  occ. eigenvalues -- -483.27746 -62.82704 -56.62464 -56.61799 -56.61799
 Alpha  occ. eigenvalues --  -19.44829 -19.44776 -14.84319 -10.56482 -10.56062
 Alpha  occ. eigenvalues --  -10.55961 -10.55716 -10.55561 -10.51884  -8.98462
 Alpha  occ. eigenvalues --   -6.81314  -6.79160  -6.79153  -2.91176  -2.90606
 Alpha  occ. eigenvalues --   -2.90598  -2.88878  -2.88877  -1.48582  -1.31564
 Alpha  occ. eigenvalues --   -1.21252  -1.12389  -1.10376  -1.01372  -0.99872
 Alpha  occ. eigenvalues --   -0.93972  -0.89715  -0.84198  -0.79707  -0.79397
 Alpha  occ. eigenvalues --   -0.78858  -0.77249  -0.74996  -0.74735  -0.70447
 Alpha  occ. eigenvalues --   -0.68060  -0.66344  -0.61540  -0.58364  -0.55992
 Alpha  occ. eigenvalues --   -0.55103  -0.54553  -0.52052  -0.51470
 Alpha virt. eigenvalues --   -0.27931  -0.20325  -0.15279  -0.13636  -0.11348
 Alpha virt. eigenvalues --   -0.10445  -0.10128  -0.06773  -0.06148  -0.05332
 Alpha virt. eigenvalues --   -0.03049  -0.01589  -0.00612   0.00342   0.00631

 Mulliken charges:
               1
     1  C   -0.538634
     2  C    0.420380
     3  C   -0.685412
     4  C    0.250364
     5  C   -0.080602
     6  H    0.330796
     7  H    0.368674
     8  H    0.370658
     9  H    0.345542
    10  N   -0.115304
    11  O    0.035180
    12  O    0.032965
    13  C   -0.451730
    14  H    0.317915
    15  Br   0.399208
 Sum of Mulliken charges =   1.00000

 Dipole moment (field-independent basis, Debye):
    X=             -1.4292    Y=             -1.5444    Z=             -4.2923  Tot=              4.7803
 Quadrupole moment (field-independent basis, Debye-Ang):
   XX=            -72.1338   YY=            -50.7614   ZZ=            -58.5730
   XY=              2.0104   XZ=             -0.8649   YZ=              5.2610

 Normal termination of Gaussian 16 at Wed May  1 15:30:43 2024.
