 Gaussian 16, Revision A.03,
 Gaussian 16:  ES64L-G16RevA.03 25-Dec-2016

 --------------------------------------------------------------------
 #p B3LYP/6-311+G** #p TD=(singlets,nstates=30)IOp(6/8=3) IOp(9/40=4)
 --------------------------------------------------------------------

 -------------------------------
 Scan Step 204, Bond Length 1.52
 -------------------------------
 Symbolic Z-matrix:
 Charge =  0 Multiplicity = 1

                         Standard orientation:
 ---------------------------------------------------------------------
 Center     Atomic      Atomic             Coordinates (Angstroms)
 Number     Number       Type             X           Y           Z
 ---------------------------------------------------------------------
      1          6           0        0.000000   -0.000000   -0.686081
      2          1           0        0.000000    0.937260   -1.277431
      3          1           0       -0.000000   -0.937260   -1.277431
      4          8           0        0.000000    0.000000    0.833919
 ---------------------------------------------------------------------

 SCF Done:  E(RB3LYP) =  -114.457868074     A.U. after   10 cycles

 Excitation energies and oscillator strengths:

 Excited State   1:      Singlet-A2     2.3025 eV  538.47 nm  f=0.0000  <S**2>=0.000
       3 -> 27         0.00141
       3 -> 38         0.00108
       3 -> 46         0.00320
       4 -> 27         0.00087
       4 -> 38        -0.00019
       4 -> 46        -0.00137
       5 ->  9         0.01024
       5 -> 13         0.00065
       5 -> 18         0.00341
       5 -> 23         0.00157
       5 -> 28         0.00303
       5 -> 31        -0.00034
       5 -> 37         0.00171
       5 -> 44         0.00038
       5 -> 52         0.00042
       6 -> 27        -0.00060
       6 -> 38        -0.00083
       6 -> 46         0.00147
       7 -> 12        -0.00080
       7 -> 16         0.00446
       7 -> 19        -0.00382
       7 -> 22        -0.00057
       7 -> 25         0.00108
       7 -> 30        -0.00140
       7 -> 33         0.00040
       7 -> 49         0.00013
       7 -> 50         0.00020
       7 -> 53         0.00046
       8 ->  9         0.70792
       8 -> 13        -0.01661
       8 -> 18         0.02186
       8 -> 23        -0.00464
       8 -> 28         0.01106
       8 -> 31         0.00061
       8 -> 37         0.00065
       8 -> 48        -0.00030
       8 -> 52         0.00193
       3 <- 27         0.00072
       3 <- 38         0.00080
       3 <- 46         0.00326
       4 <- 27         0.00146
       4 <- 38         0.00023
       4 <- 46        -0.00111
       5 <-  9        -0.00041
       5 <- 13        -0.00059
       5 <- 18        -0.00079
       5 <- 23         0.00032
       5 <- 28        -0.00055
       5 <- 31         0.00042
       5 <- 37         0.00094
       5 <- 44         0.00013
       5 <- 52         0.00011
       6 <- 38        -0.00069
       6 <- 46         0.00114
       7 <- 12         0.00027
       7 <- 16        -0.00968
       7 <- 19         0.00305
       7 <- 22         0.00718
       7 <- 25         0.00046
       7 <- 30         0.00504
       7 <- 33        -0.00066
       7 <- 36         0.00115
       7 <- 40         0.00062
       7 <- 42         0.00012
       7 <- 49        -0.00032
       7 <- 50         0.00012
       7 <- 53         0.00145
       8 <-  9        -0.04466
       8 <- 13         0.00086
       8 <- 18        -0.00614
       8 <- 23         0.00035
       8 <- 28        -0.00215
       8 <- 31        -0.00057
       8 <- 37        -0.00060
       8 <- 52         0.00052
 This state for optimization and/or second-order correction.
 Total Energy, E(TD-HF/TD-DFT) =  -114.373251231
 Copying the excited state density for this state as the 1-particle RhoCI density.

 Excited State   2:      Singlet-A1     5.8310 eV  212.63 nm  f=0.0976  <S**2>=0.000
       3 -> 10         0.01055
       3 -> 11        -0.01670
       3 -> 14        -0.01269
       3 -> 15         0.01476
       3 -> 17        -0.00377
       3 -> 20        -0.00330
       3 -> 21        -0.00237
       3 -> 24         0.00359
       3 -> 26         0.00535
       3 -> 29        -0.00070
       3 -> 32         0.00279
       3 -> 34         0.00331
       3 -> 35        -0.00015
       3 -> 39         0.00101
       3 -> 43         0.00044
       3 -> 45         0.00073
       3 -> 47         0.00206
       3 -> 51         0.00077
       3 -> 54         0.00026
       4 -> 10         0.01781
       4 -> 11         0.01062
       4 -> 14        -0.01019
       4 -> 15        -0.00833
       4 -> 17         0.00330
       4 -> 20         0.00693
       4 -> 21         0.00036
       4 -> 24        -0.00584
       4 -> 26         0.00561
       4 -> 29         0.00116
       4 -> 32        -0.00125
       4 -> 34        -0.00230
       4 -> 39        -0.00017
       4 -> 41         0.00014
       4 -> 43        -0.00033
       4 -> 45         0.00043
       4 -> 47        -0.00156
       4 -> 51        -0.00027
       5 -> 12         0.02145
       5 -> 16         0.01664
       5 -> 19         0.00160
       5 -> 22         0.00650
       5 -> 25         0.00999
       5 -> 30        -0.00096
       5 -> 33        -0.00328
       5 -> 36         0.00258
       5 -> 40         0.00158
       5 -> 42         0.00062
       5 -> 49         0.00056
       5 -> 50        -0.00060
       5 -> 53        -0.00020
       6 -> 10        -0.08077
       6 -> 11         0.10545
       6 -> 14         0.07860
       6 -> 15        -0.10772
       6 -> 17        -0.02034
       6 -> 20        -0.01806
       6 -> 21         0.01862
       6 -> 24        -0.01756
       6 -> 26        -0.00883
       6 -> 29        -0.00914
       6 -> 32         0.00021
       6 -> 34         0.00184
       6 -> 35        -0.00128
       6 -> 39         0.00060
       6 -> 41        -0.00059
       6 -> 43         0.00070
       6 -> 45        -0.00045
       6 -> 47         0.00161
       6 -> 51         0.00084
       6 -> 54        -0.00051
       7 ->  9         0.68590
       7 -> 13         0.00674
       7 -> 18        -0.02199
       7 -> 23         0.00201
       7 -> 28        -0.00276
       7 -> 31        -0.00269
       7 -> 37         0.00060
       7 -> 44        -0.00105
       7 -> 48         0.00052
       7 -> 52         0.00103
       8 -> 12        -0.00528
       8 -> 16         0.08900
       8 -> 19        -0.02602
       8 -> 22        -0.03387
       8 -> 25         0.00132
       8 -> 30        -0.01359
       8 -> 33         0.00325
       8 -> 36        -0.00408
       8 -> 40        -0.00186
       8 -> 42        -0.00034
       8 -> 49         0.00068
       8 -> 50         0.00028
       8 -> 53        -0.00082
       3 <- 10         0.00653
       3 <- 11        -0.01097
       3 <- 14        -0.00906
       3 <- 15         0.00996
       3 <- 17        -0.00189
       3 <- 20        -0.00218
       3 <- 21        -0.00241
       3 <- 24         0.00237
       3 <- 26         0.00334
       3 <- 29        -0.00038
       3 <- 32         0.00256
       3 <- 34         0.00220
       3 <- 35        -0.00021
       3 <- 39         0.00084
       3 <- 41         0.00011
       3 <- 43         0.00050
       3 <- 45         0.00057
       3 <- 47         0.00225
       3 <- 51         0.00074
       3 <- 54         0.00034
       4 <- 10         0.00852
       4 <- 11         0.00621
       4 <- 14        -0.00489
       4 <- 15        -0.00490
       4 <- 17         0.00153
       4 <- 20         0.00514
       4 <- 21         0.00030
       4 <- 24        -0.00378
       4 <- 26         0.00422
       4 <- 29         0.00028
       4 <- 32        -0.00160
       4 <- 34        -0.00201
       4 <- 35         0.00025
       4 <- 39        -0.00022
       4 <- 43        -0.00033
       4 <- 45         0.00069
       4 <- 47        -0.00119
       4 <- 51        -0.00010
       5 <- 12         0.00835
       5 <- 16         0.00764
       5 <- 19         0.00105
       5 <- 22         0.00376
       5 <- 25         0.00637
       5 <- 30        -0.00051
       5 <- 33        -0.00246
       5 <- 36         0.00206
       5 <- 40         0.00136
       5 <- 42         0.00050
       5 <- 49         0.00048
       5 <- 50        -0.00054
       5 <- 53        -0.00017
       6 <- 10        -0.02122
       6 <- 11         0.02968
       6 <- 14         0.02819
       6 <- 15        -0.04229
       6 <- 17        -0.00889
       6 <- 20        -0.00983
       6 <- 21         0.01007
       6 <- 24        -0.01021
       6 <- 26        -0.00520
       6 <- 29        -0.00603
       6 <- 32         0.00069
       6 <- 34         0.00210
       6 <- 35        -0.00106
       6 <- 39         0.00073
       6 <- 41        -0.00040
       6 <- 43         0.00061
       6 <- 45        -0.00056
       6 <- 47         0.00112
       6 <- 51         0.00065
       6 <- 54        -0.00041
       7 <-  9        -0.11749
       7 <- 13         0.00924
       7 <- 18        -0.01450
       7 <- 23         0.00484
       7 <- 28        -0.00475
       7 <- 31        -0.00109
       7 <- 37         0.00012
       7 <- 44        -0.00055
       7 <- 52         0.00088
       8 <- 12        -0.00090
       8 <- 16         0.02629
       8 <- 19        -0.00958
       8 <- 22        -0.01670
       8 <- 25         0.00041
       8 <- 30        -0.00932
       8 <- 33         0.00233
       8 <- 36        -0.00302
       8 <- 40        -0.00148
       8 <- 42        -0.00027
       8 <- 49         0.00047
       8 <- 50         0.00022
       8 <- 53        -0.00073

 Excited State   3:      Singlet-B1     6.0187 eV  206.00 nm  f=0.0015  <S**2>=0.000
       3 ->  9        -0.03088
       3 -> 13         0.00227
       3 -> 18        -0.00525
       3 -> 23         0.00219
       3 -> 28        -0.00123
       3 -> 31        -0.00049
       3 -> 44         0.00030
       3 -> 48         0.00083
       3 -> 52         0.00103
       4 ->  9         0.01463
       4 -> 13        -0.00270
       4 -> 18         0.00042
       4 -> 23        -0.00247
       4 -> 28         0.00020
       4 -> 31        -0.00170
       4 -> 37        -0.00044
       4 -> 44         0.00011
       4 -> 48        -0.00126
       4 -> 52        -0.00070
       5 -> 27        -0.00052
       5 -> 38         0.00199
       5 -> 46         0.00126
       6 ->  9         0.70597
       6 -> 13        -0.02231
       6 -> 18         0.01811
       6 -> 23        -0.01137
       6 -> 28         0.00492
       6 -> 31         0.00362
       6 -> 37        -0.00236
       6 -> 44        -0.00314
       6 -> 48         0.00450
       6 -> 52         0.00160
       7 -> 10        -0.01346
       7 -> 11         0.01592
       7 -> 14         0.01015
       7 -> 15        -0.00813
       7 -> 17        -0.00972
       7 -> 20         0.00248
       7 -> 21        -0.00051
       7 -> 26        -0.00103
       7 -> 29        -0.00418
       7 -> 32        -0.00089
       7 -> 34         0.00020
       7 -> 35         0.00184
       7 -> 39         0.00012
       7 -> 41        -0.00084
       7 -> 43         0.00064
       7 -> 45         0.00183
       7 -> 47         0.00424
       7 -> 51         0.00116
       7 -> 54         0.00051
       8 -> 27         0.00089
       8 -> 38         0.00025
       8 -> 46         0.00581
       3 <-  9        -0.01020
       3 <- 13        -0.00038
       3 <- 18        -0.00308
       3 <- 23        -0.00039
       3 <- 28        -0.00082
       3 <- 31        -0.00060
       3 <- 44        -0.00027
       3 <- 48         0.00104
       3 <- 52         0.00082
       4 <-  9         0.00660
       4 <- 13        -0.00012
       4 <- 18         0.00215
       4 <- 23        -0.00046
       4 <- 28         0.00186
       4 <- 31        -0.00121
       4 <- 37        -0.00016
       4 <- 44         0.00015
       4 <- 48        -0.00109
       4 <- 52        -0.00039
       5 <- 27        -0.00098
       5 <- 38         0.00158
       5 <- 46         0.00112
       6 <-  9        -0.02353
       6 <- 13         0.00179
       6 <- 18        -0.00309
       6 <- 23        -0.00024
       6 <- 28        -0.00315
       6 <- 31         0.00164
       6 <- 37        -0.00211
       6 <- 44        -0.00181
       6 <- 48         0.00401
       6 <- 52         0.00057
       7 <- 10         0.00740
       7 <- 11        -0.01013
       7 <- 14        -0.00967
       7 <- 15         0.01649
       7 <- 17         0.00075
       7 <- 20         0.00564
       7 <- 21        -0.00500
       7 <- 24         0.00477
       7 <- 26         0.00202
       7 <- 29         0.00080
       7 <- 32        -0.00057
       7 <- 34        -0.00028
       7 <- 35         0.00289
       7 <- 39         0.00039
       7 <- 41        -0.00046
       7 <- 43         0.00053
       7 <- 45         0.00181
       7 <- 47         0.00379
       7 <- 51         0.00095
       7 <- 54         0.00109
       8 <- 27         0.00127
       8 <- 38         0.00042
       8 <- 46         0.00534

 Excited State   4:      Singlet-B2     6.7011 eV  185.02 nm  f=0.0183  <S**2>=0.000
       3 -> 12         0.00178
       3 -> 16        -0.00111
       3 -> 19         0.00345
       3 -> 22        -0.00029
       3 -> 25         0.00029
       3 -> 30         0.00235
       3 -> 33         0.00039
       3 -> 36        -0.00172
       3 -> 40        -0.00130
       3 -> 42        -0.00014
       3 -> 49         0.00166
       3 -> 50        -0.00019
       3 -> 53        -0.00023
       4 -> 12        -0.00074
       4 -> 16         0.00287
       4 -> 19         0.00076
       4 -> 22        -0.00351
       4 -> 25         0.00280
       4 -> 30        -0.00094
       4 -> 33         0.00036
       4 -> 36        -0.00034
       4 -> 40         0.00049
       4 -> 49        -0.00022
       5 -> 10        -0.00221
       5 -> 11        -0.00347
       5 -> 14        -0.01430
       5 -> 15         0.00216
       5 -> 17        -0.00161
       5 -> 20        -0.00113
       5 -> 21        -0.00663
       5 -> 24        -0.00180
       5 -> 26         0.00213
       5 -> 29         0.00173
       5 -> 32         0.00031
       5 -> 34         0.00129
       5 -> 35         0.00063
       5 -> 39         0.00065
       5 -> 41        -0.00082
       5 -> 45         0.00028
       5 -> 47         0.00064
       5 -> 51        -0.00040
       5 -> 54         0.00020
       6 -> 12        -0.00343
       6 -> 16         0.00109
       6 -> 19        -0.00174
       6 -> 22        -0.00062
       6 -> 25         0.00072
       6 -> 30         0.00035
       6 -> 33        -0.00049
       6 -> 36         0.00199
       6 -> 40         0.00138
       6 -> 42         0.00014
       6 -> 49        -0.00098
       6 -> 53         0.00022
       7 -> 27         0.00041
       7 -> 38        -0.00101
       7 -> 46        -0.00254
       8 -> 10         0.66600
       8 -> 11        -0.21009
       8 -> 14        -0.08434
       8 -> 15         0.07013
       8 -> 17         0.00601
       8 -> 20         0.00758
       8 -> 21        -0.00285
       8 -> 24         0.00396
       8 -> 26         0.00517
       8 -> 29         0.00665
       8 -> 32         0.00161
       8 -> 34         0.00093
       8 -> 35         0.00061
       8 -> 39         0.00039
       8 -> 41        -0.00049
       8 -> 43         0.00066
       8 -> 45         0.00202
       8 -> 47         0.00243
       8 -> 51        -0.00161
       8 -> 54         0.00095
       3 <- 12         0.00054
       3 <- 16        -0.00014
       3 <- 19         0.00160
       3 <- 22        -0.00079
       3 <- 30         0.00091
       3 <- 33         0.00035
       3 <- 36        -0.00140
       3 <- 40        -0.00118
       3 <- 42        -0.00012
       3 <- 49         0.00172
       3 <- 50        -0.00016
       3 <- 53        -0.00059
       4 <- 12         0.00055
       4 <- 16         0.00244
       4 <- 19         0.00083
       4 <- 22        -0.00271
       4 <- 25         0.00173
       4 <- 30        -0.00076
       4 <- 33         0.00045
       4 <- 36        -0.00052
       4 <- 40         0.00013
       4 <- 42        -0.00018
       4 <- 49        -0.00017
       5 <- 10         0.00163
       5 <- 11         0.00114
       5 <- 14        -0.00379
       5 <- 15        -0.00276
       5 <- 17        -0.00027
       5 <- 20        -0.00017
       5 <- 21        -0.00185
       5 <- 24        -0.00282
       5 <- 26         0.00093
       5 <- 29         0.00043
       5 <- 32        -0.00056
       5 <- 34         0.00054
       5 <- 39         0.00018
       5 <- 41        -0.00075
       5 <- 43        -0.00017
       5 <- 45         0.00050
       5 <- 47         0.00039
       5 <- 51        -0.00020
       6 <- 12        -0.00026
       6 <- 16        -0.00335
       6 <- 19         0.00160
       6 <- 22         0.00226
       6 <- 25         0.00028
       6 <- 30         0.00295
       6 <- 33        -0.00066
       6 <- 36         0.00196
       6 <- 40         0.00132
       6 <- 42         0.00018
       6 <- 49        -0.00101
       6 <- 53         0.00066
       7 <- 27         0.00044
       7 <- 38        -0.00077
       7 <- 46        -0.00206
       8 <- 10        -0.00530
       8 <- 11         0.00759
       8 <- 14         0.00809
       8 <- 15        -0.00586
       8 <- 17        -0.00024
       8 <- 20         0.00122
       8 <- 21         0.00217
       8 <- 24        -0.00038
       8 <- 26        -0.00183
       8 <- 29         0.00060
       8 <- 32        -0.00112
       8 <- 34        -0.00100
       8 <- 35        -0.00027
       8 <- 39        -0.00096
       8 <- 41        -0.00053
       8 <- 45         0.00225
       8 <- 47         0.00151
       8 <- 51        -0.00090
       8 <- 54         0.00022

 Excited State   5:      Singlet-B2     7.1825 eV  172.62 nm  f=0.0089  <S**2>=0.000
       3 -> 12         0.00102
       3 -> 16         0.00195
       3 -> 19        -0.00180
       3 -> 22        -0.00043
       3 -> 25         0.00091
       3 -> 30        -0.00324
       3 -> 36         0.00101
       3 -> 40         0.00085
       3 -> 49        -0.00116
       3 -> 50         0.00010
       4 -> 12        -0.00157
       4 -> 16        -0.00020
       4 -> 19         0.00066
       4 -> 22         0.00012
       4 -> 25        -0.00027
       4 -> 30         0.00172
       4 -> 33        -0.00036
       4 -> 36         0.00056
       4 -> 50        -0.00013
       5 -> 10        -0.00756
       5 -> 11         0.00109
       5 -> 14         0.00453
       5 -> 15         0.00564
       5 -> 17         0.00215
       5 -> 20         0.00277
       5 -> 21         0.00211
       5 -> 24         0.00012
       5 -> 26        -0.00107
       5 -> 29        -0.00099
       5 -> 32        -0.00158
       5 -> 34        -0.00011
       5 -> 35        -0.00062
       5 -> 39        -0.00083
       5 -> 41         0.00014
       5 -> 43        -0.00037
       5 -> 45        -0.00055
       5 -> 47        -0.00058
       5 -> 51         0.00043
       6 -> 16        -0.00013
       6 -> 19         0.00102
       6 -> 22        -0.00110
       6 -> 30        -0.00113
       6 -> 33         0.00017
       6 -> 36        -0.00085
       6 -> 40        -0.00115
       6 -> 42        -0.00025
       6 -> 49         0.00166
       6 -> 50        -0.00013
       6 -> 53        -0.00017
       7 -> 27        -0.00075
       7 -> 38         0.00014
       7 -> 46         0.00265
       8 -> 10         0.22094
       8 -> 11         0.66782
       8 -> 14         0.03005
       8 -> 15        -0.06294
       8 -> 17        -0.00676
       8 -> 20         0.01500
       8 -> 21         0.00417
       8 -> 24        -0.00445
       8 -> 29        -0.00475
       8 -> 32        -0.00064
       8 -> 34        -0.00091
       8 -> 35        -0.00098

 The electronic state is 1-A1.
 Alpha  occ. eigenvalues --  -19.16895 -10.31957  -0.94878  -0.68816  -0.48819
 Alpha  occ. eigenvalues --   -0.42558  -0.34226  -0.29007
 Alpha virt. eigenvalues --   -0.13268  -0.00457   0.02184   0.04113   0.06152
 Alpha virt. eigenvalues --    0.10583   0.14691   0.14980   0.18956   0.21548
 Alpha virt. eigenvalues --    0.23907   0.30076   0.39630   0.41921   0.50976

 Mulliken charges:
               1
     1  C   -0.045705
     2  H    0.170813
     3  H    0.170813
     4  O   -0.295921
 Sum of Mulliken charges =   0.00000

 Dipole moment (field-independent basis, Debye):
    X=             -0.0000    Y=              0.0000    Z=             -3.5708  Tot=              3.5708
 Quadrupole moment (field-independent basis, Debye-Ang):
   XX=            -12.5769   YY=            -11.8338   ZZ=            -11.5488
   XY=              0.0000   XZ=              0.0000   YZ=             -0.0000

 Normal termination of Gaussian 16 at Fri Sep 17 10:52:55 2021.
