 Gaussian 16, Revision A.03,
 Gaussian 16:  ES64L-G16RevA.03 25-Dec-2016

 --------------------------------------------------------------------
 #p B3LYP/6-311+G** #p TD=(singlets,nstates=30)IOp(6/8=3) IOp(9/40=4)
 --------------------------------------------------------------------

 --------------------------------
 Scan Step 293, Bond Length 1.965
 --------------------------------
 Symbolic Z-matrix:
 Charge =  0 Multiplicity = 1

                         Standard orientation:
 ---------------------------------------------------------------------
 Center     Atomic      Atomic             Coordinates (Angstroms)
 Number     Number       Type             X           Y           Z
 ---------------------------------------------------------------------
      1          6           0        0.000000    0.000000   -0.908581
      2          1           0        0.000000    0.937260   -1.499931
      3          1           0       -0.000000   -0.937260   -1.499931
      4          8           0        0.000000   -0.000000    1.056419
 ---------------------------------------------------------------------

 SCF Done:  E(RB3LYP) =  -114.306041451     A.U. after   13 cycles

 Excitation energies and oscillator strengths:

 Excited State   1:      Singlet-A2     1.0309 eV 1202.65 nm  f=0.0000  <S**2>=0.000
       3 -> 27         0.00055
       3 -> 38         0.00031
       3 -> 47         0.00326
       4 -> 27         0.00027
       4 -> 47        -0.00076
       5 ->  9        -0.00014
       5 -> 14         0.00102
       5 -> 18         0.00125
       5 -> 23         0.00115
       5 -> 28         0.00088
       5 -> 37         0.00054
       5 -> 44         0.00015
       5 -> 52         0.00012
       6 -> 27        -0.00051
       6 -> 38        -0.00046
       6 -> 47         0.00076
       7 -> 12        -0.00147
       7 -> 16         0.00540
       7 -> 19        -0.00500
       7 -> 22        -0.00113
       7 -> 25        -0.00041
       7 -> 30        -0.00207
       7 -> 33         0.00024
       7 -> 49         0.00012
       7 -> 53         0.00034
       8 ->  9         0.71227
       8 -> 14        -0.00470
       8 -> 18         0.02013
       8 -> 23        -0.00023
       8 -> 28         0.00963
       8 -> 31         0.00155
       8 -> 37         0.00045
       8 -> 46        -0.00026
       8 -> 52         0.00177
       3 <- 38         0.00011
       3 <- 47         0.00327
       4 <- 27         0.00053
       4 <- 38         0.00015
       4 <- 47        -0.00057
       5 <-  9         0.00066
       5 <- 14        -0.00025
       5 <- 18        -0.00026
       5 <- 23         0.00012
       5 <- 28        -0.00021
       5 <- 31         0.00018
       5 <- 37         0.00031
       6 <- 38        -0.00033
       6 <- 47         0.00053
       7 <- 12         0.00234
       7 <- 16        -0.01040
       7 <- 19         0.00637
       7 <- 22         0.00491
       7 <- 25        -0.00063
       7 <- 30         0.00566
       7 <- 33        -0.00033
       7 <- 49        -0.00046
       7 <- 53         0.00142
       8 <-  9        -0.08740
       8 <- 14        -0.00080
       8 <- 18        -0.00808
       8 <- 23        -0.00049
       8 <- 28        -0.00281
       8 <- 31        -0.00086
       8 <- 37        -0.00013
       8 <- 46         0.00013
       8 <- 52         0.00039
 This state for optimization and/or second-order correction.
 Total Energy, E(TD-HF/TD-DFT) =  -114.268155601
 Copying the excited state density for this state as the 1-particle RhoCI density.

 Excited State   2:      Singlet-B2     2.6438 eV  468.96 nm  f=0.0011  <S**2>=0.000
       3 -> 12        -0.00098
       3 -> 16         0.00078
       3 -> 19        -0.00324
       3 -> 22         0.00113
       3 -> 25        -0.00087
       3 -> 30        -0.00209
       3 -> 33         0.00036
       3 -> 35         0.00095
       3 -> 40        -0.00101
       3 -> 42        -0.00024
       3 -> 49        -0.00409
       3 -> 51         0.00013
       3 -> 53         0.00022
       4 -> 12         0.00029
       4 -> 16        -0.00106
       4 -> 19         0.00024
       4 -> 22         0.00135
       4 -> 25         0.00037
       4 -> 30         0.00060
       4 -> 33        -0.00025
       4 -> 35         0.00037
       4 -> 40         0.00018
       4 -> 49         0.00071
       5 -> 10         0.00843
       5 -> 11         0.00077
       5 -> 13        -0.00188
       5 -> 15         0.00228
       5 -> 17        -0.00052
       5 -> 20         0.00174
       5 -> 21         0.00211
       5 -> 24         0.00119
       5 -> 26        -0.00015
       5 -> 29        -0.00197
       5 -> 32        -0.00051
       5 -> 39         0.00047
       5 -> 41         0.00031
       5 -> 48        -0.00024
       5 -> 50         0.00017
       5 -> 54        -0.00015
       6 -> 12         0.00233
       6 -> 16        -0.00293
       6 -> 19         0.00440
       6 -> 22        -0.00071
       6 -> 25         0.00115
       6 -> 30         0.00054
       6 -> 33        -0.00024
       6 -> 35        -0.00092
       6 -> 40         0.00054
       6 -> 42         0.00049
       6 -> 49         0.00088
       6 -> 53        -0.00044
       7 -> 27        -0.00041
       7 -> 38         0.00022
       7 -> 47         0.00251
       8 -> 10         0.70736
       8 -> 11         0.03903
       8 -> 13        -0.03686
       8 -> 15        -0.01634
       8 -> 17        -0.01645
       8 -> 20         0.00749
       8 -> 21         0.00427
       8 -> 24        -0.00465
       8 -> 26        -0.00334
       8 -> 29        -0.01374
       8 -> 32         0.00216
       8 -> 34        -0.00084
       8 -> 36         0.00192
       8 -> 39         0.00018
       8 -> 41        -0.00017
       8 -> 45        -0.00072
       8 -> 48        -0.00306
       8 -> 50         0.00098
       8 -> 54        -0.00252
       3 <- 12        -0.00033
       3 <- 16         0.00030
       3 <- 19        -0.00165
       3 <- 22         0.00085
       3 <- 25        -0.00078
       3 <- 30        -0.00086
       3 <- 33         0.00034
       3 <- 35         0.00056
       3 <- 40        -0.00087
       3 <- 49        -0.00413
       3 <- 51         0.00013
       3 <- 53         0.00061
       4 <- 12         0.00012
       4 <- 16        -0.00143
       4 <- 19         0.00019
       4 <- 22         0.00176
       4 <- 25         0.00015
       4 <- 30         0.00091
       4 <- 33        -0.00025
       4 <- 35         0.00052
       4 <- 49         0.00049
       5 <- 10        -0.00097
       5 <- 11        -0.00038
       5 <- 13        -0.00032
       5 <- 15         0.00190
       5 <- 17         0.00019
       5 <- 20         0.00074
       5 <- 21         0.00132
       5 <- 24         0.00127
       5 <- 29        -0.00044
       5 <- 32        -0.00019
       5 <- 39         0.00025
       5 <- 41         0.00033
       5 <- 45        -0.00016
       5 <- 48        -0.00027
       6 <- 12        -0.00124
       6 <- 16         0.00850
       6 <- 19        -0.00507
       6 <- 22        -0.00520
       6 <- 25         0.00142
       6 <- 30        -0.00633
       6 <- 33         0.00012
       6 <- 35        -0.00069
       6 <- 40         0.00052
       6 <- 42         0.00044
       6 <- 49         0.00143
       6 <- 53        -0.00146
       7 <- 27        -0.00043
       7 <- 38         0.00018
       7 <- 47         0.00221
       8 <- 10        -0.06262
       8 <- 11        -0.00688
       8 <- 13         0.00647
       8 <- 15         0.00225
       8 <- 17         0.00305
       8 <- 20        -0.00380
       8 <- 21        -0.00084
       8 <- 24         0.00130
       8 <- 26         0.00076
       8 <- 29         0.00321
       8 <- 32         0.00174
       8 <- 34         0.00072
       8 <- 36        -0.00097
       8 <- 39        -0.00069
       8 <- 41         0.00012
       8 <- 43         0.00024
       8 <- 45        -0.00134
       8 <- 48        -0.00260
       8 <- 50         0.00102
       8 <- 54        -0.00064

 Excited State   3:      Singlet-A1     2.6798 eV  462.66 nm  f=0.0184  <S**2>=0.000
       3 -> 10        -0.01089
       3 -> 11        -0.00175
       3 -> 13        -0.00020
       3 -> 17        -0.00277
       3 -> 20        -0.00300
       3 -> 21         0.00075
       3 -> 26         0.00049
       3 -> 29         0.00025
       3 -> 32         0.00246
       3 -> 34         0.00088
       3 -> 36        -0.00085
       3 -> 39        -0.00023
       3 -> 43         0.00039
       3 -> 45        -0.00137
       3 -> 48         0.00231
       3 -> 50         0.00169
       3 -> 54        -0.00015
       4 -> 10         0.00049
       4 -> 11         0.00843
       4 -> 13         0.00107
       4 -> 15        -0.00657
       4 -> 17         0.00178
       4 -> 20         0.00120
       4 -> 21         0.00015
       4 -> 24        -0.00344
       4 -> 26         0.00239
       4 -> 32        -0.00092
       4 -> 34        -0.00057
       4 -> 39        -0.00030
       4 -> 43        -0.00038
       4 -> 45         0.00072
       4 -> 48        -0.00061
       4 -> 50        -0.00020
       4 -> 54         0.00012
       5 -> 12         0.00701
       5 -> 16         0.00062
       5 -> 19         0.00087
       5 -> 22         0.00587
       5 -> 25        -0.00317
       5 -> 30         0.00030
       5 -> 33        -0.00214
       5 -> 35         0.00267
       5 -> 40        -0.00083
       5 -> 42        -0.00096
       5 -> 51        -0.00092
       6 -> 10         0.26856
       6 -> 11         0.02508
       6 -> 13        -0.02603
       6 -> 15        -0.01638
       6 -> 17        -0.01367
       6 -> 20         0.00036
       6 -> 21         0.00303
       6 -> 24        -0.00583
       6 -> 26        -0.00193
       6 -> 29        -0.00135
       6 -> 32         0.00484
       6 -> 34         0.00135
       6 -> 36         0.00085
       6 -> 39        -0.00161
       6 -> 43         0.00074
       6 -> 45        -0.00101
       6 -> 48         0.00063
       6 -> 50         0.00039
       6 -> 54        -0.00099
       7 ->  9         0.67187
       7 -> 14        -0.00847
       7 -> 18        -0.00750
       7 -> 23        -0.00323
       7 -> 28         0.00189
       7 -> 31        -0.00330
       7 -> 37         0.00136
       7 -> 44        -0.00095
       7 -> 52         0.00104
       8 -> 12        -0.00666
       8 -> 16         0.02646
       8 -> 19        -0.01573
       8 -> 22        -0.00823
       8 -> 30        -0.00642
       8 -> 33         0.00069
       8 -> 35        -0.00032
       8 -> 42         0.00012
       8 -> 49        -0.00013
       8 -> 51         0.00011
       8 -> 53        -0.00046
       3 <- 10        -0.00923
       3 <- 11        -0.00181
       3 <- 13        -0.00024
       3 <- 15        -0.00044
       3 <- 17        -0.00168
       3 <- 20        -0.00280
       3 <- 21         0.00035
       3 <- 24        -0.00045
       3 <- 26        -0.00024
       3 <- 29         0.00049
       3 <- 32         0.00206
       3 <- 34         0.00045
       3 <- 36        -0.00094
       3 <- 39        -0.00015
       3 <- 43         0.00041
       3 <- 45        -0.00144
       3 <- 48         0.00230
       3 <- 50         0.00171
       4 <- 10         0.00149
       4 <- 11         0.00667
       4 <- 13         0.00108
       4 <- 15        -0.00483
       4 <- 17         0.00116
       4 <- 20         0.00186
       4 <- 24        -0.00277
       4 <- 26         0.00224
       4 <- 29        -0.00042
       4 <- 32        -0.00085
       4 <- 34        -0.00049
       4 <- 36         0.00017
       4 <- 39        -0.00035
       4 <- 43        -0.00034
       4 <- 45         0.00062
       4 <- 48        -0.00035
       4 <- 54         0.00010
       5 <- 12         0.00474
       5 <- 16         0.00051
       5 <- 19         0.00076
       5 <- 22         0.00451
       5 <- 25        -0.00262
       5 <- 30         0.00030
       5 <- 33        -0.00185
       5 <- 35         0.00237
       5 <- 40        -0.00077
       5 <- 42        -0.00088
       5 <- 51        -0.00088
       6 <- 10         0.09620
       6 <- 11         0.01185
       6 <- 13        -0.01405
       6 <- 15        -0.00972
       6 <- 17        -0.00905
       6 <- 20        -0.00108
       6 <- 21         0.00239
       6 <- 24        -0.00401
       6 <- 26        -0.00074
       6 <- 29        -0.00037
       6 <- 32         0.00448
       6 <- 34         0.00149
       6 <- 36         0.00040
       6 <- 39        -0.00144
       6 <- 43         0.00063
       6 <- 45        -0.00074
       6 <- 48         0.00035
       6 <- 50         0.00025
       6 <- 54        -0.00093
       7 <-  9        -0.12820
       7 <- 14         0.00166
       7 <- 18        -0.00992
       7 <- 23        -0.00023
       7 <- 28        -0.00092
       7 <- 31        -0.00155
       7 <- 37         0.00066
       7 <- 44        -0.00088
       7 <- 46        -0.00047
       7 <- 52         0.00098
       8 <- 12        -0.00337
       8 <- 16         0.01529
       8 <- 19        -0.01023
       8 <- 22        -0.00593
       8 <- 25         0.00012
       8 <- 30        -0.00539
       8 <- 33         0.00056
       8 <- 35        -0.00024
       8 <- 49        -0.00023
       8 <- 53        -0.00043

 Excited State   4:      Singlet-B1     2.9235 eV  424.10 nm  f=0.0002  <S**2>=0.000
       3 ->  9        -0.01639
       3 -> 14         0.00043
       3 -> 18        -0.00322
       3 -> 23         0.00100
       3 -> 28        -0.00146
       3 -> 31        -0.00113
       3 -> 37         0.00016
       3 -> 44         0.00012
       3 -> 46        -0.00165
       3 -> 52         0.00042
       4 ->  9        -0.00549
       4 -> 14         0.00087
       4 -> 18         0.00025
       4 -> 23         0.00069
       4 -> 28         0.00063
       4 -> 31        -0.00069
       4 -> 46         0.00017
       4 -> 52        -0.00011
       5 -> 27        -0.00220
       5 -> 38        -0.00021
       5 -> 47         0.00027
       6 ->  9         0.42103
       6 -> 14        -0.01141
       6 -> 18         0.01094
       6 -> 23        -0.00708
       6 -> 28         0.00376
       6 -> 31         0.00012
       6 -> 44        -0.00075
       6 -> 46         0.00196
       6 -> 52         0.00025
       7 -> 10         0.57412
       7 -> 11         0.03233
       7 -> 13        -0.03188
       7 -> 15        -0.01604
       7 -> 17        -0.01311
       7 -> 20         0.00481
       7 -> 21         0.00245
       7 -> 24        -0.00611
       7 -> 26        -0.00437
       7 -> 29        -0.00862
       7 -> 32         0.00196
       7 -> 34        -0.00090
       7 -> 36         0.00093
       7 -> 41        -0.00013
       7 -> 43         0.00044
       7 -> 45        -0.00111
       7 -> 48         0.00273
       7 -> 50         0.00081
       7 -> 54        -0.00126
       8 -> 27         0.00012
       8 -> 47         0.00330
       3 <-  9        -0.00546
       3 <- 14        -0.00041
       3 <- 18        -0.00205
       3 <- 28        -0.00094
       3 <- 31        -0.00062
       3 <- 44        -0.00019
       3 <- 46        -0.00160
       3 <- 52         0.00059
       4 <-  9        -0.00248
       4 <- 14         0.00087
       4 <- 18         0.00100
       4 <- 23         0.00068
       4 <- 28         0.00131
       4 <- 31        -0.00053
       4 <- 44        -0.00037
       5 <- 27        -0.00209
       5 <- 38        -0.00014
       5 <- 47         0.00026
       6 <-  9        -0.06636
       6 <- 14         0.00232
       6 <- 18        -0.00701
       6 <- 23         0.00094
       6 <- 28        -0.00416
       6 <- 31        -0.00250
       6 <- 37         0.00026
       6 <- 44         0.00047
       6 <- 46         0.00198
       6 <- 52        -0.00084
       7 <- 10        -0.07353
       7 <- 11        -0.00817
       7 <- 13         0.01036
       7 <- 15         0.00474
       7 <- 17         0.00391
       7 <- 20        -0.00090
       7 <- 21        -0.00258
       7 <- 24         0.00239
       7 <- 26         0.00154
       7 <- 29         0.00246
       7 <- 36        -0.00039
       7 <- 39        -0.00031
       7 <- 41         0.00024
       7 <- 43         0.00023
       7 <- 45        -0.00080
       7 <- 48         0.00250
       7 <- 50         0.00110
       7 <- 54         0.00015
       8 <- 27         0.00039
       8 <- 47         0.00300

 Excited State   5:      Singlet-B1     3.5063 eV  353.60 nm  f=0.0050  <S**2>=0.000
       3 ->  9        -0.00756
       3 -> 14         0.00033
       3 -> 23         0.00026
       3 -> 28         0.00147
       3 -> 31         0.00070
       3 -> 44         0.00042
       3 -> 46         0.00311
       3 -> 52         0.00046
       4 ->  9         0.02788
       4 -> 14        -0.00568
       4 -> 18        -0.00050
       4 -> 23        -0.00454
       4 -> 28        -0.00022
       4 -> 31        -0.00091
       4 -> 37        -0.00035
       4 -> 44         0.00037
       4 -> 46        -0.00089
       4 -> 52        -0.00021
       5 -> 27         0.00531
       5 -> 38         0.00378
       6 ->  9         0.57122
       6 -> 14        -0.01093
       6 -> 18         0.00538
       6 -> 23        -0.00713
       6 -> 28        -0.00101
       6 -> 31         0.00449
       6 -> 37        -0.00288
       6 -> 44        -0.00145
       6 -> 46         0.00200
       6 -> 52         0.00109
       7 -> 10        -0.41506
       7 -> 11        -0.01728
       7 -> 13         0.01830
       7 -> 15         0.01594
       7 -> 17         0.00311
       7 -> 20         0.00240
       7 -> 21        -0.00086
       7 -> 24         0.00534
       7 -> 26         0.00245
       7 -> 29         0.00478
       7 -> 34         0.00298
       7 -> 36         0.00150
       7 -> 39        -0.00058
       7 -> 43        -0.00020
       7 -> 45         0.00037
       7 -> 48         0.00109
       7 -> 50         0.00055
       7 -> 54         0.00136
       8 -> 27        -0.00038
       8 -> 38        -0.00016
       8 -> 47         0.00126
       3 <-  9        -0.00249
       3 <- 14        -0.00098
       3 <- 18        -0.00048
       3 <- 23        -0.00066
       3 <- 28         0.00117
       3 <- 31        -0.00031
       3 <- 37         0.00034
       3 <- 44         0.00041
       3 <- 46         0.00319
       3 <- 52         0.00013
       4 <-  9         0.01541
       4 <- 14        -0.00299
       4 <- 18         0.00039
       4 <- 23        -0.00304
       4 <- 31        -0.00069
       4 <- 37        -0.00030
       4 <- 44         0.00041
       4 <- 46        -0.00056
       4 <- 52        -0.00015
       5 <- 27         0.00391
       5 <- 38         0.00327
       6 <-  9         0.00428
       6 <- 14         0.00173
       6 <- 18         0.00035
       6 <- 23        -0.00027
       6 <- 28        -0.00194
       6 <- 31         0.00450
       6 <- 37        -0.00272
       6 <- 44        -0.00087
       6 <- 46         0.00126
       6 <- 52         0.00107
       7 <- 10        -0.01463
       7 <- 11        -0.00246
       7 <- 13         0.00475
       7 <- 15         0.00809
       7 <- 17         0.00116
       7 <- 20         0.00487
       7 <- 21        -0.00040
       7 <- 24         0.00407
       7 <- 26         0.00119
       7 <- 29         0.00104
       7 <- 32        -0.00118
       7 <- 34         0.00212
       7 <- 36         0.00229
       7 <- 39        -0.00030
       7 <- 43        -0.00031
       7 <- 45         0.00051
       7 <- 48         0.00115
       7 <- 50         0.00085
       7 <- 54         0.00114
       8 <- 47         0.00142

 Excited State   6:      Singlet-A2     6.6814 eV  185.57 nm  f=0.0000  <S**2>=0.000
       3 -> 27        -0.00091
       3 -> 38        -0.00024
       4 -> 27        -0.00605
       4 -> 38         0.00044
       4 -> 47        -0.00016

 The electronic state is 1-A1.
 Alpha  occ. eigenvalues --  -19.17821 -10.34386  -0.87992  -0.72137  -0.49521
 Alpha  occ. eigenvalues --   -0.37406  -0.29772  -0.28511
 Alpha virt. eigenvalues --   -0.18265  -0.10756  -0.00343   0.04023   0.06051
 Alpha virt. eigenvalues --    0.06081   0.11444   0.12821   0.18551   0.20809
 Alpha virt. eigenvalues --    0.23852   0.30406   0.38471   0.39021   0.50356

 Mulliken charges:
               1
     1  C   -0.112075
     2  H    0.195217
     3  H    0.195217
     4  O   -0.278358
 Sum of Mulliken charges =  -0.00000

 Dipole moment (field-independent basis, Debye):
    X=             -0.0000    Y=              0.0000    Z=             -4.3939  Tot=              4.3939
 Quadrupole moment (field-independent basis, Debye-Ang):
   XX=            -13.1332   YY=            -12.1217   ZZ=            -10.2432
   XY=              0.0000   XZ=              0.0000   YZ=             -0.0000

 Normal termination of Gaussian 16 at Fri Sep 17 10:53:18 2021.
