 Gaussian 16, Revision C.01,
 Gaussian 16:  ES64L-G16RevC.01  3-Jul-2019

 ---------------------------------------
 #P wB97XD/6-311+G* NoSymm #P Field=Z-77
 ---------------------------------------

 -------
 TitleMe
 -------
 Symbolic Z-matrix:
 Charge =  1 Multiplicity = 1

                          Input orientation:
 ---------------------------------------------------------------------
 Center     Atomic      Atomic             Coordinates (Angstroms)
 Number     Number       Type             X           Y           Z
 ---------------------------------------------------------------------
      1          6           0        0.519300    1.233000   -0.031900
      2          6           0        1.944500    1.269200   -0.036700
      3          6           0        2.620400    0.092800   -0.025000
      4          6           0       -0.196000    0.030100    0.001000
      5          1           0       -0.020700    2.174200   -0.043400
      6          1           0        2.482800    2.208900   -0.036100
      7          1           0       -1.277700    0.039900    0.011700
      8          7           0        4.092100    0.095900    0.036600
      9          8           0        4.639300   -1.021700    0.144600
     10          8           0        4.664900    1.198400   -0.023300
     11          6           0        0.494300   -1.167100    0.021000
     12          1           0       -0.032500   -2.114900    0.054500
     13          6           0        1.962900   -1.216500   -0.021100
     14          1           0        2.443600   -1.963100    0.615100
     15         35           0        2.173000   -1.949100   -1.906200
 ---------------------------------------------------------------------

 SCF Done:  E(RwB97XD) =  -3010.53172114     A.U. after   19 cycles

 Alpha  occ. eigenvalues -- -483.32338 -62.87378 -56.67050 -56.66509 -56.66501
 Alpha  occ. eigenvalues --  -19.46387 -19.46358 -14.85821 -10.59585 -10.58669
 Alpha  occ. eigenvalues --  -10.57682 -10.57423 -10.53736 -10.53076  -9.03195
 Alpha  occ. eigenvalues --   -6.85818  -6.84036  -6.84012  -2.95736  -2.95264
 Alpha  occ. eigenvalues --   -2.95244  -2.93817  -2.93817  -1.50067  -1.33020
 Alpha  occ. eigenvalues --   -1.22873  -1.13401  -1.12872  -1.05595  -1.00746
 Alpha  occ. eigenvalues --   -0.95761  -0.90929  -0.85187  -0.81173  -0.80453
 Alpha  occ. eigenvalues --   -0.80279  -0.78236  -0.76401  -0.75942  -0.72580
 Alpha  occ. eigenvalues --   -0.68911  -0.67941  -0.63993  -0.60563  -0.57776
 Alpha  occ. eigenvalues --   -0.57515  -0.56903  -0.56092  -0.55370
 Alpha virt. eigenvalues --   -0.30630  -0.20642  -0.16581  -0.13365  -0.09884
 Alpha virt. eigenvalues --   -0.07304  -0.06740  -0.06108  -0.04804  -0.03755
 Alpha virt. eigenvalues --   -0.03456  -0.02433  -0.01924  -0.01691  -0.00936

 Mulliken charges:
               1
     1  C   -0.089489
     2  C    0.152692
     3  C   -0.086259
     4  C   -0.339565
     5  H    0.347312
     6  H    0.352213
     7  H    0.333479
     8  N   -0.224821
     9  O    0.089234
    10  O    0.071225
    11  C   -0.181015
    12  H    0.359627
    13  C   -0.328074
    14  H    0.436043
    15  Br   0.107398
 Sum of Mulliken charges =   1.00000

 Dipole moment (field-independent basis, Debye):
    X=              2.6752    Y=             -0.6010    Z=              0.6291  Tot=              2.8131
 Quadrupole moment (field-independent basis, Debye-Ang):
   XX=            -67.8261   YY=            -51.6310   ZZ=            -63.9864
   XY=             -2.3617   XZ=              0.2843   YZ=              1.1082

 Normal termination of Gaussian 16 at Thu May  2 14:18:49 2024.
