 Gaussian 16, Revision A.03,
 Gaussian 16:  ES64L-G16RevA.03 25-Dec-2016

 --------------------------------------------------------------------
 #p B3LYP/6-311+G** #p TD=(singlets,nstates=30)IOp(6/8=3) IOp(9/40=4)
 --------------------------------------------------------------------

 ---------------------------------------------
 Scan Step 132, Bond Length 1.1600000000000001
 ---------------------------------------------
 Symbolic Z-matrix:
 Charge =  0 Multiplicity = 1

                         Standard orientation:
 ---------------------------------------------------------------------
 Center     Atomic      Atomic             Coordinates (Angstroms)
 Number     Number       Type             X           Y           Z
 ---------------------------------------------------------------------
      1          6           0        0.000000    0.000000   -0.506081
      2          1           0        0.000000    0.937260   -1.097431
      3          1           0       -0.000000   -0.937260   -1.097431
      4          8           0        0.000000   -0.000000    0.653919
 ---------------------------------------------------------------------

 SCF Done:  E(RB3LYP) =  -114.538793146     A.U. after    9 cycles

 Excitation energies and oscillator strengths:

 Excited State   1:      Singlet-A2     4.2085 eV  294.61 nm  f=0.0000  <S**2>=0.000
       3 -> 27         0.00264
       3 -> 38         0.00224
       3 -> 45         0.00231
       4 -> 27         0.00216
       4 -> 38        -0.00062
       4 -> 45        -0.00123
       5 ->  9         0.02127
       5 -> 13        -0.00444
       5 -> 17         0.00589
       5 -> 23        -0.00083
       5 -> 29         0.00426
       5 -> 31         0.00264
       5 -> 37         0.00368
       5 -> 44         0.00065
       5 -> 47         0.00014
       5 -> 52         0.00082
       6 -> 38        -0.00078
       6 -> 45         0.00176
       7 -> 12        -0.00062
       7 -> 15         0.00249
       7 -> 18        -0.00252
       7 -> 22         0.00098
       7 -> 24         0.00140
       7 -> 30        -0.00085
       7 -> 33         0.00041
       7 -> 35        -0.00034
       7 -> 40        -0.00031
       7 -> 49         0.00044
       7 -> 50         0.00029
       7 -> 53         0.00045
       8 ->  9         0.70464
       8 -> 13        -0.05275
       8 -> 17         0.02359
       8 -> 23        -0.01110
       8 -> 29         0.00840
       8 -> 31         0.00302
       8 -> 37        -0.00048
       8 -> 44        -0.00017
       8 -> 47        -0.00023
       8 -> 52         0.00159
       3 <- 27         0.00176
       3 <- 38         0.00187
       3 <- 45         0.00240
       4 <- 27         0.00299
       4 <- 45        -0.00106
       5 <-  9        -0.00027
       5 <- 13        -0.00086
       5 <- 17        -0.00091
       5 <- 23         0.00055
       5 <- 29        -0.00061
       5 <- 31        -0.00098
       5 <- 37         0.00171
       5 <- 44         0.00030
       5 <- 47         0.00017
       5 <- 52         0.00021
       6 <- 27         0.00058
       6 <- 38        -0.00071
       6 <- 45         0.00137
       7 <- 12        -0.00087
       7 <- 15        -0.00661
       7 <- 18        -0.00025
       7 <- 22         0.00713
       7 <- 24        -0.00034
       7 <- 30         0.00305
       7 <- 33        -0.00134
       7 <- 35        -0.00250
       7 <- 40        -0.00101
       7 <- 42         0.00016
       7 <- 49         0.00026
       7 <- 50         0.00017
       7 <- 53         0.00122
       8 <-  9        -0.02168
       8 <- 13         0.00369
       8 <- 17        -0.00411
       8 <- 23         0.00080
       8 <- 29        -0.00078
       8 <- 31         0.00110
       8 <- 37        -0.00165
       8 <- 52         0.00046
 This state for optimization and/or second-order correction.
 Total Energy, E(TD-HF/TD-DFT) =  -114.384134031
 Copying the excited state density for this state as the 1-particle RhoCI density.

 Excited State   2:      Singlet-B2     6.7873 eV  182.67 nm  f=0.0377  <S**2>=0.000
       3 -> 12         0.00139
       3 -> 15         0.00071
       3 -> 18         0.00114
       3 -> 22        -0.00029
       3 -> 24         0.00131
       3 -> 30        -0.00011
       3 -> 33         0.00015
       3 -> 35         0.00034
       4 -> 12        -0.00362
       4 -> 15         0.00161
       4 -> 18         0.00220
       4 -> 22        -0.00336
       4 -> 24         0.00354
       4 -> 30         0.00021
       4 -> 33        -0.00062
       4 -> 35        -0.00070
       4 -> 40        -0.00048
       5 -> 10        -0.00536
       5 -> 11        -0.00917
       5 -> 14         0.00697
       5 -> 16        -0.00100
       5 -> 19         0.00154
       5 -> 20         0.00140
       5 -> 21         0.00548
       5 -> 26         0.00263
       5 -> 28         0.00151
       5 -> 32         0.00063
       5 -> 34        -0.00102
       5 -> 36        -0.00025
       5 -> 39        -0.00031
       5 -> 41        -0.00025
       5 -> 43        -0.00056
       5 -> 46        -0.00042
       5 -> 54         0.00010
       6 -> 12         0.00052
       6 -> 15         0.00145
       6 -> 18         0.00267
       6 -> 22        -0.00265
       6 -> 24         0.00136
       6 -> 30        -0.00046
       6 -> 33        -0.00018
       6 -> 35        -0.00024
       6 -> 40         0.00019
       6 -> 42        -0.00022
       6 -> 49         0.00044
       6 -> 50        -0.00040
       7 -> 27         0.00028
       7 -> 38        -0.00046
       7 -> 45         0.00055
       8 -> 10         0.70368
       8 -> 11        -0.06447
       8 -> 14         0.00940
       8 -> 16        -0.00749
       8 -> 19         0.01430
       8 -> 20         0.01271
       8 -> 21        -0.00367
       8 -> 25         0.00042
       8 -> 26         0.00205
       8 -> 28         0.00065
       8 -> 32        -0.00082
       8 -> 34         0.00170
       8 -> 36         0.00044
       8 -> 39         0.00043
       8 -> 41        -0.00016
       8 -> 43         0.00065
       8 -> 46        -0.00073
       8 -> 48        -0.00012
       8 -> 54         0.00018
       3 <- 12         0.00035
       3 <- 15         0.00054
       3 <- 18         0.00045
       3 <- 22        -0.00041
       3 <- 24         0.00080
       3 <- 30        -0.00011
       3 <- 33         0.00013
       3 <- 35         0.00032
       4 <- 12         0.00069
       4 <- 15         0.00182
       4 <- 18         0.00217
       4 <- 22        -0.00205
       4 <- 24         0.00246
       4 <- 30         0.00016
       4 <- 33        -0.00039
       4 <- 35        -0.00042
       4 <- 40        -0.00016
       4 <- 42        -0.00022
       4 <- 49        -0.00010
       4 <- 50        -0.00010
       5 <- 10         0.00244
       5 <- 11        -0.00025
       5 <- 14         0.00494
       5 <- 16        -0.00089
       5 <- 19         0.00034
       5 <- 20         0.00066
       5 <- 21         0.00226
       5 <- 25         0.00177
       5 <- 26         0.00158
       5 <- 28         0.00029
       5 <- 32         0.00038
       5 <- 34        -0.00100
       5 <- 36        -0.00031
       5 <- 39        -0.00017
       5 <- 43        -0.00041
       5 <- 46        -0.00037
       5 <- 51         0.00010
       6 <- 12         0.00020
       6 <- 18         0.00137
       6 <- 22        -0.00083
       6 <- 24         0.00048
       6 <- 30         0.00031
       6 <- 33        -0.00025
       6 <- 35        -0.00038
       6 <- 40         0.00018
       6 <- 42        -0.00021
       6 <- 49         0.00037
       6 <- 50        -0.00041
       6 <- 53         0.00013
       7 <- 27         0.00023
       7 <- 38        -0.00035
       7 <- 45         0.00048
       8 <- 10        -0.00208
       8 <- 11        -0.00056
       8 <- 14        -0.00643
       8 <- 16        -0.00023
       8 <- 19        -0.00029
       8 <- 20        -0.00047
       8 <- 21        -0.00231
       8 <- 25        -0.00253
       8 <- 26        -0.00046
       8 <- 28        -0.00065
       8 <- 32        -0.00109
       8 <- 34         0.00067
       8 <- 36         0.00042
       8 <- 39         0.00035
       8 <- 43         0.00047
       8 <- 46        -0.00048

 Excited State   3:      Singlet-B2     7.5802 eV  163.56 nm  f=0.0238  <S**2>=0.000
       3 -> 12        -0.00027
       3 -> 15        -0.00072
       3 -> 18         0.00074
       3 -> 22         0.00036
       3 -> 24         0.00021
       3 -> 30         0.00190
       3 -> 33         0.00013
       3 -> 35         0.00041
       3 -> 40         0.00039
       3 -> 49         0.00038
       3 -> 50        -0.00025
       4 -> 12         0.00290
       4 -> 15        -0.00024
       4 -> 18         0.00274
       4 -> 22        -0.00151
       4 -> 24         0.00312
       4 -> 30        -0.00116
       4 -> 33         0.00051
       4 -> 35         0.00050
       4 -> 42        -0.00015
       4 -> 49         0.00023
       5 -> 10        -0.00756
       5 -> 14         0.00762
       5 -> 16        -0.00707
       5 -> 19        -0.00305
       5 -> 20        -0.00402
       5 -> 21         0.00119
       5 -> 25         0.00130
       5 -> 26         0.00046
       5 -> 28         0.00163
       5 -> 34        -0.00135
       5 -> 36        -0.00019
       5 -> 39         0.00041
       5 -> 41        -0.00079
       5 -> 46         0.00086
       5 -> 51        -0.00042
       6 -> 12        -0.00318
       6 -> 15        -0.00187
       6 -> 18        -0.00107
       6 -> 22         0.00138
       6 -> 24         0.00013
       6 -> 30         0.00085
       6 -> 33        -0.00051
       6 -> 35        -0.00148
       6 -> 40        -0.00099
       6 -> 49        -0.00100
       6 -> 50         0.00056
       6 -> 53         0.00011
       7 -> 27        -0.00017
       7 -> 38        -0.00101
       7 -> 45        -0.00164
       8 -> 10         0.06500
       8 -> 11         0.70320
       8 -> 14        -0.00834
       8 -> 16         0.01269
       8 -> 19        -0.02768
       8 -> 20         0.00916
       8 -> 21        -0.00256
       8 -> 25         0.00058
       8 -> 26        -0.00157
       8 -> 28         0.00047
       8 -> 32        -0.00031
       8 -> 34        -0.00014
       8 -> 39        -0.00016
       8 -> 41        -0.00130
       8 -> 43         0.00025
       8 -> 46         0.00168
       8 -> 51        -0.00092
       8 -> 54        -0.00014
       3 <- 12         0.00034
       3 <- 15        -0.00024
       3 <- 18         0.00085
       3 <- 24         0.00034
       3 <- 30         0.00110
       3 <- 33         0.00023
       3 <- 35         0.00047
       3 <- 40         0.00035
       3 <- 49         0.00032
       3 <- 50        -0.00016
       3 <- 53        -0.00026
       4 <- 12         0.00035
       4 <- 15         0.00067
       4 <- 18         0.00070
       4 <- 22        -0.00115
       4 <- 24         0.00129
       4 <- 30        -0.00054
       4 <- 33         0.00047
       4 <- 35         0.00014
       4 <- 42        -0.00016
       4 <- 49         0.00017
       4 <- 50        -0.00015
       5 <- 10         0.00128
       5 <- 11        -0.00106
       5 <- 14         0.00247
       5 <- 16        -0.00044
       5 <- 19         0.00095
       5 <- 20        -0.00038
       5 <- 21         0.00079
       5 <- 25         0.00129
       5 <- 26        -0.00022
       5 <- 28         0.00075
       5 <- 32         0.00106
       5 <- 34        -0.00039
       5 <- 36         0.00017
       5 <- 39         0.00013
       5 <- 41        -0.00082
       5 <- 46         0.00079
       5 <- 48         0.00012
       5 <- 51        -0.00033
       6 <- 12        -0.00033
       6 <- 15        -0.00054
       6 <- 22         0.00062
       6 <- 30         0.00055
       6 <- 33        -0.00034
       6 <- 35        -0.00117
       6 <- 40        -0.00074
       6 <- 49        -0.00082
       6 <- 50         0.00045
       7 <- 27         0.00011
       7 <- 38        -0.00080
       7 <- 45        -0.00138
       8 <- 10        -0.00070
       8 <- 11        -0.00043
       8 <- 14        -0.00387
       8 <- 16         0.00049
       8 <- 19         0.00371
       8 <- 20        -0.00118
       8 <- 21        -0.00205
       8 <- 25         0.00029
       8 <- 26        -0.00168
       8 <- 32         0.00114
       8 <- 34         0.00112
       8 <- 39        -0.00046
       8 <- 41        -0.00112
       8 <- 43         0.00013
       8 <- 46         0.00134
       8 <- 48         0.00015
       8 <- 51        -0.00064

 Excited State   4:      Singlet-A1     7.7562 eV  159.85 nm  f=0.0516  <S**2>=0.000
       3 -> 10         0.00185
       3 -> 11        -0.00092
       3 -> 14         0.00079
       3 -> 16        -0.00020
       3 -> 19         0.00020
       3 -> 20         0.00166
       3 -> 21         0.00071
       3 -> 25        -0.00057
       3 -> 26         0.00114
       3 -> 28         0.00101
       3 -> 32        -0.00011
       3 -> 34        -0.00058
       3 -> 36        -0.00022
       3 -> 41        -0.00021
       3 -> 46         0.00013
       3 -> 48         0.00028
       3 -> 51        -0.00024
       3 -> 54        -0.00020
       4 -> 10         0.00497
       4 -> 11         0.00631
       4 -> 14         0.00510
       4 -> 16         0.00029
       4 -> 19         0.00032
       4 -> 20         0.00440
       4 -> 21         0.00117
       4 -> 25         0.00719
       4 -> 26         0.00149
       4 -> 28        -0.00041
       4 -> 32         0.00064
       4 -> 34        -0.00019
       4 -> 39        -0.00012
       4 -> 41         0.00011
       4 -> 43         0.00016
       4 -> 46        -0.00022
       4 -> 51        -0.00015
       5 -> 12         0.00667
       5 -> 15         0.00180
       5 -> 18         0.01087
       5 -> 22        -0.00199
       5 -> 24         0.00532
       5 -> 33        -0.00016
       5 -> 35        -0.00078
       5 -> 50         0.00026
       5 -> 53        -0.00014
       6 -> 10         0.01260
       6 -> 11        -0.00295
       6 -> 14         0.00441
       6 -> 16         0.00114
       6 -> 19         0.00288
       6 -> 20         0.00426
       6 -> 21         0.00106
       6 -> 25         0.00330
       6 -> 26         0.00012
       6 -> 28        -0.00168
       6 -> 32         0.00052
       6 -> 43         0.00013
       6 -> 48        -0.00063
       6 -> 51         0.00024
       7 ->  9         0.01663
       7 -> 13         0.00986
       7 -> 17         0.00307
       7 -> 23         0.00524
       7 -> 29        -0.00043
       7 -> 31         0.00088
       7 -> 37         0.00057
       7 -> 44         0.00066
       7 -> 47        -0.00034
       7 -> 52        -0.00011
       8 -> 12         0.70576
       8 -> 15        -0.01100
       8 -> 18         0.03009
       8 -> 22         0.00466
       8 -> 24         0.00335
       8 -> 30         0.00049
       8 -> 33         0.00156
       8 -> 35         0.00201
       8 -> 40        -0.00065
       8 -> 42         0.00026
       8 -> 49        -0.00041
       8 -> 50         0.00030
       8 -> 53        -0.00022
       3 <- 10         0.00061
       3 <- 14         0.00044
       3 <- 20         0.00076
       3 <- 21         0.00051
       3 <- 26         0.00072
       3 <- 28         0.00067
       3 <- 32        -0.00020
       3 <- 34        -0.00038
       3 <- 36        -0.00017
       3 <- 41        -0.00015
       3 <- 46         0.00021
       3 <- 48         0.00023
       3 <- 51        -0.00022
       3 <- 54        -0.00018
       4 <- 10         0.00442
       4 <- 11         0.00154
       4 <- 14         0.00375
       4 <- 16        -0.00026
       4 <- 19         0.00018
       4 <- 20         0.00251
       4 <- 21         0.00041
       4 <- 25         0.00394
       4 <- 26         0.00094
       4 <- 32         0.00071
       4 <- 34        -0.00059
       4 <- 39        -0.00019
       4 <- 43         0.00011
       4 <- 46        -0.00018
       4 <- 51        -0.00014
       5 <- 12         0.00275
       5 <- 15         0.00239
       5 <- 18         0.00382
       5 <- 22        -0.00067
       5 <- 24         0.00288
       5 <- 30        -0.00013
       5 <- 33        -0.00034
       5 <- 35        -0.00072
       5 <- 50         0.00016
       5 <- 53        -0.00012
       6 <- 10         0.00320
       6 <- 11        -0.00018
       6 <- 14         0.00174
       6 <- 16         0.00034
       6 <- 19         0.00087
       6 <- 20         0.00203
       6 <- 21         0.00031
       6 <- 25         0.00165
       6 <- 26         0.00030
       6 <- 28        -0.00107
       6 <- 32         0.00046
       6 <- 34        -0.00015
       6 <- 41         0.00013
       6 <- 46        -0.00012
       6 <- 48        -0.00052
       6 <- 51         0.00027
       7 <-  9         0.00088
       7 <- 13         0.00233
       7 <- 17         0.00080
       7 <- 23         0.00267
       7 <- 29        -0.00037
       7 <- 31         0.00061
       7 <- 37         0.00045
       7 <- 44         0.00054
       7 <- 47        -0.00030
       7 <- 52        -0.00010
       8 <- 12        -0.00109
       8 <- 15        -0.00625
       8 <- 18        -0.00206
       8 <- 22         0.00077
       8 <- 24        -0.00187
       8 <- 30        -0.00043
       8 <- 33         0.00071
       8 <- 35         0.00093
       8 <- 40        -0.00062
       8 <- 42         0.00023
       8 <- 49        -0.00044
       8 <- 50         0.00022
       8 <- 53        -0.00023

 Excited State   5:      Singlet-A2     8.2589 eV  150.12 nm  f=0.0000  <S**2>=0.000
       3 -> 27        -0.00051
       3 -> 38        -0.00046
       3 -> 45        -0.00026
       4 -> 27         0.00020
       4 -> 38         0.00050
       5 ->  9        -0.00738
       5 -> 13        -0.00361
       5 -> 17         0.00646
       5 -> 23        -0.00183
       5 -> 29        -0.00010
       5 -> 31        -0.00155
       5 -> 37        -0.00103
       5 -> 44        -0.00020
       6 -> 27         0.00023
       6 -> 38         0.00029
       6 -> 45        -0.00027
       7 -> 12        -0.00040
       7 -> 15        -0.00184
       7 -> 18         0.00198
       7 -> 22        -0.00069
       7 -> 35         0.00014
       7 -> 40         0.00011
       7 -> 49        -0.00010
       8 ->  9         0.05253
       8 -> 13         0.70462
       8 -> 17         0.01805
       8 -> 23         0.01741
       8 -> 29         0.00016
       8 -> 31        -0.00149
       8 -> 37        -0.00028
       8 -> 47         0.00018
       8 -> 52        -0.00012
       3 <- 27        -0.00016
       3 <- 38        -0.00031
       3 <- 45        -0.00034
       4 <- 27        -0.00014
       5 <-  9        -0.00029
       5 <- 13        -0.00033
       5 <- 17         0.00055
       5 <- 37        -0.00022
       6 <- 38         0.00020
       7 <- 12        -0.00063
       7 <- 15        -0.00094
       7 <- 18         0.00072
       7 <- 22        -0.00103
       7 <- 24        -0.00041
       7 <- 30         0.00021
       7 <- 33         0.00040
       7 <- 35         0.00064
       7 <- 40         0.00038
       7 <- 42        -0.00011
       8 <-  9         0.00210
       8 <- 13         0.00137
       8 <- 17         0.00023
       8 <- 23        -0.00018
       8 <- 37         0.00016

 Excited State   6:      Singlet-B1     9.6053 eV  129.08 nm  f=0.0007  <S**2>=0.000
       3 ->  9        -0.03174
       3 -> 13         0.00706
       3 -> 17        -0.00761
       3 -> 23         0.00500
       3 -> 29        -0.00321
       3 -> 31        -0.00023
       3 -> 44         0.00077
       3 -> 47        -0.00014
       3 -> 52         0.00111
       4 ->  9         0.01685
       4 -> 13        -0.00286
       4 -> 17         0.00110
       4 -> 23        -0.00245
       4 -> 29        -0.00023
       4 -> 31         0.00301
       4 -> 37        -0.00025

 The electronic state is 1-A1.
 Alpha  occ. eigenvalues --  -19.14832 -10.27199  -1.10021  -0.63886  -0.51412
 Alpha  occ. eigenvalues --   -0.47098  -0.42834  -0.27864
 Alpha virt. eigenvalues --   -0.05303   0.00904   0.04017   0.04288   0.06579
 Alpha virt. eigenvalues --    0.13124   0.18296   0.18469   0.22003   0.23047
 Alpha virt. eigenvalues --    0.27146   0.33748   0.46692   0.47358   0.50980

 Mulliken charges:
               1
     1  C    0.030927
     2  H    0.099855
     3  H    0.099855
     4  O   -0.230637
 Sum of Mulliken charges =  -0.00000

 Dipole moment (field-independent basis, Debye):
    X=             -0.0000    Y=              0.0000    Z=             -2.2727  Tot=              2.2727
 Quadrupole moment (field-independent basis, Debye-Ang):
   XX=            -11.6209   YY=            -11.7640   ZZ=            -12.5513
   XY=              0.0000   XZ=              0.0000   YZ=             -0.0000

 Normal termination of Gaussian 16 at Fri Sep 17 10:52:42 2021.
