 Gaussian 16, Revision C.01,
 Gaussian 16:  ES64L-G16RevC.01  3-Jul-2019

 ----------------------------------------
 #P wB97XD/6-311+G* NoSymm #P Field=X+262
 ----------------------------------------

 -------
 TitleMe
 -------
 Symbolic Z-matrix:
 Charge =  1 Multiplicity = 1

                          Input orientation:
 ---------------------------------------------------------------------
 Center     Atomic      Atomic             Coordinates (Angstroms)
 Number     Number       Type             X           Y           Z
 ---------------------------------------------------------------------
      1          6           0        0.029500    1.339700    0.068200
      2          6           0        1.434800    1.286700    0.006400
      3          6           0        2.111800    0.051100   -0.005400
      4          6           0        1.445100   -1.137200    0.031200
      5          6           0       -0.687900    0.168200    0.110000
      6          1           0       -0.471300    2.298400    0.078100
      7          1           0        2.027300    2.196500   -0.032200
      8          1           0        1.989700   -2.076400    0.023200
      9          1           0       -1.771600    0.180400    0.158200
     10          7           0        3.586400    0.051000   -0.067500
     11          8           0        4.147100   -1.059700   -0.088100
     12          8           0        4.145000    1.163900   -0.090100
     13          6           0       -0.023600   -1.145800    0.083500
     14          1           0       -0.436700   -1.872500    0.788900
     15         35           0       -0.535900   -1.869700   -1.740800
 ---------------------------------------------------------------------

 SCF Done:  E(RwB97XD) =  -3010.58513747     A.U. after   21 cycles

 Alpha  occ. eigenvalues -- -483.33481 -62.88453 -56.68183 -56.67571 -56.67552
 Alpha  occ. eigenvalues --  -19.59031 -19.58937 -14.98066 -10.63646 -10.62522
 Alpha  occ. eigenvalues --  -10.61666 -10.60666 -10.59622 -10.55777  -9.04220
 Alpha  occ. eigenvalues --   -6.86989  -6.84993  -6.84927  -2.96870  -2.96355
 Alpha  occ. eigenvalues --   -2.96302  -2.94706  -2.94706  -1.62732  -1.45851
 Alpha  occ. eigenvalues --   -1.27632  -1.19408  -1.15642  -1.08963  -1.06691
 Alpha  occ. eigenvalues --   -0.99346  -0.97475  -0.94149  -0.92496  -0.91106
 Alpha  occ. eigenvalues --   -0.86524  -0.83642  -0.81460  -0.79900  -0.76181
 Alpha  occ. eigenvalues --   -0.72429  -0.71203  -0.70441  -0.69888  -0.69119
 Alpha  occ. eigenvalues --   -0.67652  -0.63405  -0.57792  -0.57367
 Alpha virt. eigenvalues --   -0.33048  -0.32355  -0.20357  -0.19740  -0.17369
 Alpha virt. eigenvalues --   -0.16285  -0.14657  -0.13391  -0.12320  -0.10529
 Alpha virt. eigenvalues --   -0.08461  -0.07929  -0.06677  -0.06291  -0.05570

 Mulliken charges:
               1
     1  C   -0.632334
     2  C    0.582539
     3  C   -0.746382
     4  C    0.114942
     5  C    0.100355
     6  H    0.388094
     7  H    0.317967
     8  H    0.337118
     9  H    0.458355
    10  N   -0.110679
    11  O   -0.087735
    12  O   -0.090604
    13  C   -0.412861
    14  H    0.448351
    15  Br   0.332874
 Sum of Mulliken charges =   1.00000

 Dipole moment (field-independent basis, Debye):
    X=             -9.0086    Y=             -1.5623    Z=             -0.7207  Tot=              9.1714
 Quadrupole moment (field-independent basis, Debye-Ang):
   XX=            -91.8001   YY=            -51.1858   ZZ=            -60.7329
   XY=              2.4589   XZ=              3.2093   YZ=              3.6133

 Normal termination of Gaussian 16 at Wed May  1 14:49:35 2024.
