 Gaussian 16, Revision A.03,
 Gaussian 16:  ES64L-G16RevA.03 25-Dec-2016

 --------------------------------------------------------------------
 #p B3LYP/6-311+G** #p TD=(singlets,nstates=30)IOp(6/8=3) IOp(9/40=4)
 --------------------------------------------------------------------

 -------------------------------
 Scan Step 81, Bond Length 0.905
 -------------------------------
 Symbolic Z-matrix:
 Charge =  0 Multiplicity = 1

                         Standard orientation:
 ---------------------------------------------------------------------
 Center     Atomic      Atomic             Coordinates (Angstroms)
 Number     Number       Type             X           Y           Z
 ---------------------------------------------------------------------
      1          6           0        0.000000    0.000000   -0.378581
      2          1           0        0.000000    0.937260   -0.969931
      3          1           0       -0.000000   -0.937260   -0.969931
      4          8           0        0.000000    0.000000    0.526419
 ---------------------------------------------------------------------

 SCF Done:  E(RB3LYP) =  -114.256851795     A.U. after    9 cycles

 Excitation energies and oscillator strengths:

 Excited State   1:      Singlet-A2     5.4817 eV  226.18 nm  f=0.0000  <S**2>=0.000
       3 -> 27         0.00289
       3 -> 36         0.00228
       3 -> 46         0.00127
       4 ->  9         0.00924
       4 -> 13         0.00924
       4 -> 17         0.00610
       4 -> 22        -0.00350
       4 -> 28         0.00311
       4 -> 32         0.00202
       4 -> 37         0.00362
       4 -> 43         0.00054
       4 -> 52         0.00073
       5 -> 27         0.00345
       5 -> 36        -0.00072
       5 -> 46        -0.00071
       6 -> 12        -0.00057
       6 -> 16        -0.00113
       6 -> 18        -0.00055
       6 -> 23         0.00176
       6 -> 24         0.00056
       6 -> 29        -0.00043
       6 -> 33         0.00027
       6 -> 35         0.00054
       6 -> 40        -0.00011
       6 -> 42         0.00050
       6 -> 47         0.00066
       6 -> 50        -0.00017
       6 -> 53         0.00029
       7 -> 27         0.00098
       7 -> 36        -0.00031
       7 -> 46         0.00122
       8 ->  9         0.69559
       8 -> 13         0.12306
       8 -> 17         0.02980
       8 -> 22        -0.00832
       8 -> 28         0.00533
       8 -> 32         0.00345
       8 -> 37        -0.00228
       8 -> 43        -0.00022
       8 -> 52         0.00096
       3 <- 27         0.00213
       3 <- 36         0.00196
       3 <- 46         0.00132
       4 <-  9         0.00026
       4 <- 13         0.00114
       4 <- 22         0.00026
       4 <- 28        -0.00010
       4 <- 32        -0.00109
       4 <- 37         0.00164
       4 <- 43         0.00044
       4 <- 49         0.00011
       4 <- 52         0.00018
       5 <- 27         0.00396
       5 <- 36        -0.00044
       5 <- 46        -0.00069
       6 <- 12        -0.00094
       6 <- 16         0.00212
       6 <- 18        -0.00314
       6 <- 23         0.00476
       6 <- 24        -0.00158
       6 <- 29         0.00174
       6 <- 33        -0.00094
       6 <- 35         0.00202
       6 <- 40        -0.00017
       6 <- 42         0.00090
       6 <- 47         0.00050
       6 <- 53         0.00076
       7 <- 27         0.00112
       7 <- 36        -0.00036
       7 <- 46         0.00097
       8 <-  9        -0.00938
       8 <- 13        -0.00839
       8 <- 17        -0.00416
       8 <- 22         0.00050
       8 <- 28        -0.00040
       8 <- 32         0.00274
       8 <- 37        -0.00228
       8 <- 52         0.00030
 This state for optimization and/or second-order correction.
 Total Energy, E(TD-HF/TD-DFT) =  -114.055402854
 Copying the excited state density for this state as the 1-particle RhoCI density.

 Excited State   2:      Singlet-B2     5.9712 eV  207.64 nm  f=0.0834  <S**2>=0.000
       3 -> 12         0.00092
       3 -> 16         0.00016
       3 -> 18         0.00106
       3 -> 24         0.00117
       3 -> 29        -0.00018
       3 -> 35        -0.00012
       3 -> 42         0.00013
       3 -> 50        -0.00015
       4 -> 10         0.00122
       4 -> 11        -0.00705
       4 -> 14         0.00549
       4 -> 15         0.00158
       4 -> 19         0.00372
       4 -> 20        -0.00110
       4 -> 21         0.00303
       4 -> 25         0.00114
       4 -> 26        -0.00126
       4 -> 30         0.00230
       4 -> 31         0.00011
       4 -> 34         0.00027
       4 -> 38        -0.00077
       4 -> 39         0.00016
       4 -> 41         0.00037
       4 -> 44         0.00043
       4 -> 45        -0.00057
       4 -> 48         0.00037
       5 -> 12        -0.00609
       5 -> 16         0.00103
       5 -> 18         0.00157
       5 -> 23        -0.00263
       5 -> 24         0.00407
       5 -> 29        -0.00051
       5 -> 33        -0.00100
       5 -> 35         0.00089
       5 -> 40        -0.00018
       5 -> 42         0.00045
       6 -> 27         0.00096
       6 -> 36         0.00018
       6 -> 46         0.00085
       7 -> 12         0.00226
       7 -> 16         0.00263
       7 -> 18         0.00394
       7 -> 23        -0.00229
       7 -> 24         0.00237
       7 -> 35        -0.00017
       7 -> 42        -0.00038
       7 -> 47         0.00038
       7 -> 50         0.00050
       8 -> 10         0.70623
       8 -> 11        -0.01799
       8 -> 14        -0.01726
       8 -> 15         0.01150
       8 -> 19         0.02003
       8 -> 20         0.00825
       8 -> 21        -0.00754
       8 -> 25         0.00073
       8 -> 26        -0.00062
       8 -> 31         0.00272
       8 -> 34         0.00160
       8 -> 38         0.00081
       8 -> 39        -0.00056
       8 -> 41        -0.00034
       8 -> 44        -0.00044
       8 -> 45        -0.00105
       8 -> 48         0.00032
       8 -> 54        -0.00015
       3 <- 12         0.00030
       3 <- 18         0.00061
       3 <- 23        -0.00012
       3 <- 24         0.00084
       3 <- 29        -0.00017
       3 <- 35        -0.00012
       3 <- 42         0.00011
       4 <- 10         0.00213
       4 <- 14         0.00429
       4 <- 15         0.00168
       4 <- 19         0.00094
       4 <- 20        -0.00032
       4 <- 21         0.00183
       4 <- 25         0.00166
       4 <- 26        -0.00126
       4 <- 30         0.00084
       4 <- 31        -0.00030
       4 <- 38        -0.00052
       4 <- 39         0.00016
       4 <- 41         0.00039
       4 <- 44         0.00029
       4 <- 45        -0.00050
       4 <- 48         0.00032
       5 <- 16         0.00078
       5 <- 18         0.00255
       5 <- 23        -0.00157
       5 <- 24         0.00309
       5 <- 29        -0.00041
       5 <- 33        -0.00074
       5 <- 35         0.00066
       5 <- 40        -0.00021
       5 <- 42         0.00018
       6 <- 27         0.00075
       6 <- 36         0.00014
       6 <- 46         0.00072
       7 <- 12         0.00063
       7 <- 16         0.00179
       7 <- 18         0.00146
       7 <- 23        -0.00092
       7 <- 24         0.00108
       7 <- 29         0.00066
       7 <- 42        -0.00033
       7 <- 47         0.00035
       7 <- 50         0.00055
       8 <- 10        -0.00422
       8 <- 11        -0.00191
       8 <- 14        -0.01247
       8 <- 15        -0.00180
       8 <- 19        -0.00100
       8 <- 20        -0.00029
       8 <- 21        -0.00411
       8 <- 25        -0.00310
       8 <- 26        -0.00062
       8 <- 30        -0.00052
       8 <- 31         0.00137
       8 <- 34         0.00157
       8 <- 38         0.00081
       8 <- 39        -0.00046
       8 <- 41        -0.00020
       8 <- 44        -0.00041
       8 <- 45        -0.00075
       8 <- 48         0.00030

 Excited State   3:      Singlet-B2     6.7602 eV  183.40 nm  f=0.0218  <S**2>=0.000
       3 -> 12        -0.00012
       3 -> 16         0.00068
       3 -> 23         0.00018
       3 -> 24         0.00042
       3 -> 29         0.00101
       3 -> 33         0.00014
       3 -> 35        -0.00030
       3 -> 42        -0.00031
       3 -> 47         0.00020
       3 -> 50         0.00022
       4 -> 10        -0.00534
       4 -> 14         0.00319
       4 -> 15         0.00484
       4 -> 19        -0.00341
       4 -> 20        -0.00090
       4 -> 21         0.00134
       4 -> 25         0.00100
       4 -> 26         0.00125
       4 -> 30         0.00075
       4 -> 31        -0.00212
       4 -> 34        -0.00052
       4 -> 39        -0.00074
       4 -> 41        -0.00073
       4 -> 44         0.00011
       4 -> 45         0.00061
       4 -> 48        -0.00044
       4 -> 51        -0.00022
       5 -> 12         0.00283
       5 -> 16         0.00407
       5 -> 18         0.00200
       5 -> 23        -0.00145
       5 -> 24         0.00366
       5 -> 29        -0.00117
       5 -> 33         0.00056
       5 -> 35        -0.00016
       5 -> 40        -0.00024
       5 -> 47         0.00014
       5 -> 50         0.00013
       6 -> 27        -0.00083
       6 -> 36        -0.00133
       6 -> 46        -0.00110
       7 -> 12        -0.00296
       7 -> 16         0.00021
       7 -> 18        -0.00242
       7 -> 23         0.00134
       7 -> 24        -0.00030
       7 -> 33        -0.00026
       7 -> 35         0.00124
       7 -> 40        -0.00032
       7 -> 42         0.00068
       7 -> 47        -0.00067
       7 -> 50        -0.00060
       7 -> 53         0.00016
       8 -> 10         0.01842
       8 -> 11         0.70585
       8 -> 14        -0.01692
       8 -> 15        -0.02296
       8 -> 19        -0.01805
       8 -> 20         0.01482
       8 -> 21        -0.00277
       8 -> 25         0.00034
       8 -> 26        -0.00016
       8 -> 30        -0.00173
       8 -> 31         0.00035
       8 -> 34         0.00040
       8 -> 38        -0.00014
       8 -> 39        -0.00064
       8 -> 41        -0.00132
       8 -> 44         0.00011
       8 -> 45         0.00070
       8 -> 48        -0.00066
       8 -> 51        -0.00015
       8 -> 54         0.00017
       3 <- 12         0.00024
       3 <- 16         0.00059
       3 <- 18         0.00031
       3 <- 24         0.00048
       3 <- 29         0.00066
       3 <- 33         0.00018
       3 <- 35        -0.00033
       3 <- 42        -0.00027
       3 <- 47         0.00015
       3 <- 50         0.00012
       3 <- 53        -0.00021
       4 <- 10         0.00136
       4 <- 11        -0.00032
       4 <- 14         0.00185
       4 <- 15         0.00055
       4 <- 19         0.00064
       4 <- 20         0.00025
       4 <- 21         0.00102
       4 <- 25         0.00093
       4 <- 26         0.00093
       4 <- 30         0.00084
       4 <- 31        -0.00075
       4 <- 34        -0.00104
       4 <- 39        -0.00052
       4 <- 41        -0.00074
       4 <- 44         0.00012
       4 <- 45         0.00063
       4 <- 48        -0.00030
       4 <- 51        -0.00021
       5 <- 12         0.00028
       5 <- 16         0.00062
       5 <- 18         0.00117
       5 <- 23        -0.00127
       5 <- 24         0.00174
       5 <- 29        -0.00050
       5 <- 33         0.00056
       5 <- 35         0.00016
       5 <- 40        -0.00024
       5 <- 50         0.00021
       6 <- 27        -0.00037
       6 <- 36        -0.00109
       6 <- 46        -0.00095
       7 <- 12        -0.00036
       7 <- 16        -0.00032
       7 <- 18        -0.00024
       7 <- 23         0.00026
       7 <- 29        -0.00032
       7 <- 35         0.00086
       7 <- 40        -0.00025
       7 <- 42         0.00048
       7 <- 47        -0.00058
       7 <- 50        -0.00056
       8 <- 10        -0.00180
       8 <- 11         0.00125
       8 <- 14        -0.00635
       8 <- 15        -0.00140
       8 <- 19         0.00204
       8 <- 20        -0.00193
       8 <- 21        -0.00263
       8 <- 25        -0.00037
       8 <- 26         0.00090
       8 <- 30        -0.00113
       8 <- 31         0.00112
       8 <- 34        -0.00010
       8 <- 38        -0.00031
       8 <- 39        -0.00040
       8 <- 41        -0.00111
       8 <- 45         0.00060
       8 <- 48        -0.00043
       8 <- 51        -0.00016

 Excited State   4:      Singlet-A1     6.8976 eV  179.75 nm  f=0.0437  <S**2>=0.000
       3 -> 10         0.00134
       3 -> 11        -0.00084
       3 -> 14         0.00014
       3 -> 15         0.00057
       3 -> 19         0.00130
       3 -> 20         0.00040
       3 -> 21        -0.00024
       3 -> 25         0.00022
       3 -> 30         0.00107
       3 -> 31        -0.00025
       3 -> 34        -0.00021
       3 -> 38        -0.00035
       3 -> 39        -0.00024
       3 -> 41        -0.00014
       3 -> 48        -0.00015
       3 -> 51        -0.00029
       3 -> 54         0.00021
       4 -> 12         0.00757
       4 -> 16         0.00748
       4 -> 18         0.00783
       4 -> 23         0.00057
       4 -> 24         0.00424
       4 -> 29         0.00061
       4 -> 33        -0.00016
       4 -> 35         0.00094
       4 -> 42        -0.00023
       4 -> 50        -0.00036
       4 -> 53        -0.00014
       5 -> 10         0.00559
       5 -> 11         0.01032
       5 -> 14         0.00627
       5 -> 15         0.00178
       5 -> 19         0.00099
       5 -> 20         0.00662
       5 -> 21         0.00221
       5 -> 25         0.00688
       5 -> 26        -0.00084
       5 -> 30        -0.00076
       5 -> 31        -0.00065
       5 -> 34        -0.00101
       5 -> 38        -0.00024
       5 -> 39         0.00081
       5 -> 41         0.00016
       5 -> 45        -0.00033
       5 -> 48        -0.00027
       6 ->  9         0.00786
       6 -> 13        -0.00370
       6 -> 17         0.00517
       6 -> 22         0.00420
       6 -> 28         0.00064
       6 -> 32         0.00089
       6 -> 37         0.00053
       6 -> 43         0.00051
       6 -> 49        -0.00037
       7 -> 10         0.01317
       7 -> 11        -0.00514
       7 -> 14         0.00300
       7 -> 15        -0.00115
       7 -> 19         0.00766
       7 -> 20         0.00316
       7 -> 21         0.00111
       7 -> 25         0.00202
       7 -> 26        -0.00014
       7 -> 30         0.00014
       7 -> 31         0.00062
       7 -> 34        -0.00094
       7 -> 39         0.00023
       7 -> 48        -0.00020
       7 -> 51         0.00046
       8 -> 12         0.70549
       8 -> 16         0.04145
       8 -> 18         0.00226
       8 -> 23         0.00378
       8 -> 24         0.00149
       8 -> 29         0.00316
       8 -> 33         0.00154
       8 -> 35        -0.00251
       8 -> 42         0.00138
       8 -> 47        -0.00044
       8 -> 50        -0.00012
       8 -> 53        -0.00013
       3 <- 10         0.00057
       3 <- 11        -0.00031
       3 <- 14         0.00011
       3 <- 15         0.00027
       3 <- 19         0.00071
       3 <- 20         0.00016
       3 <- 25         0.00029
       3 <- 30         0.00063
       3 <- 31        -0.00020
       3 <- 34        -0.00015
       3 <- 38        -0.00026
       3 <- 39        -0.00021
       3 <- 41        -0.00014
       3 <- 48        -0.00017
       3 <- 51        -0.00025
       3 <- 54         0.00019
       4 <- 12         0.00265
       4 <- 16         0.00205
       4 <- 18         0.00371
       4 <- 23         0.00069
       4 <- 24         0.00229
       4 <- 29         0.00019
       4 <- 33        -0.00029
       4 <- 35         0.00082
       4 <- 42        -0.00020
       4 <- 50        -0.00029
       4 <- 53        -0.00012
       5 <- 10         0.00572
       5 <- 11         0.00361
       5 <- 14         0.00467
       5 <- 15         0.00179
       5 <- 19         0.00074
       5 <- 20         0.00373
       5 <- 21         0.00072
       5 <- 25         0.00416
       5 <- 26        -0.00037
       5 <- 30        -0.00011
       5 <- 31        -0.00089
       5 <- 34        -0.00089
       5 <- 38        -0.00034
       5 <- 39         0.00068
       5 <- 44         0.00012
       5 <- 45        -0.00031
       5 <- 48        -0.00022
       6 <-  9         0.00268
       6 <- 13        -0.00145
       6 <- 17         0.00232
       6 <- 22         0.00248
       6 <- 28         0.00038
       6 <- 32         0.00067
       6 <- 37         0.00044
       6 <- 43         0.00043
       6 <- 49        -0.00032
       7 <- 10         0.00447
       7 <- 11        -0.00118
       7 <- 14         0.00144
       7 <- 15        -0.00039
       7 <- 19         0.00325
       7 <- 20         0.00182
       7 <- 21         0.00038
       7 <- 25         0.00120
       7 <- 26        -0.00023
       7 <- 30         0.00025
       7 <- 31         0.00035
       7 <- 34        -0.00066
       7 <- 38        -0.00012
       7 <- 39         0.00029
       7 <- 41         0.00011
       7 <- 51         0.00042
       8 <- 12        -0.00348
       8 <- 16         0.00619
       8 <- 18        -0.00997
       8 <- 23        -0.00061
       8 <- 24        -0.00215
       8 <- 29         0.00153
       8 <- 33         0.00114
       8 <- 35        -0.00174
       8 <- 42         0.00112
       8 <- 47        -0.00051
       8 <- 50        -0.00010
       8 <- 53        -0.00014

 Excited State   5:      Singlet-A2     7.6221 eV  162.66 nm  f=0.0000  <S**2>=0.000
       3 -> 27         0.00163
       3 -> 36         0.00135
       3 -> 46         0.00068
       4 ->  9         0.00876
       4 -> 13         0.00723
       4 -> 17        -0.00266
       4 -> 22        -0.00106
       4 -> 28         0.00025
       4 -> 32         0.00221
       4 -> 37         0.00238
       4 -> 43         0.00032
       4 -> 49        -0.00010
       4 -> 52         0.00038
       5 -> 27         0.00080
       5 -> 36        -0.00073
       5 -> 46        -0.00023
       6 -> 12         0.00024
       6 -> 16        -0.00205
       6 -> 18        -0.00054
       6 -> 23         0.00125
       6 -> 24         0.00022
       6 -> 29        -0.00036
       6 -> 35         0.00036
       6 -> 42         0.00034
       6 -> 47         0.00033
       6 -> 53         0.00017
       7 -> 27         0.00017
       7 -> 36        -0.00023
       7 -> 46         0.00072
       8 ->  9        -0.12362
       8 -> 13         0.69575
       8 -> 17         0.00356
       8 -> 22        -0.02290
       8 -> 28         0.00173
       8 -> 32         0.00153
       8 -> 37        -0.00095
       8 -> 43        -0.00015
       8 -> 49        -0.00016
       8 -> 52         0.00043
       3 <- 27         0.00096
       3 <- 36         0.00109
       3 <- 46         0.00078
       4 <-  9         0.00031
       4 <- 13         0.00021
       4 <- 17        -0.00055
       4 <- 22         0.00011
       4 <- 32        -0.00025
       4 <- 37         0.00075
       4 <- 43         0.00021
       4 <- 52         0.00012
       5 <- 27         0.00136
       5 <- 46        -0.00027
       6 <- 12         0.00047
       6 <- 16        -0.00047
       6 <- 18        -0.00072
       6 <- 23         0.00246
       6 <- 24        -0.00038
       6 <- 33        -0.00070
       6 <- 35         0.00129
       6 <- 42         0.00070
       6 <- 47         0.00014
       6 <- 53         0.00036
       7 <- 27         0.00042
       7 <- 36        -0.00027
       7 <- 46         0.00036
       8 <-  9        -0.00656
       8 <- 13        -0.00085
       8 <- 17        -0.00082
       8 <- 22         0.00053
       8 <- 28        -0.00024
       8 <- 32         0.00100
       8 <- 37        -0.00092
       8 <- 52         0.00017

 Excited State   6:      Singlet-B2     9.9617 eV  124.46 nm  f=0.2753  <S**2>=0.000

 The electronic state is 1-A1.
 Alpha  occ. eigenvalues --  -19.13804 -10.23688  -1.26165  -0.60268  -0.59798
 Alpha  occ. eigenvalues --   -0.55223  -0.51722  -0.24428
 Alpha virt. eigenvalues --    0.01279   0.01395   0.04379   0.04417   0.08745
 Alpha virt. eigenvalues --    0.14161   0.17784   0.20424   0.21893   0.23085
 Alpha virt. eigenvalues --    0.26229   0.36305   0.50048   0.52503   0.53250

 Mulliken charges:
               1
     1  C    0.198942
     2  H    0.007688
     3  H    0.007688
     4  O   -0.214318
 Sum of Mulliken charges =   0.00000

 Dipole moment (field-independent basis, Debye):
    X=              0.0000    Y=              0.0000    Z=             -0.6459  Tot=              0.6459
 Quadrupole moment (field-independent basis, Debye-Ang):
   XX=            -10.8315   YY=            -12.2913   ZZ=            -13.1797
   XY=             -0.0000   XZ=             -0.0000   YZ=              0.0000

 Normal termination of Gaussian 16 at Fri Sep 17 10:52:31 2021.
