 Gaussian 16, Revision C.01,
 Gaussian 16:  ES64L-G16RevC.01  3-Jul-2019

 ---------------------------------------
 #P wB97XD/6-311+G* NoSymm #P Field=X-38
 ---------------------------------------

 -------
 TitleMe
 -------
 Symbolic Z-matrix:
 Charge =  1 Multiplicity = 1

                          Input orientation:
 ---------------------------------------------------------------------
 Center     Atomic      Atomic             Coordinates (Angstroms)
 Number     Number       Type             X           Y           Z
 ---------------------------------------------------------------------
      1          6           0        0.519300    1.233000   -0.031900
      2          6           0        1.944500    1.269200   -0.036700
      3          6           0        2.620400    0.092800   -0.025000
      4          6           0       -0.196000    0.030100    0.001000
      5          1           0       -0.020700    2.174200   -0.043400
      6          1           0        2.482800    2.208900   -0.036100
      7          1           0       -1.277700    0.039900    0.011700
      8          7           0        4.092100    0.095900    0.036600
      9          8           0        4.639300   -1.021700    0.144600
     10          8           0        4.664900    1.198400   -0.023300
     11          6           0        0.494300   -1.167100    0.021000
     12          1           0       -0.032500   -2.114900    0.054500
     13          6           0        1.962900   -1.216500   -0.021100
     14          1           0        2.443600   -1.963100    0.615100
     15         35           0        2.173000   -1.949100   -1.906200
 ---------------------------------------------------------------------

 SCF Done:  E(RwB97XD) =  -3010.53687255     A.U. after   21 cycles

 Alpha  occ. eigenvalues -- -483.29730 -62.84747 -56.64445 -56.63870 -56.63858
 Alpha  occ. eigenvalues --  -19.43806 -19.43797 -14.83286 -10.57775 -10.56570
 Alpha  occ. eigenvalues --  -10.56149 -10.55846 -10.51835 -10.51817  -9.00548
 Alpha  occ. eigenvalues --   -6.83241  -6.81355  -6.81317  -2.93141  -2.92647
 Alpha  occ. eigenvalues --   -2.92616  -2.91108  -2.91107  -1.47509  -1.30442
 Alpha  occ. eigenvalues --   -1.21063  -1.11547  -1.10978  -1.03335  -0.98714
 Alpha  occ. eigenvalues --   -0.94064  -0.89183  -0.83244  -0.79127  -0.78544
 Alpha  occ. eigenvalues --   -0.78062  -0.76567  -0.74291  -0.73826  -0.70638
 Alpha  occ. eigenvalues --   -0.67434  -0.66287  -0.62107  -0.58394  -0.55052
 Alpha  occ. eigenvalues --   -0.54787  -0.54314  -0.53465  -0.52778
 Alpha virt. eigenvalues --   -0.28726  -0.18592  -0.14163  -0.11473  -0.08337
 Alpha virt. eigenvalues --   -0.05742  -0.05031  -0.03740  -0.03434  -0.02355
 Alpha virt. eigenvalues --   -0.01329  -0.00456  -0.00026   0.00753   0.01930

 Mulliken charges:
               1
     1  C   -0.105746
     2  C    0.179610
     3  C   -0.053432
     4  C   -0.332082
     5  H    0.335547
     6  H    0.355009
     7  H    0.312128
     8  N   -0.241137
     9  O    0.103084
    10  O    0.088057
    11  C   -0.219757
    12  H    0.347174
    13  C   -0.376224
    14  H    0.415979
    15  Br   0.191791
 Sum of Mulliken charges =   1.00000

 Dipole moment (field-independent basis, Debye):
    X=              3.8641    Y=             -0.9621    Z=             -0.8058  Tot=              4.0628
 Quadrupole moment (field-independent basis, Debye-Ang):
   XX=            -63.6509   YY=            -51.0732   ZZ=            -62.0497
   XY=             -3.2345   XZ=             -2.8634   YZ=              2.5891

 Normal termination of Gaussian 16 at Thu May  2 14:20:16 2024.
