 Gaussian 16, Revision C.01,
 Gaussian 16:  ES64L-G16RevC.01  3-Jul-2019

 ----------------------------------------
 #P wB97XD/6-311+G* NoSymm #P Field=Z+136
 ----------------------------------------

 -------
 TitleMe
 -------
 Symbolic Z-matrix:
 Charge =  1 Multiplicity = 1

                          Input orientation:
 ---------------------------------------------------------------------
 Center     Atomic      Atomic             Coordinates (Angstroms)
 Number     Number       Type             X           Y           Z
 ---------------------------------------------------------------------
      1          6           0        0.029500    1.339700    0.068200
      2          6           0        1.434800    1.286700    0.006400
      3          6           0        2.111800    0.051100   -0.005400
      4          6           0        1.445100   -1.137200    0.031200
      5          6           0       -0.687900    0.168200    0.110000
      6          1           0       -0.471300    2.298400    0.078100
      7          1           0        2.027300    2.196500   -0.032200
      8          1           0        1.989700   -2.076400    0.023200
      9          1           0       -1.771600    0.180400    0.158200
     10          7           0        3.586400    0.051000   -0.067500
     11          8           0        4.147100   -1.059700   -0.088100
     12          8           0        4.145000    1.163900   -0.090100
     13          6           0       -0.023600   -1.145800    0.083500
     14          1           0       -0.436700   -1.872500    0.788900
     15         35           0       -0.535900   -1.869700   -1.740800
 ---------------------------------------------------------------------

 SCF Done:  E(RwB97XD) =  -3010.54177011     A.U. after   18 cycles

 Alpha  occ. eigenvalues -- -483.29107 -62.84098 -56.63827 -56.63205 -56.63203
 Alpha  occ. eigenvalues --  -19.45158 -19.45097 -14.84659 -10.57118 -10.56569
 Alpha  occ. eigenvalues --  -10.56363 -10.56146 -10.55944 -10.52210  -8.99880
 Alpha  occ. eigenvalues --   -6.82654  -6.80627  -6.80614  -2.92535  -2.91998
 Alpha  occ. eigenvalues --   -2.91987  -2.90366  -2.90366  -1.48923  -1.31902
 Alpha  occ. eigenvalues --   -1.21719  -1.12953  -1.10847  -1.02561  -1.00253
 Alpha  occ. eigenvalues --   -0.94497  -0.90121  -0.84542  -0.80030  -0.79813
 Alpha  occ. eigenvalues --   -0.79230  -0.77570  -0.75349  -0.75116  -0.71085
 Alpha  occ. eigenvalues --   -0.68489  -0.66730  -0.62355  -0.58920  -0.56357
 Alpha  occ. eigenvalues --   -0.55444  -0.54910  -0.53819  -0.53069
 Alpha virt. eigenvalues --   -0.28517  -0.20601  -0.14477  -0.12614  -0.10499
 Alpha virt. eigenvalues --   -0.07863  -0.07442  -0.05651  -0.03996  -0.03584
 Alpha virt. eigenvalues --   -0.02343  -0.00986  -0.00465   0.00597   0.01226

 Mulliken charges:
               1
     1  C   -0.553424
     2  C    0.466102
     3  C   -0.698879
     4  C    0.266034
     5  C   -0.041963
     6  H    0.330958
     7  H    0.366627
     8  H    0.371119
     9  H    0.346830
    10  N   -0.110900
    11  O    0.032269
    12  O    0.029653
    13  C   -0.460919
    14  H    0.356047
    15  Br   0.300446
 Sum of Mulliken charges =   1.00000

 Dipole moment (field-independent basis, Debye):
    X=             -1.1622    Y=             -1.1111    Z=             -2.3885  Tot=              2.8792
 Quadrupole moment (field-independent basis, Debye-Ang):
   XX=            -71.7305   YY=            -51.2970   ZZ=            -60.2372
   XY=              1.6864   XZ=              0.0168   YZ=              3.6715

 Normal termination of Gaussian 16 at Wed May  1 15:25:51 2024.
