 Gaussian 16, Revision A.03,
 Gaussian 16:  ES64L-G16RevA.03 25-Dec-2016

 --------------------------------------------------------------------
 #p B3LYP/6-311+G** #p TD=(singlets,nstates=30)IOp(6/8=3) IOp(9/40=4)
 --------------------------------------------------------------------

 ------------------------------
 Scan Step 46, Bond Length 0.73
 ------------------------------
 Symbolic Z-matrix:
 Charge =  0 Multiplicity = 1

                         Standard orientation:
 ---------------------------------------------------------------------
 Center     Atomic      Atomic             Coordinates (Angstroms)
 Number     Number       Type             X           Y           Z
 ---------------------------------------------------------------------
      1          6           0        0.000000    0.000000   -0.291081
      2          1           0        0.000000    0.937260   -0.882431
      3          1           0       -0.000000   -0.937260   -0.882431
      4          8           0        0.000000   -0.000000    0.438919
 ---------------------------------------------------------------------

 SCF Done:  E(RB3LYP) =  -113.344658943     A.U. after    9 cycles

 Excitation energies and oscillator strengths:

 Excited State   1:      Singlet-B2     5.1051 eV  242.86 nm  f=0.1137  <S**2>=0.000
       3 -> 11         0.00076
       3 -> 16         0.00050
       3 -> 19         0.00080
       3 -> 23         0.00030
       3 -> 24        -0.00100
       3 -> 29        -0.00022
       3 -> 32        -0.00014
       3 -> 40         0.00016
       3 -> 43         0.00020
       3 -> 50        -0.00013
       3 -> 53         0.00014
       4 ->  9        -0.00288
       4 -> 12         0.00383
       4 -> 14         0.00391
       4 -> 15         0.00159
       4 -> 18         0.00319
       4 -> 20         0.00190
       4 -> 21         0.00190
       4 -> 25         0.00151
       4 -> 26        -0.00080
       4 -> 30         0.00036
       4 -> 31         0.00166
       4 -> 34         0.00039
       4 -> 38        -0.00073
       4 -> 41        -0.00051
       4 -> 44        -0.00034
       4 -> 46        -0.00075
       4 -> 49         0.00024
       5 -> 28         0.00161
       5 -> 35         0.00068
       5 -> 45         0.00084
       6 -> 11        -0.00647
       6 -> 16         0.00265
       6 -> 19         0.00056
       6 -> 23        -0.00142
       6 -> 24        -0.00461
       6 -> 29        -0.00085
       6 -> 32        -0.00096
       6 -> 36         0.00051
       6 -> 43         0.00027
       6 -> 47         0.00021
       7 -> 11         0.00599
       7 -> 16         0.00388
       7 -> 19         0.00283
       7 -> 23        -0.00050
       7 -> 24        -0.00145
       7 -> 29         0.00075
       7 -> 32         0.00056
       7 -> 36        -0.00062
       7 -> 43        -0.00042
       7 -> 47         0.00045
       7 -> 50         0.00045
       7 -> 53        -0.00011
       8 ->  9         0.70568
       8 -> 12        -0.00024
       8 -> 14         0.04064
       8 -> 15        -0.00832
       8 -> 18        -0.02165
       8 -> 20         0.00584
       8 -> 21         0.00968
       8 -> 25        -0.00028
       8 -> 30         0.00211
       8 -> 31        -0.00282
       8 -> 34        -0.00117
       8 -> 38        -0.00110
       8 -> 39         0.00025
       8 -> 41        -0.00071
       8 -> 44         0.00024
       8 -> 46         0.00087
       8 -> 49        -0.00031
       8 -> 51         0.00011
       3 <- 11         0.00029
       3 <- 16         0.00017
       3 <- 19         0.00052
       3 <- 23         0.00022
       3 <- 24        -0.00075
       3 <- 29        -0.00019
       3 <- 32        -0.00015
       3 <- 40         0.00016
       3 <- 43         0.00018
       3 <- 53         0.00014
       4 <-  9        -0.00148
       4 <- 12        -0.00024
       4 <- 14         0.00320
       4 <- 15         0.00187
       4 <- 18         0.00073
       4 <- 20         0.00100
       4 <- 21         0.00139
       4 <- 25         0.00139
       4 <- 26        -0.00129
       4 <- 31         0.00067
       4 <- 34         0.00027
       4 <- 38        -0.00046
       4 <- 39         0.00016
       4 <- 41        -0.00043
       4 <- 44        -0.00027
       4 <- 46        -0.00067
       4 <- 49         0.00018
       5 <- 28         0.00131
       5 <- 35         0.00055
       5 <- 45         0.00071
       6 <- 11        -0.00080
       6 <- 16         0.00255
       6 <- 19         0.00130
       6 <- 23        -0.00055
       6 <- 24        -0.00346
       6 <- 29        -0.00051
       6 <- 32        -0.00080
       6 <- 36         0.00047
       6 <- 43         0.00015
       6 <- 47         0.00018
       7 <- 11         0.00120
       7 <- 16         0.00199
       7 <- 19         0.00033
       7 <- 23        -0.00018
       7 <- 24        -0.00045
       7 <- 29         0.00132
       7 <- 32         0.00041
       7 <- 36        -0.00033
       7 <- 43        -0.00030
       7 <- 47         0.00047
       7 <- 50         0.00052
       8 <-  9        -0.00698
       8 <- 12        -0.00441
       8 <- 14         0.01797
       8 <- 15         0.00507
       8 <- 18         0.00147
       8 <- 20         0.00023
       8 <- 21         0.00491
       8 <- 25         0.00315
       8 <- 26         0.00034
       8 <- 30         0.00142
       8 <- 31        -0.00172
       8 <- 34        -0.00145
       8 <- 38        -0.00106
       8 <- 39         0.00020
       8 <- 41        -0.00056
       8 <- 46         0.00072
       8 <- 49        -0.00024
 This state for optimization and/or second-order correction.
 Total Energy, E(TD-HF/TD-DFT) =  -113.157048784
 Copying the excited state density for this state as the 1-particle RhoCI density.

 Excited State   2:      Singlet-A2     5.3582 eV  231.39 nm  f=0.0000  <S**2>=0.000
       3 -> 28        -0.00201
       3 -> 35        -0.00134
       3 -> 45        -0.00054
       4 -> 10        -0.00135
       4 -> 13        -0.00253
       4 -> 17        -0.00442
       4 -> 22         0.00226
       4 -> 27        -0.00237
       4 -> 33        -0.00026
       4 -> 37        -0.00188
       4 -> 42        -0.00023
       4 -> 48        -0.00012
       4 -> 52        -0.00036
       5 -> 11         0.00035
       5 -> 19         0.00037
       5 -> 23        -0.00111
       5 -> 24        -0.00016
       5 -> 29        -0.00010
       5 -> 32        -0.00014
       5 -> 36        -0.00037
       5 -> 43        -0.00041
       5 -> 47        -0.00043
       5 -> 50         0.00019
       5 -> 53        -0.00012
       6 -> 28        -0.00362
       6 -> 35         0.00053
       6 -> 45         0.00017
       7 -> 28         0.00045
       7 -> 35        -0.00017
       7 -> 45        -0.00058
       8 -> 10         0.70495
       8 -> 13         0.04718
       8 -> 17         0.02916
       8 -> 22         0.00155
       8 -> 27         0.00243
       8 -> 33         0.00316
       8 -> 37        -0.00213
       8 -> 42         0.00011
       8 -> 48         0.00012
       8 -> 52         0.00046
       3 <- 28        -0.00161
       3 <- 35        -0.00116
       3 <- 45        -0.00053
       4 <- 10        -0.00017
       4 <- 13        -0.00088
       4 <- 17        -0.00065
       4 <- 27        -0.00028
       4 <- 33         0.00083
       4 <- 37        -0.00099
       4 <- 42        -0.00029
       5 <- 11         0.00070
       5 <- 16        -0.00069
       5 <- 19         0.00187
       5 <- 23        -0.00189
       5 <- 24        -0.00143
       5 <- 29        -0.00138
       5 <- 32         0.00033
       5 <- 36        -0.00095
       5 <- 43        -0.00050
       5 <- 47        -0.00040
       5 <- 53        -0.00033
       6 <- 28        -0.00361
       6 <- 35         0.00065
       6 <- 45         0.00017
       7 <- 28         0.00056
       7 <- 35        -0.00018
       7 <- 45        -0.00055
       8 <- 10        -0.00015
       8 <- 13        -0.00661
       8 <- 17        -0.00545
       8 <- 22         0.00021
       8 <- 27        -0.00043
       8 <- 33         0.00303
       8 <- 37        -0.00173
       8 <- 42         0.00013
       8 <- 52         0.00015

 Excited State   3:      Singlet-B2     5.9813 eV  207.29 nm  f=0.0305  <S**2>=0.000
       3 -> 11        -0.00012
       3 -> 16         0.00051
       3 -> 19        -0.00023
       3 -> 23         0.00027
       3 -> 24        -0.00040
       3 -> 29         0.00054
       3 -> 32         0.00013
       3 -> 36        -0.00024
       3 -> 43        -0.00024
       3 -> 47         0.00017
       3 -> 50         0.00014
       3 -> 53        -0.00015
       4 ->  9         0.00252
       4 -> 12         0.00035
       4 -> 14         0.00158
       4 -> 15         0.00300
       4 -> 18        -0.00183
       4 -> 20        -0.00032
       4 -> 21         0.00135
       4 -> 25         0.00082
       4 -> 26         0.00079
       4 -> 30         0.00187
       4 -> 31        -0.00136
       4 -> 34        -0.00014
       4 -> 38         0.00016
       4 -> 39        -0.00095
       4 -> 41         0.00037
       4 -> 46         0.00058
       4 -> 49        -0.00017
       4 -> 51        -0.00011
       5 -> 28        -0.00098
       5 -> 35        -0.00128
       5 -> 45        -0.00078
       6 -> 11         0.00051
       6 -> 16         0.00468
       6 -> 19        -0.00091
       6 -> 23        -0.00037
       6 -> 24        -0.00306
       6 -> 29        -0.00176
       6 -> 32         0.00048
       6 -> 36         0.00043
       6 -> 40        -0.00039
       6 -> 43         0.00024
       6 -> 47        -0.00014
       6 -> 50        -0.00014
       7 -> 11        -0.00270
       7 -> 16        -0.00284
       7 -> 19        -0.00190
       7 -> 23         0.00103
       7 -> 24         0.00234
       7 -> 29         0.00037
       7 -> 32        -0.00034
       7 -> 36         0.00081
       7 -> 40        -0.00018
       7 -> 43         0.00034
       7 -> 47        -0.00064
       7 -> 50        -0.00041
       7 -> 53         0.00017
       8 ->  9        -0.00049
       8 -> 12         0.70587
       8 -> 14         0.02680
       8 -> 15         0.02670
       8 -> 18         0.01078
       8 -> 20         0.01581
       8 -> 21         0.00488
       8 -> 25        -0.00077
       8 -> 26         0.00146
       8 -> 30         0.00232
       8 -> 31        -0.00013
       8 -> 34        -0.00030
       8 -> 38        -0.00015
       8 -> 39         0.00133
       8 -> 41        -0.00089
       8 -> 46        -0.00057
       8 -> 49         0.00020
       8 -> 54        -0.00015
       3 <- 11         0.00011
       3 <- 16         0.00051
       3 <- 23         0.00011
       3 <- 24        -0.00045
       3 <- 29         0.00035
       3 <- 32         0.00014
       3 <- 36        -0.00025
       3 <- 43        -0.00021
       3 <- 47         0.00013
       3 <- 53        -0.00022
       4 <-  9        -0.00128
       4 <- 14         0.00145
       4 <- 15         0.00070
       4 <- 18         0.00063
       4 <- 20        -0.00043
       4 <- 21         0.00092
       4 <- 25         0.00096
       4 <- 26         0.00078
       4 <- 30         0.00134
       4 <- 31        -0.00048
       4 <- 34        -0.00066
       4 <- 38         0.00011
       4 <- 39        -0.00072
       4 <- 41         0.00038
       4 <- 46         0.00056
       4 <- 51        -0.00010
       5 <- 28        -0.00056
       5 <- 35        -0.00109
       5 <- 45        -0.00068
       6 <- 11        -0.00021
       6 <- 16         0.00107
       6 <- 19         0.00066
       6 <- 23        -0.00084
       6 <- 24        -0.00203
       6 <- 29        -0.00113
       6 <- 32         0.00061
       6 <- 36         0.00052
       6 <- 40        -0.00036
       6 <- 43         0.00015
       6 <- 47        -0.00012
       7 <- 11        -0.00027
       7 <- 16        -0.00104
       7 <- 19        -0.00046
       7 <- 23         0.00045
       7 <- 24         0.00111
       7 <- 29        -0.00023
       7 <- 32        -0.00020
       7 <- 36         0.00043
       7 <- 40        -0.00013
       7 <- 43         0.00024
       7 <- 47        -0.00056
       7 <- 50        -0.00046
       8 <-  9        -0.00406
       8 <- 12         0.00130
       8 <- 14         0.00982
       8 <- 15         0.00349
       8 <- 18        -0.00126
       8 <- 20        -0.00277
       8 <- 21         0.00325
       8 <- 25         0.00064
       8 <- 26        -0.00025
       8 <- 30         0.00206
       8 <- 31        -0.00027
       8 <- 39         0.00111
       8 <- 41        -0.00078
       8 <- 46        -0.00046

 Excited State   4:      Singlet-A1     6.1334 eV  202.15 nm  f=0.0176  <S**2>=0.000
       3 ->  9         0.00121
       3 -> 12        -0.00057
       3 -> 14         0.00015
       3 -> 15        -0.00065
       3 -> 18        -0.00141
       3 -> 21         0.00064
       3 -> 25        -0.00048
       3 -> 26        -0.00023
       3 -> 30        -0.00091
       3 -> 31        -0.00043
       3 -> 34         0.00033
       3 -> 38         0.00031
       3 -> 39         0.00032
       3 -> 46        -0.00011
       3 -> 51         0.00021
       3 -> 54        -0.00016
       4 -> 11        -0.00651
       4 -> 16        -0.00721
       4 -> 19        -0.00472
       4 -> 23        -0.00205
       4 -> 24         0.00339
       4 -> 29        -0.00058
       4 -> 32         0.00011
       4 -> 36        -0.00104
       4 -> 43         0.00028
       4 -> 50         0.00026
       5 -> 10        -0.00445
       5 -> 13         0.00294
       5 -> 17        -0.00394
       5 -> 22        -0.00340
       5 -> 27        -0.00102
       5 -> 33        -0.00093
       5 -> 37        -0.00058
       5 -> 42        -0.00022
       5 -> 48         0.00029
       6 ->  9         0.00944
       6 -> 12         0.00902
       6 -> 14        -0.00528
       6 -> 15        -0.00420
       6 -> 18        -0.00499
       6 -> 20         0.00625
       6 -> 21         0.00015
       6 -> 25        -0.00645
       6 -> 26         0.00116
       6 -> 30         0.00053
       6 -> 31         0.00136
       6 -> 34         0.00171
       6 -> 38         0.00098
       6 -> 39        -0.00124
       6 -> 44         0.00051
       6 -> 49         0.00045
       7 ->  9         0.00967
       7 -> 12        -0.00974
       7 -> 14         0.00046
       7 -> 15         0.00289
       7 -> 18        -0.00815
       7 -> 20        -0.00183
       7 -> 25         0.00053
       7 -> 26        -0.00182
       7 -> 31        -0.00148
       7 -> 34         0.00056
       7 -> 38        -0.00016
       7 -> 39         0.00022
       7 -> 44        -0.00018
       7 -> 49         0.00010
       7 -> 51        -0.00022
       8 -> 11         0.70499
       8 -> 16         0.04923
       8 -> 19        -0.01608
       8 -> 23         0.00032
       8 -> 24        -0.00441
       8 -> 29         0.00415
       8 -> 32         0.00179
       8 -> 36        -0.00303
       8 -> 40         0.00028
       8 -> 43         0.00175
       8 -> 47        -0.00073
       8 -> 50         0.00012
       3 <-  9         0.00061
       3 <- 12        -0.00027
       3 <- 14         0.00010
       3 <- 15        -0.00039
       3 <- 18        -0.00087
       3 <- 21         0.00038
       3 <- 25        -0.00040
       3 <- 26        -0.00019
       3 <- 30        -0.00062
       3 <- 31        -0.00025
       3 <- 34         0.00030
       3 <- 38         0.00023
       3 <- 39         0.00027
       3 <- 46        -0.00016
       3 <- 51         0.00018
       3 <- 54        -0.00015
       4 <- 11        -0.00249
       4 <- 16        -0.00277
       4 <- 19        -0.00261
       4 <- 23        -0.00153
       4 <- 24         0.00181
       4 <- 29        -0.00028
       4 <- 32         0.00020
       4 <- 36        -0.00087
       4 <- 43         0.00025
       4 <- 50         0.00023
       5 <- 10        -0.00222
       5 <- 13         0.00153
       5 <- 17        -0.00223
       5 <- 22        -0.00226
       5 <- 27        -0.00072
       5 <- 33        -0.00075
       5 <- 37        -0.00048
       5 <- 42        -0.00019
       5 <- 48         0.00026
       6 <-  9         0.00767
       6 <- 12         0.00409
       6 <- 14        -0.00411
       6 <- 15        -0.00349
       6 <- 18        -0.00280
       6 <- 20         0.00353
       6 <- 21         0.00096
       6 <- 25        -0.00422
       6 <- 26         0.00065
       6 <- 31         0.00114
       6 <- 34         0.00123
       6 <- 38         0.00102
       6 <- 39        -0.00098
       6 <- 44         0.00052
       6 <- 46         0.00010
       6 <- 49         0.00037
       7 <-  9         0.00218
       7 <- 12        -0.00362
       7 <- 14         0.00088
       7 <- 15         0.00195
       7 <- 18        -0.00381
       7 <- 20        -0.00079
       7 <- 25         0.00037
       7 <- 26        -0.00111
       7 <- 30         0.00012
       7 <- 31        -0.00116
       7 <- 34         0.00038
       7 <- 38        -0.00014
       7 <- 44        -0.00019
       7 <- 46         0.00011
       7 <- 51        -0.00020
       8 <- 11        -0.00726
       8 <- 16         0.00483
       8 <- 19        -0.01431
       8 <- 23        -0.00329
       8 <- 24        -0.00071
       8 <- 29         0.00272
       8 <- 32         0.00156
       8 <- 36        -0.00235
       8 <- 43         0.00140
       8 <- 47        -0.00075
       8 <- 50         0.00012

 Excited State   5:      Singlet-A2     7.8963 eV  157.02 nm  f=0.0000  <S**2>=0.000
       3 -> 28        -0.00266
       3 -> 35        -0.00189
       3 -> 45        -0.00072
       4 -> 10        -0.00220
       4 -> 13        -0.00921
       4 -> 17        -0.00100
       4 -> 22         0.00346
       4 -> 27        -0.00078
       4 -> 33        -0.00152
       4 -> 37        -0.00301
       4 -> 42        -0.00016
       4 -> 52        -0.00045
       5 -> 16         0.00101
       5 -> 19         0.00041
       5 -> 23        -0.00166
       5 -> 24        -0.00047
       5 -> 29         0.00019
       5 -> 32        -0.00012
       5 -> 36        -0.00050
       5 -> 43        -0.00063
       5 -> 47        -0.00053
       5 -> 50         0.00012
       5 -> 53        -0.00018
       6 -> 28        -0.00287
       6 -> 35         0.00081
       7 -> 28         0.00034
       7 -> 35        -0.00026
       7 -> 45        -0.00076
       8 -> 10        -0.04879
       8 -> 13         0.70379
       8 -> 17         0.04179
       8 -> 22        -0.02240
       8 -> 27         0.00304
       8 -> 33         0.00266
       8 -> 37        -0.00268
       8 -> 52         0.00049
       3 <- 28        -0.00180
       3 <- 35        -0.00156
       3 <- 45        -0.00079
       4 <- 10        -0.00033
       4 <- 13        -0.00083
       4 <- 17        -0.00019
       4 <- 22         0.00010
       4 <- 27        -0.00014
       4 <- 33         0.00064
       4 <- 37        -0.00112
       4 <- 42        -0.00035
       4 <- 52        -0.00014
       5 <- 11        -0.00029
       5 <- 16         0.00033
       5 <- 19         0.00085
       5 <- 23        -0.00243
       5 <- 24        -0.00162
       5 <- 29        -0.00042
       5 <- 32         0.00071
       5 <- 36        -0.00142
       5 <- 43        -0.00083
       5 <- 47        -0.00025
       5 <- 53        -0.00039
       6 <- 28        -0.00322
       6 <- 35         0.00046
       6 <- 45         0.00018
       7 <- 28         0.00039
       7 <- 45        -0.00047
       8 <- 10        -0.00650
       8 <- 13        -0.00421
       8 <- 17        -0.00324
       8 <- 22         0.00074
       8 <- 27        -0.00045
       8 <- 33         0.00282
       8 <- 37        -0.00174
       8 <- 42         0.00016
       8 <- 52         0.00020

 The electronic state is 1-A1.
 Alpha  occ. eigenvalues --  -19.16523 -10.27238  -1.32887  -0.73017  -0.69558
 Alpha  occ. eigenvalues --   -0.57756  -0.54916  -0.21336
 Alpha virt. eigenvalues --    0.01077   0.02796   0.04437   0.04601   0.13226
 Alpha virt. eigenvalues --    0.14432   0.17674   0.19119   0.21682   0.24241
 Alpha virt. eigenvalues --    0.25975   0.36555   0.50647   0.56273   0.56768

 Mulliken charges:
               1
     1  C    0.338093
     2  H   -0.072763
     3  H   -0.072763
     4  O   -0.192567
 Sum of Mulliken charges =  -0.00000

 Dipole moment (field-independent basis, Debye):
    X=              0.0000    Y=              0.0000    Z=              0.7199  Tot=              0.7199
 Quadrupole moment (field-independent basis, Debye-Ang):
   XX=            -10.3562   YY=            -13.2320   ZZ=            -13.5485
   XY=             -0.0000   XZ=             -0.0000   YZ=              0.0000

 Normal termination of Gaussian 16 at Fri Sep 17 10:52:23 2021.
