 Gaussian 16, Revision C.01,
 Gaussian 16:  ES64L-G16RevC.01  3-Jul-2019

 ----------------------------------------
 #P wB97XD/6-311+G* NoSymm #P Field=Z+252
 ----------------------------------------

 -------
 TitleMe
 -------
 Symbolic Z-matrix:
 Charge =  1 Multiplicity = 1

                          Input orientation:
 ---------------------------------------------------------------------
 Center     Atomic      Atomic             Coordinates (Angstroms)
 Number     Number       Type             X           Y           Z
 ---------------------------------------------------------------------
      1          6           0        0.029500    1.339700    0.068200
      2          6           0        1.434800    1.286700    0.006400
      3          6           0        2.111800    0.051100   -0.005400
      4          6           0        1.445100   -1.137200    0.031200
      5          6           0       -0.687900    0.168200    0.110000
      6          1           0       -0.471300    2.298400    0.078100
      7          1           0        2.027300    2.196500   -0.032200
      8          1           0        1.989700   -2.076400    0.023200
      9          1           0       -1.771600    0.180400    0.158200
     10          7           0        3.586400    0.051000   -0.067500
     11          8           0        4.147100   -1.059700   -0.088100
     12          8           0        4.145000    1.163900   -0.090100
     13          6           0       -0.023600   -1.145800    0.083500
     14          1           0       -0.436700   -1.872500    0.788900
     15         35           0       -0.535900   -1.869700   -1.740800
 ---------------------------------------------------------------------

 SCF Done:  E(RwB97XD) =  -3010.55736298     A.U. after   19 cycles

 Alpha  occ. eigenvalues -- -483.27640 -62.82595 -56.62357 -56.61689 -56.61689
 Alpha  occ. eigenvalues --  -19.44804 -19.44751 -14.84293 -10.56434 -10.56023
 Alpha  occ. eigenvalues --  -10.55930 -10.55683 -10.55532 -10.51860  -8.98351
 Alpha  occ. eigenvalues --   -6.81209  -6.79045  -6.79038  -2.91069  -2.90496
 Alpha  occ. eigenvalues --   -2.90489  -2.88760  -2.88760  -1.48555  -1.31538
 Alpha  occ. eigenvalues --   -1.21216  -1.12346  -1.10339  -1.01278  -0.99843
 Alpha  occ. eigenvalues --   -0.93930  -0.89684  -0.84171  -0.79683  -0.79365
 Alpha  occ. eigenvalues --   -0.78829  -0.77225  -0.74969  -0.74706  -0.70399
 Alpha  occ. eigenvalues --   -0.68026  -0.66314  -0.61474  -0.58324  -0.55964
 Alpha  occ. eigenvalues --   -0.55077  -0.54526  -0.51909  -0.51337
 Alpha virt. eigenvalues --   -0.27886  -0.20308  -0.15520  -0.13660  -0.11514
 Alpha virt. eigenvalues --   -0.10630  -0.10290  -0.06897  -0.06361  -0.05486
 Alpha virt. eigenvalues --   -0.03169  -0.01630  -0.00641   0.00254   0.00557

 Mulliken charges:
               1
     1  C   -0.537639
     2  C    0.416393
     3  C   -0.684552
     4  C    0.249261
     5  C   -0.083904
     6  H    0.330878
     7  H    0.368922
     8  H    0.370688
     9  H    0.345517
    10  N   -0.115668
    11  O    0.035498
    12  O    0.033319
    13  C   -0.450958
    14  H    0.314700
    15  Br   0.407545
 Sum of Mulliken charges =   1.00000

 Dipole moment (field-independent basis, Debye):
    X=             -1.4519    Y=             -1.5819    Z=             -4.4550  Tot=              4.9455
 Quadrupole moment (field-independent basis, Debye-Ang):
   XX=            -72.1687   YY=            -50.7165   ZZ=            -58.4420
   XY=              2.0386   XZ=             -0.9403   YZ=              5.3953

 Normal termination of Gaussian 16 at Wed May  1 15:30:41 2024.
