 Gaussian 16, Revision A.03,
 Gaussian 16:  ES64L-G16RevA.03 25-Dec-2016

 --------------------------------------------------------------------
 #p B3LYP/6-311+G** #p TD=(singlets,nstates=30)IOp(6/8=3) IOp(9/40=4)
 --------------------------------------------------------------------

 --------------------------------
 Scan Step 217, Bond Length 1.585
 --------------------------------
 Symbolic Z-matrix:
 Charge =  0 Multiplicity = 1

                         Standard orientation:
 ---------------------------------------------------------------------
 Center     Atomic      Atomic             Coordinates (Angstroms)
 Number     Number       Type             X           Y           Z
 ---------------------------------------------------------------------
      1          6           0        0.000000    0.000000   -0.718581
      2          1           0        0.000000    0.937260   -1.309931
      3          1           0       -0.000000   -0.937260   -1.309931
      4          8           0        0.000000   -0.000000    0.866419
 ---------------------------------------------------------------------

 SCF Done:  E(RB3LYP) =  -114.433456743     A.U. after   10 cycles

 Excitation energies and oscillator strengths:

 Excited State   1:      Singlet-A2     2.0399 eV  607.78 nm  f=0.0000  <S**2>=0.000
       3 -> 27         0.00122
       3 -> 38         0.00091
       3 -> 46         0.00328
       4 -> 27         0.00073
       4 -> 38        -0.00014
       4 -> 46        -0.00131
       5 ->  9         0.00790
       5 -> 13         0.00089
       5 -> 18         0.00297
       5 -> 23         0.00161
       5 -> 28         0.00260
       5 -> 31        -0.00020
       5 -> 37         0.00144
       5 -> 44         0.00034
       5 -> 52         0.00035
       6 -> 27        -0.00062
       6 -> 38        -0.00078
       6 -> 46         0.00136
       7 -> 12        -0.00089
       7 -> 16         0.00470
       7 -> 19        -0.00400
       7 -> 22        -0.00075
       7 -> 25         0.00097
       7 -> 30        -0.00152
       7 -> 33         0.00037
       7 -> 49         0.00013
       7 -> 50         0.00017
       7 -> 53         0.00045
       8 ->  9         0.70842
       8 -> 13        -0.01379
       8 -> 18         0.02167
       8 -> 23        -0.00364
       8 -> 28         0.01105
       8 -> 31         0.00099
       8 -> 37         0.00064
       8 -> 48        -0.00031
       8 -> 52         0.00194
       3 <- 27         0.00057
       3 <- 38         0.00064
       3 <- 46         0.00333
       4 <- 27         0.00126
       4 <- 38         0.00023
       4 <- 46        -0.00106
       5 <-  9        -0.00027
       5 <- 13        -0.00053
       5 <- 18        -0.00070
       5 <- 23         0.00028
       5 <- 28        -0.00049
       5 <- 31         0.00036
       5 <- 37         0.00080
       5 <- 44         0.00011
       6 <- 38        -0.00064
       6 <- 46         0.00105
       7 <- 12         0.00058
       7 <- 16        -0.00999
       7 <- 19         0.00362
       7 <- 22         0.00696
       7 <- 25         0.00052
       7 <- 30         0.00523
       7 <- 33        -0.00054
       7 <- 36         0.00087
       7 <- 40         0.00051
       7 <- 42         0.00014
       7 <- 49        -0.00038
       7 <- 50         0.00010
       7 <- 53         0.00146
       8 <-  9        -0.05037
       8 <- 13         0.00054
       8 <- 18        -0.00652
       8 <- 23         0.00019
       8 <- 28        -0.00234
       8 <- 31        -0.00062
       8 <- 37        -0.00048
       8 <- 52         0.00051
 This state for optimization and/or second-order correction.
 Total Energy, E(TD-HF/TD-DFT) =  -114.358490085
 Copying the excited state density for this state as the 1-particle RhoCI density.

 Excited State   2:      Singlet-A1     5.2274 eV  237.18 nm  f=0.0795  <S**2>=0.000
       3 -> 10        -0.01452
       3 -> 11        -0.01484
       3 -> 14         0.01209
       3 -> 15         0.00788
       3 -> 17        -0.00355
       3 -> 20        -0.00383
       3 -> 21        -0.00138
       3 -> 24         0.00269
       3 -> 26         0.00423
       3 -> 29        -0.00109
       3 -> 32         0.00277
       3 -> 34         0.00266
       3 -> 35        -0.00089
       3 -> 39         0.00086
       3 -> 43         0.00043
       3 -> 47         0.00224
       3 -> 51         0.00098
       3 -> 54         0.00021
       4 -> 10        -0.01336
       4 -> 11         0.01197
       4 -> 14         0.00672
       4 -> 15        -0.00969
       4 -> 17         0.00317
       4 -> 20         0.00562
       4 -> 21         0.00041
       4 -> 24        -0.00522
       4 -> 26         0.00518
       4 -> 29         0.00112
       4 -> 32        -0.00131
       4 -> 34        -0.00186
       4 -> 35         0.00035
       4 -> 39        -0.00011
       4 -> 41         0.00013
       4 -> 43        -0.00042
       4 -> 45        -0.00075
       4 -> 47        -0.00131
       4 -> 51        -0.00031
       5 -> 12         0.01813
       5 -> 16         0.01217
       5 -> 19         0.00151
       5 -> 22         0.00725
       5 -> 25         0.00864
       5 -> 30        -0.00040
       5 -> 33        -0.00312
       5 -> 36         0.00272
       5 -> 40         0.00151
       5 -> 42         0.00063
       5 -> 49         0.00049
       5 -> 50        -0.00066
       5 -> 53        -0.00015
       6 -> 10         0.12602
       6 -> 11         0.11113
       6 -> 14        -0.09622
       6 -> 15        -0.07550
       6 -> 17        -0.02030
       6 -> 20        -0.01254
       6 -> 21         0.01474
       6 -> 24        -0.01482
       6 -> 26        -0.00725
       6 -> 29        -0.00827
       6 -> 32         0.00066
       6 -> 34         0.00152
       6 -> 35        -0.00086
       6 -> 39         0.00079
       6 -> 41        -0.00045
       6 -> 43         0.00079
       6 -> 45         0.00076
       6 -> 47         0.00133
       6 -> 51         0.00083
       6 -> 54        -0.00063
       7 ->  9         0.68459
       7 -> 13         0.00200
       7 -> 18        -0.01920
       7 -> 23         0.00049
       7 -> 28        -0.00170
       7 -> 31        -0.00295
       7 -> 37         0.00082
       7 -> 44        -0.00106
       7 -> 48         0.00043
       7 -> 52         0.00104
       8 -> 12        -0.00700
       8 -> 16         0.07378
       8 -> 19        -0.02469
       8 -> 22        -0.02815
       8 -> 25         0.00077
       8 -> 30        -0.01240
       8 -> 33         0.00247
       8 -> 36        -0.00301
       8 -> 40        -0.00143
       8 -> 42        -0.00035
       8 -> 49         0.00061
       8 -> 50         0.00024
       8 -> 53        -0.00073
       3 <- 10        -0.00959
       3 <- 11        -0.01030
       3 <- 14         0.00887
       3 <- 15         0.00530
       3 <- 17        -0.00181
       3 <- 20        -0.00271
       3 <- 21        -0.00165
       3 <- 24         0.00171
       3 <- 26         0.00256
       3 <- 29        -0.00065
       3 <- 32         0.00254
       3 <- 34         0.00173
       3 <- 35        -0.00077
       3 <- 39         0.00075
       3 <- 43         0.00052
       3 <- 45         0.00012
       3 <- 47         0.00236
       3 <- 51         0.00095
       3 <- 54         0.00030
       4 <- 10        -0.00660
       4 <- 11         0.00744
       4 <- 14         0.00336
       4 <- 15        -0.00573
       4 <- 17         0.00157
       4 <- 20         0.00459
       4 <- 21         0.00031
       4 <- 24        -0.00352
       4 <- 26         0.00404
       4 <- 29         0.00029
       4 <- 32        -0.00163
       4 <- 34        -0.00163
       4 <- 35         0.00057
       4 <- 39        -0.00017
       4 <- 43        -0.00042
       4 <- 45        -0.00089
       4 <- 47        -0.00090
       4 <- 51        -0.00015
       5 <- 12         0.00788
       5 <- 16         0.00608
       5 <- 19         0.00103
       5 <- 22         0.00442
       5 <- 25         0.00579
       5 <- 30        -0.00014
       5 <- 33        -0.00240
       5 <- 36         0.00221
       5 <- 40         0.00131
       5 <- 42         0.00052
       5 <- 49         0.00043
       5 <- 50        -0.00060
       5 <- 53        -0.00014
       6 <- 10         0.03639
       6 <- 11         0.03431
       6 <- 14        -0.03691
       6 <- 15        -0.03148
       6 <- 17        -0.00962
       6 <- 20        -0.00763
       6 <- 21         0.00842
       6 <- 24        -0.00892
       6 <- 26        -0.00425
       6 <- 29        -0.00561
       6 <- 32         0.00113
       6 <- 34         0.00185
       6 <- 35        -0.00094
       6 <- 39         0.00087
       6 <- 41        -0.00031
       6 <- 43         0.00068
       6 <- 45         0.00072
       6 <- 47         0.00085
       6 <- 51         0.00066
       6 <- 54        -0.00053
       7 <-  9        -0.12282
       7 <- 13         0.00785
       7 <- 18        -0.01402
       7 <- 23         0.00381
       7 <- 28        -0.00407
       7 <- 31        -0.00133
       7 <- 37         0.00027
       7 <- 44        -0.00061
       7 <- 48        -0.00015
       7 <- 52         0.00091
       8 <- 12        -0.00152
       8 <- 16         0.02506
       8 <- 19        -0.01024
       8 <- 22        -0.01494
       8 <- 25         0.00020
       8 <- 30        -0.00885
       8 <- 33         0.00182
       8 <- 36        -0.00228
       8 <- 40        -0.00115
       8 <- 42        -0.00028
       8 <- 49         0.00041
       8 <- 50         0.00020
       8 <- 53        -0.00066

 Excited State   3:      Singlet-B1     5.5192 eV  224.64 nm  f=0.0014  <S**2>=0.000
       3 ->  9        -0.02933
       3 -> 13         0.00184
       3 -> 18        -0.00480
       3 -> 23         0.00188
       3 -> 28        -0.00101
       3 -> 31        -0.00048
       3 -> 44         0.00025
       3 -> 48         0.00094
       3 -> 52         0.00098
       4 ->  9         0.01384
       4 -> 13        -0.00268
       4 -> 18         0.00029
       4 -> 23        -0.00243
       4 -> 28         0.00023
       4 -> 31        -0.00157
       4 -> 37        -0.00042
       4 -> 44         0.00012
       4 -> 48        -0.00114
       4 -> 52        -0.00061
       5 -> 27        -0.00020
       5 -> 38         0.00201
       5 -> 46         0.00099
       6 ->  9         0.70547
       6 -> 13        -0.02064
       6 -> 18         0.01712
       6 -> 23        -0.01107
       6 -> 28         0.00442
       6 -> 31         0.00336
       6 -> 37        -0.00222
       6 -> 44        -0.00292
       6 -> 48         0.00423
       6 -> 52         0.00148
       7 -> 10         0.03041
       7 -> 11         0.02396
       7 -> 14        -0.01602
       7 -> 15        -0.00749
       7 -> 17        -0.00928
       7 -> 20         0.00283
       7 -> 24        -0.00047
       7 -> 26        -0.00141
       7 -> 29        -0.00397
       7 -> 32        -0.00068
       7 -> 34         0.00063
       7 -> 35         0.00182
       7 -> 39         0.00013
       7 -> 41        -0.00062
       7 -> 43         0.00057
       7 -> 45        -0.00065
       7 -> 47         0.00430
       7 -> 51         0.00117
       7 -> 54         0.00044
       8 -> 27         0.00059
       8 -> 38         0.00013
       8 -> 46         0.00545
       3 <-  9        -0.00980
       3 <- 13        -0.00058
       3 <- 18        -0.00295
       3 <- 23        -0.00052
       3 <- 28        -0.00065
       3 <- 31        -0.00065
       3 <- 44        -0.00026
       3 <- 48         0.00112
       3 <- 52         0.00078
       4 <-  9         0.00672
       4 <- 13        -0.00023
       4 <- 18         0.00199
       4 <- 23        -0.00057
       4 <- 28         0.00169
       4 <- 31        -0.00107
       4 <- 37        -0.00021
       4 <- 44         0.00011
       4 <- 48        -0.00098
       4 <- 52        -0.00035
       5 <- 27        -0.00074
       5 <- 38         0.00162
       5 <- 46         0.00088
       6 <-  9        -0.02485
       6 <- 13         0.00171
       6 <- 18        -0.00322
       6 <- 23        -0.00028
       6 <- 28        -0.00332
       6 <- 31         0.00133
       6 <- 37        -0.00194
       6 <- 44        -0.00160
       6 <- 48         0.00378
       6 <- 52         0.00051
       7 <- 10        -0.01343
       7 <- 11        -0.01250
       7 <- 14         0.01407
       7 <- 15         0.01362
       7 <- 17         0.00133
       7 <- 20         0.00515
       7 <- 21        -0.00448
       7 <- 24         0.00454
       7 <- 26         0.00181
       7 <- 29         0.00103
       7 <- 32        -0.00025
       7 <- 34         0.00049
       7 <- 35         0.00277
       7 <- 39         0.00043
       7 <- 41        -0.00026
       7 <- 43         0.00044
       7 <- 45        -0.00076
       7 <- 47         0.00391
       7 <- 51         0.00102
       7 <- 54         0.00108
       8 <- 27         0.00104
       8 <- 38         0.00031
       8 <- 46         0.00505

 Excited State   4:      Singlet-B2     6.2229 eV  199.24 nm  f=0.0155  <S**2>=0.000
       3 -> 12        -0.00159
       3 -> 16         0.00188
       3 -> 19        -0.00439
       3 -> 22         0.00043
       3 -> 25         0.00028
       3 -> 30        -0.00330
       3 -> 33        -0.00031
       3 -> 36         0.00213
       3 -> 40         0.00172
       3 -> 42         0.00020
       3 -> 49        -0.00250
       3 -> 50         0.00022
       3 -> 53         0.00028
       4 -> 12         0.00045
       4 -> 16        -0.00280
       4 -> 22         0.00325
       4 -> 25        -0.00218
       4 -> 30         0.00143
       4 -> 33        -0.00047
       4 -> 36         0.00052
       4 -> 40        -0.00051
       4 -> 49         0.00038
       4 -> 50        -0.00011
       5 -> 10         0.00485
       5 -> 11         0.00587
       5 -> 14        -0.01335
       5 -> 15         0.00261
       5 -> 17         0.00094
       5 -> 20         0.00199
       5 -> 21         0.00644
       5 -> 24         0.00189
       5 -> 26        -0.00194
       5 -> 29        -0.00199
       5 -> 32        -0.00137
       5 -> 34        -0.00129
       5 -> 35        -0.00055
       5 -> 39        -0.00099
       5 -> 41         0.00077
       5 -> 45         0.00022
       5 -> 47        -0.00084
       5 -> 51         0.00050
       5 -> 54        -0.00024
       6 -> 12         0.00335
       6 -> 16        -0.00153
       6 -> 19         0.00279
       6 -> 25        -0.00079
       6 -> 30        -0.00056
       6 -> 33         0.00039
       6 -> 36        -0.00218
       6 -> 40        -0.00173
       6 -> 42        -0.00033
       6 -> 49         0.00155
       6 -> 53        -0.00033
       7 -> 27        -0.00064
       7 -> 38         0.00091
       7 -> 46         0.00357
       8 -> 10         0.62840
       8 -> 11         0.29182
       8 -> 14        -0.12226
       8 -> 15        -0.06947
       8 -> 17        -0.01213
       8 -> 20        -0.00246
       8 -> 21         0.00621
       8 -> 24        -0.00622
       8 -> 26        -0.00559
       8 -> 29        -0.00939
       8 -> 32        -0.00264
       8 -> 34        -0.00176
       8 -> 35        -0.00055
       8 -> 39        -0.00057
       8 -> 41         0.00033
       8 -> 43        -0.00050
       8 -> 45         0.00196
       8 -> 47        -0.00408
       8 -> 51         0.00216
       8 -> 54        -0.00149
       3 <- 12        -0.00056
       3 <- 16         0.00047
       3 <- 19        -0.00207
       3 <- 22         0.00087
       3 <- 25         0.00031
       3 <- 30        -0.00131
       3 <- 33        -0.00027
       3 <- 36         0.00167
       3 <- 40         0.00154
       3 <- 42         0.00017
       3 <- 49        -0.00257
       3 <- 50         0.00019
       3 <- 53         0.00081
       4 <- 12        -0.00027
       4 <- 16        -0.00240
       4 <- 19        -0.00032
       4 <- 22         0.00279
       4 <- 25        -0.00134
       4 <- 30         0.00122
       4 <- 33        -0.00055
       4 <- 36         0.00072
       4 <- 40        -0.00016
       4 <- 42         0.00013
       4 <- 49         0.00029
       5 <- 10         0.00065
       5 <- 11        -0.00159
       5 <- 14        -0.00215
       5 <- 15         0.00386
       5 <- 17         0.00023
       5 <- 20         0.00047
       5 <- 21         0.00211
       5 <- 24         0.00267
       5 <- 26        -0.00063
       5 <- 29        -0.00051
       5 <- 32         0.00015
       5 <- 34        -0.00035
       5 <- 39        -0.00032
       5 <- 41         0.00077
       5 <- 43         0.00012
       5 <- 45         0.00051
       5 <- 47        -0.00066
       5 <- 51         0.00027
       6 <- 12         0.00011
       6 <- 16         0.00502
       6 <- 19        -0.00225
       6 <- 22        -0.00362
       6 <- 25        -0.00043
       6 <- 30        -0.00435
       6 <- 33         0.00065
       6 <- 36        -0.00217
       6 <- 40        -0.00172
       6 <- 42        -0.00039
       6 <- 49         0.00164
       6 <- 53        -0.00096
       7 <- 27        -0.00063
       7 <- 38         0.00071
       7 <- 46         0.00293
       8 <- 10        -0.01183
       8 <- 11        -0.01164
       8 <- 14         0.01134
       8 <- 15         0.00529
       8 <- 17         0.00027
       8 <- 20        -0.00225
       8 <- 21        -0.00236
       8 <- 24         0.00117
       8 <- 26         0.00202
       8 <- 29        -0.00085
       8 <- 32         0.00216
       8 <- 34         0.00141
       8 <- 35        -0.00013
       8 <- 39         0.00142
       8 <- 41         0.00059
       8 <- 43         0.00022
       8 <- 45         0.00250
       8 <- 47        -0.00294
       8 <- 51         0.00130
       8 <- 54        -0.00036

 Excited State   5:      Singlet-B2     7.0603 eV  175.61 nm  f=0.0024  <S**2>=0.000
       3 -> 12         0.00145
       3 -> 16         0.00152
       3 -> 19        -0.00090
       3 -> 22        -0.00037
       3 -> 25         0.00095
       3 -> 30        -0.00238
       3 -> 36         0.00050
       3 -> 40         0.00047
       3 -> 49        -0.00072
       4 -> 12        -0.00131
       4 -> 16         0.00060
       4 -> 19         0.00095
       4 -> 22        -0.00087
       4 -> 25         0.00067
       4 -> 30         0.00126
       4 -> 33        -0.00016
       4 -> 36         0.00035
       4 -> 50        -0.00011
       5 -> 10         0.00754
       5 -> 11        -0.00284
       5 -> 14         0.00209
       5 -> 15         0.00558
       5 -> 17         0.00096
       5 -> 20         0.00179
       5 -> 21         0.00018
       5 -> 24        -0.00036
       5 -> 26        -0.00036
       5 -> 29        -0.00046
       5 -> 32        -0.00151
       5 -> 34         0.00030
       5 -> 35        -0.00036
       5 -> 39        -0.00058
       5 -> 41        -0.00014
       5 -> 43        -0.00032
       5 -> 45         0.00032
       5 -> 47        -0.00038
       5 -> 51         0.00027
       6 -> 12        -0.00156
       6 -> 16        -0.00034
       6 -> 19         0.00039
       6 -> 22        -0.00097
       6 -> 25         0.00013
       6 -> 30        -0.00080
       6 -> 36        -0.00011
       6 -> 40        -0.00059
       6 -> 42        -0.00020
       6 -> 49         0.00124
       6 -> 50        -0.00011
       6 -> 53        -0.00011
       7 -> 27        -0.00062
       7 -> 38        -0.00021
       7 -> 46         0.00176
       8 -> 10        -0.30191
       8 -> 11         0.63803
       8 -> 14        -0.00844
       8 -> 15        -0.03671
       8 -> 17        -0.00549
       8 -> 20         0.01510
       8 -> 21         0.00392
       8 -> 24        -0.00350
       8 -> 26         0.00149
       8 -> 29        -0.00294
       8 -> 32        -0.00054
       8 -> 34        -0.00078

 The electronic state is 1-A1.
 Alpha  occ. eigenvalues --  -19.17150 -10.32508  -0.93249  -0.69495  -0.48838
 Alpha  occ. eigenvalues --   -0.41783  -0.33288  -0.28977
 Alpha virt. eigenvalues --   -0.14281  -0.01092   0.01417   0.04095   0.06131
 Alpha virt. eigenvalues --    0.09293   0.13237   0.14558   0.18942   0.21434
 Alpha virt. eigenvalues --    0.23957   0.30142   0.39208   0.41284   0.50950

 Mulliken charges:
               1
     1  C   -0.057999
     2  H    0.177612
     3  H    0.177612
     4  O   -0.297225
 Sum of Mulliken charges =  -0.00000

 Dipole moment (field-independent basis, Debye):
    X=             -0.0000    Y=             -0.0000    Z=             -3.7213  Tot=              3.7213
 Quadrupole moment (field-independent basis, Debye-Ang):
   XX=            -12.7038   YY=            -11.8770   ZZ=            -11.3577
   XY=              0.0000   XZ=              0.0000   YZ=             -0.0000

 Normal termination of Gaussian 16 at Fri Sep 17 10:53:00 2021.
