 Gaussian 16, Revision A.03,
 Gaussian 16:  ES64L-G16RevA.03 25-Dec-2016

 --------------------------------------------------------------------
 #p B3LYP/6-311+G** #p TD=(singlets,nstates=30)IOp(6/8=3) IOp(9/40=4)
 --------------------------------------------------------------------

 --------------------------------
 Scan Step 113, Bond Length 1.065
 --------------------------------
 Symbolic Z-matrix:
 Charge =  0 Multiplicity = 1

                         Standard orientation:
 ---------------------------------------------------------------------
 Center     Atomic      Atomic             Coordinates (Angstroms)
 Number     Number       Type             X           Y           Z
 ---------------------------------------------------------------------
      1          6           0        0.000000    0.000000   -0.458581
      2          1           0        0.000000    0.937260   -1.049931
      3          1           0       -0.000000   -0.937260   -1.049931
      4          8           0        0.000000   -0.000000    0.606419
 ---------------------------------------------------------------------

 SCF Done:  E(RB3LYP) =  -114.501690362     A.U. after    9 cycles

 Excitation energies and oscillator strengths:

 Excited State   1:      Singlet-A2     4.7591 eV  260.52 nm  f=0.0000  <S**2>=0.000
       3 -> 27         0.00290
       3 -> 38         0.00243
       3 -> 45         0.00196
       4 -> 27         0.00266
       4 -> 38        -0.00072
       4 -> 45        -0.00106
       5 ->  9         0.01935
       5 -> 13        -0.00705
       5 -> 17         0.00616
       5 -> 23        -0.00204
       5 -> 28         0.00389
       5 -> 31         0.00291
       5 -> 36         0.00398
       5 -> 44         0.00068
       5 -> 47         0.00012
       5 -> 52         0.00086
       6 -> 27         0.00041
       6 -> 38        -0.00065
       6 -> 45         0.00166
       7 -> 12        -0.00062
       7 -> 16         0.00195
       7 -> 18        -0.00193
       7 -> 22         0.00142
       7 -> 24         0.00123
       7 -> 29        -0.00074
       7 -> 34         0.00037
       7 -> 35         0.00047
       7 -> 40        -0.00039
       7 -> 42        -0.00012
       7 -> 48         0.00058
       7 -> 51        -0.00021
       7 -> 53         0.00041
       8 ->  9         0.70227
       8 -> 13        -0.07690
       8 -> 17         0.02512
       8 -> 23        -0.01184
       8 -> 28         0.00723
       8 -> 31         0.00344
       8 -> 36        -0.00119
       8 -> 44        -0.00023
       8 -> 47        -0.00018
       8 -> 52         0.00139
       3 <- 27         0.00200
       3 <- 38         0.00206
       3 <- 45         0.00204
       4 <- 27         0.00344
       4 <- 38        -0.00017
       4 <- 45        -0.00096
       5 <- 13        -0.00094
       5 <- 17        -0.00069
       5 <- 23         0.00052
       5 <- 28        -0.00045
       5 <- 31        -0.00109
       5 <- 36         0.00180
       5 <- 44         0.00037
       5 <- 47         0.00017
       5 <- 52         0.00022
       6 <- 27         0.00083
       6 <- 38        -0.00062
       6 <- 45         0.00129
       7 <- 12        -0.00096
       7 <- 16        -0.00540
       7 <- 18        -0.00128
       7 <- 22         0.00658
       7 <- 24        -0.00076
       7 <- 29         0.00245
       7 <- 34        -0.00129
       7 <- 35         0.00252
       7 <- 40        -0.00091
       7 <- 42        -0.00055
       7 <- 48         0.00041
       7 <- 53         0.00109
       8 <-  9        -0.01750
       8 <- 13         0.00518
       8 <- 17        -0.00386
       8 <- 23         0.00073
       8 <- 28        -0.00055
       8 <- 31         0.00169
       8 <- 36        -0.00199
       8 <- 52         0.00041
 This state for optimization and/or second-order correction.
 Total Energy, E(TD-HF/TD-DFT) =  -114.326796673
 Copying the excited state density for this state as the 1-particle RhoCI density.

 Excited State   2:      Singlet-B2     6.5678 eV  188.78 nm  f=0.0541  <S**2>=0.000
       3 -> 12         0.00120
       3 -> 16         0.00058
       3 -> 18         0.00111
       3 -> 22        -0.00023
       3 -> 24         0.00129
       3 -> 29        -0.00012
       3 -> 35        -0.00025
       4 -> 12        -0.00448
       4 -> 16         0.00098
       4 -> 18         0.00236
       4 -> 22        -0.00329
       4 -> 24         0.00381
       4 -> 34        -0.00079
       4 -> 35         0.00082
       4 -> 40        -0.00049
       4 -> 42        -0.00013
       5 -> 10        -0.00270
       5 -> 11        -0.00916
       5 -> 14         0.00669
       5 -> 15        -0.00127
       5 -> 19         0.00288
       5 -> 20         0.00013
       5 -> 21         0.00457
       5 -> 25         0.00028
       5 -> 26         0.00232
       5 -> 30         0.00224
       5 -> 32        -0.00025
       5 -> 33        -0.00075
       5 -> 37        -0.00041
       5 -> 39        -0.00029
       5 -> 43        -0.00055
       5 -> 46        -0.00053
       5 -> 49         0.00019
       6 -> 12         0.00126
       6 -> 16         0.00091
       6 -> 18         0.00367
       6 -> 22        -0.00271
       6 -> 24         0.00171
       6 -> 29        -0.00030
       6 -> 34        -0.00013
       6 -> 40         0.00016
       6 -> 42         0.00032
       6 -> 48         0.00037
       6 -> 51         0.00050
       7 -> 27         0.00049
       7 -> 38        -0.00026
       7 -> 45         0.00070
       8 -> 10         0.70497
       8 -> 11        -0.04886
       8 -> 14         0.00082
       8 -> 15        -0.00953
       8 -> 19         0.01740
       8 -> 20         0.01058
       8 -> 21        -0.00507
       8 -> 25         0.00077
       8 -> 26         0.00133
       8 -> 30         0.00054
       8 -> 32         0.00103
       8 -> 33         0.00217
       8 -> 37         0.00054
       8 -> 39         0.00053
       8 -> 41        -0.00016
       8 -> 43         0.00069
       8 -> 46        -0.00087
       8 -> 54         0.00017
       3 <- 12         0.00034
       3 <- 16         0.00049
       3 <- 18         0.00048
       3 <- 22        -0.00032
       3 <- 24         0.00085
       3 <- 29        -0.00011
       3 <- 35        -0.00024
       4 <- 12         0.00053
       4 <- 16         0.00142
       4 <- 18         0.00250
       4 <- 22        -0.00200
       4 <- 24         0.00272
       4 <- 34        -0.00054
       4 <- 35         0.00055
       4 <- 40        -0.00026
       4 <- 42         0.00011
       4 <- 48        -0.00010
       5 <- 10         0.00244
       5 <- 11        -0.00018
       5 <- 14         0.00491
       5 <- 15        -0.00119
       5 <- 19         0.00069
       5 <- 20         0.00031
       5 <- 21         0.00226
       5 <- 25         0.00168
       5 <- 26         0.00150
       5 <- 30         0.00066
       5 <- 32        -0.00046
       5 <- 33        -0.00072
       5 <- 37        -0.00039
       5 <- 39        -0.00017
       5 <- 41         0.00010
       5 <- 43        -0.00038
       5 <- 46        -0.00046
       5 <- 49         0.00018
       6 <- 12         0.00037
       6 <- 16        -0.00027
       6 <- 18         0.00169
       6 <- 22        -0.00096
       6 <- 24         0.00066
       6 <- 29         0.00040
       6 <- 34        -0.00020
       6 <- 35         0.00026
       6 <- 40         0.00014
       6 <- 42         0.00030
       6 <- 48         0.00032
       6 <- 51         0.00051
       6 <- 53         0.00011
       7 <- 27         0.00038
       7 <- 38        -0.00020
       7 <- 45         0.00060
       8 <- 10        -0.00275
       8 <- 11        -0.00081
       8 <- 14        -0.00843
       8 <- 15         0.00022
       8 <- 19        -0.00050
       8 <- 20        -0.00039
       8 <- 21        -0.00308
       8 <- 25        -0.00283
       8 <- 30        -0.00069
       8 <- 33         0.00157
       8 <- 37         0.00055
       8 <- 39         0.00043
       8 <- 43         0.00053
       8 <- 46        -0.00059
       8 <- 50        -0.00014

 Excited State   3:      Singlet-B2     7.3615 eV  168.42 nm  f=0.0212  <S**2>=0.000
       3 -> 12        -0.00021
       3 -> 16        -0.00066
       3 -> 18         0.00054
       3 -> 22         0.00025
       3 -> 24         0.00031
       3 -> 29         0.00152
       3 -> 34         0.00014
       3 -> 35        -0.00034
       3 -> 40         0.00027
       3 -> 42         0.00022
       3 -> 48         0.00026
       3 -> 51         0.00027
       4 -> 12         0.00311
       4 -> 16        -0.00106
       4 -> 18         0.00328
       4 -> 22        -0.00155
       4 -> 24         0.00332
       4 -> 29        -0.00107
       4 -> 34         0.00054
       4 -> 35        -0.00040
       4 -> 42         0.00018
       4 -> 48         0.00019
       4 -> 51         0.00015
       5 -> 10        -0.00743
       5 -> 11         0.00032
       5 -> 14         0.00574
       5 -> 15        -0.00652
       5 -> 19        -0.00380
       5 -> 20        -0.00281
       5 -> 21         0.00101
       5 -> 25         0.00140
       5 -> 26        -0.00065
       5 -> 30         0.00136
       5 -> 32        -0.00120
       5 -> 33        -0.00125
       5 -> 39         0.00047
       5 -> 41        -0.00085
       5 -> 46         0.00077
       5 -> 49        -0.00030
       5 -> 50         0.00036
       6 -> 12        -0.00324
       6 -> 16        -0.00182
       6 -> 18        -0.00154
       6 -> 22         0.00147
       6 -> 29         0.00053
       6 -> 34        -0.00043
       6 -> 35         0.00144
       6 -> 40        -0.00083
       6 -> 42        -0.00038
       6 -> 48        -0.00079
       6 -> 51        -0.00068
       6 -> 53         0.00012
       7 -> 27        -0.00047
       7 -> 38        -0.00116
       7 -> 45        -0.00143
       8 -> 10         0.04949
       8 -> 11         0.70443
       8 -> 14        -0.01188
       8 -> 15         0.01693
       8 -> 19        -0.02402
       8 -> 20         0.01219
       8 -> 21        -0.00208
       8 -> 25         0.00048
       8 -> 26        -0.00142
       8 -> 30        -0.00084
       8 -> 32        -0.00030
       8 -> 33         0.00027
       8 -> 41        -0.00140
       8 -> 43         0.00011
       8 -> 46         0.00123
       8 -> 49        -0.00062
       8 -> 50         0.00059
       8 -> 54        -0.00017
       3 <- 12         0.00032
       3 <- 16        -0.00029
       3 <- 18         0.00075
       3 <- 24         0.00041
       3 <- 29         0.00093
       3 <- 34         0.00021
       3 <- 35        -0.00040
       3 <- 40         0.00024
       3 <- 42         0.00019
       3 <- 48         0.00021
       3 <- 51         0.00017
       3 <- 53        -0.00023
       4 <- 12         0.00035
       4 <- 16         0.00045
       4 <- 18         0.00096
       4 <- 22        -0.00120
       4 <- 24         0.00138
       4 <- 29        -0.00045
       4 <- 34         0.00050
       4 <- 42         0.00021
       4 <- 48         0.00012
       4 <- 51         0.00021
       5 <- 10         0.00131
       5 <- 11        -0.00079
       5 <- 14         0.00221
       5 <- 15        -0.00045
       5 <- 19         0.00076
       5 <- 20        -0.00013
       5 <- 21         0.00089
       5 <- 25         0.00112
       5 <- 26        -0.00059
       5 <- 30         0.00077
       5 <- 32         0.00029
       5 <- 33        -0.00121
       5 <- 37         0.00017
       5 <- 39         0.00023
       5 <- 41        -0.00088
       5 <- 46         0.00072
       5 <- 49        -0.00017
       5 <- 50         0.00033
       6 <- 12        -0.00035
       6 <- 16        -0.00022
       6 <- 18        -0.00021
       6 <- 22         0.00046
       6 <- 29         0.00017
       6 <- 34        -0.00023
       6 <- 35         0.00107
       6 <- 40        -0.00061
       6 <- 42        -0.00026
       6 <- 48        -0.00066
       6 <- 51        -0.00057
       7 <- 38        -0.00093
       7 <- 45        -0.00121
       8 <- 10        -0.00086
       8 <- 11         0.00036
       8 <- 14        -0.00445
       8 <- 15         0.00065
       8 <- 19         0.00291
       8 <- 20        -0.00142
       8 <- 21        -0.00215
       8 <- 26        -0.00152
       8 <- 30        -0.00050
       8 <- 32         0.00130
       8 <- 33         0.00015
       8 <- 37        -0.00016
       8 <- 39        -0.00023
       8 <- 41        -0.00119
       8 <- 46         0.00099
       8 <- 49        -0.00036
       8 <- 50         0.00047

 Excited State   4:      Singlet-A1     7.5098 eV  165.10 nm  f=0.0540  <S**2>=0.000
       3 -> 10         0.00163
       3 -> 11        -0.00101
       3 -> 14         0.00052
       3 -> 15        -0.00037
       3 -> 19         0.00090
       3 -> 20         0.00107
       3 -> 21         0.00031
       3 -> 25        -0.00021
       3 -> 26         0.00074
       3 -> 30         0.00120
       3 -> 32        -0.00032
       3 -> 33        -0.00032
       3 -> 37        -0.00030
       3 -> 39         0.00013
       3 -> 41        -0.00021
       3 -> 50         0.00038
       3 -> 54        -0.00021
       4 -> 10         0.00535
       4 -> 11         0.00795
       4 -> 14         0.00575
       4 -> 15        -0.00021
       4 -> 19         0.00050
       4 -> 20         0.00547
       4 -> 21         0.00228
       4 -> 25         0.00716
       4 -> 26         0.00097
       4 -> 30        -0.00049
       4 -> 32         0.00014
       4 -> 33        -0.00077
       4 -> 39        -0.00031
       4 -> 41         0.00019
       4 -> 43         0.00014
       4 -> 46        -0.00025
       4 -> 49        -0.00020
       5 -> 12         0.00754
       5 -> 16        -0.00038
       5 -> 18         0.01159
       5 -> 22        -0.00111
       5 -> 24         0.00506
       5 -> 29         0.00017
       5 -> 34        -0.00015
       5 -> 35         0.00083
       5 -> 42         0.00011
       5 -> 51        -0.00033
       5 -> 53        -0.00015
       6 -> 10         0.01328
       6 -> 11        -0.00403
       6 -> 14         0.00418
       6 -> 15         0.00151
       6 -> 19         0.00483
       6 -> 20         0.00444
       6 -> 21         0.00177
       6 -> 25         0.00253
       6 -> 26         0.00053
       6 -> 30        -0.00101
       6 -> 32         0.00058
       6 -> 33        -0.00052
       6 -> 43         0.00012
       6 -> 49        -0.00031
       6 -> 50        -0.00053
       7 ->  9         0.01196
       7 -> 13         0.00759
       7 -> 17         0.00441
       7 -> 23         0.00507
       7 -> 31         0.00085
       7 -> 36         0.00055
       7 -> 44         0.00064
       7 -> 47        -0.00036
       7 -> 52        -0.00011
       8 -> 12         0.70571
       8 -> 16        -0.02169
       8 -> 18         0.02756
       8 -> 22         0.00521
       8 -> 24         0.00225
       8 -> 29         0.00153
       8 -> 34         0.00151
       8 -> 35        -0.00215
       8 -> 40        -0.00067
       8 -> 42        -0.00069
       8 -> 48        -0.00036
       8 -> 51        -0.00029
       8 -> 53        -0.00020
       3 <- 10         0.00059
       3 <- 11        -0.00022
       3 <- 14         0.00031
       3 <- 19         0.00039
       3 <- 20         0.00049
       3 <- 21         0.00030
       3 <- 25         0.00010
       3 <- 26         0.00041
       3 <- 30         0.00076
       3 <- 32        -0.00028
       3 <- 33        -0.00016
       3 <- 37        -0.00024
       3 <- 39         0.00012
       3 <- 41        -0.00017
       3 <- 46         0.00017
       3 <- 50         0.00033
       3 <- 54        -0.00019
       4 <- 10         0.00494
       4 <- 11         0.00223
       4 <- 14         0.00421
       4 <- 15        -0.00064
       4 <- 19         0.00036
       4 <- 20         0.00310
       4 <- 21         0.00093
       4 <- 25         0.00405
       4 <- 26         0.00058
       4 <- 32        -0.00010
       4 <- 33        -0.00103
       4 <- 37        -0.00010
       4 <- 39        -0.00034
       4 <- 46        -0.00023
       4 <- 49        -0.00017
       5 <- 12         0.00277
       5 <- 16         0.00144
       5 <- 18         0.00427
       5 <- 22        -0.00022
       5 <- 24         0.00274
       5 <- 34        -0.00033
       5 <- 35         0.00076
       5 <- 40         0.00010
       5 <- 51        -0.00023
       5 <- 53        -0.00014
       6 <- 10         0.00375
       6 <- 11        -0.00053
       6 <- 14         0.00177
       6 <- 15         0.00049
       6 <- 19         0.00173
       6 <- 20         0.00225
       6 <- 21         0.00068
       6 <- 25         0.00134
       6 <- 26         0.00056
       6 <- 30        -0.00056
       6 <- 32         0.00036
       6 <- 33        -0.00048
       6 <- 39        -0.00014
       6 <- 41         0.00015
       6 <- 49        -0.00020
       6 <- 50        -0.00051
       7 <-  9         0.00196
       7 <- 13         0.00217
       7 <- 17         0.00151
       7 <- 23         0.00270
       7 <- 28        -0.00010
       7 <- 31         0.00061
       7 <- 36         0.00044
       7 <- 44         0.00054
       7 <- 47        -0.00031
       8 <- 12        -0.00182
       8 <- 16        -0.00789
       8 <- 18        -0.00336
       8 <- 22         0.00071
       8 <- 24        -0.00226
       8 <- 29         0.00024
       8 <- 34         0.00085
       8 <- 35        -0.00122
       8 <- 40        -0.00061
       8 <- 42        -0.00058
       8 <- 48        -0.00042
       8 <- 51        -0.00024
       8 <- 53        -0.00021

 Excited State   5:      Singlet-A2     8.0198 eV  154.60 nm  f=0.0000  <S**2>=0.000
       3 -> 27        -0.00074
       3 -> 38        -0.00066
       3 -> 45        -0.00039
       4 -> 38         0.00057
       4 -> 45         0.00012
       5 ->  9        -0.00945
       5 -> 13        -0.00043
       5 -> 17         0.00563
       5 -> 23        -0.00114
       5 -> 31        -0.00183
       5 -> 36        -0.00134
       5 -> 44        -0.00024
       5 -> 52        -0.00016
       6 -> 27         0.00019
       6 -> 38         0.00028
       6 -> 45        -0.00040
       7 -> 12        -0.00052
       7 -> 16        -0.00182
       7 -> 18         0.00176
       7 -> 22        -0.00074
       7 -> 24        -0.00019
       7 -> 29         0.00015
       7 -> 35        -0.00019
       7 -> 40         0.00014
       7 -> 48        -0.00014
       8 ->  9         0.07695
       8 -> 13         0.70245
       8 -> 17         0.01254
       8 -> 23         0.01920
       8 -> 28        -0.00017
       8 -> 31        -0.00129
       8 -> 47         0.00018
       8 -> 52        -0.00022
       3 <- 27        -0.00032
       3 <- 38        -0.00049
       3 <- 45        -0.00048
       4 <- 27        -0.00032
       4 <- 45         0.00011
       5 <-  9        -0.00025
       5 <- 13        -0.00025
       5 <- 17         0.00062
       5 <- 36        -0.00032
       6 <- 38         0.00022
       6 <- 45        -0.00012
       7 <- 12        -0.00066
       7 <- 16        -0.00074
       7 <- 18         0.00064
       7 <- 22        -0.00138
       7 <- 24        -0.00031
       7 <- 29         0.00017
       7 <- 34         0.00048
       7 <- 35        -0.00080
       7 <- 40         0.00037
       7 <- 42         0.00028
       7 <- 53        -0.00017
       8 <-  9         0.00336
       8 <- 13         0.00137
       8 <- 17         0.00024
       8 <- 23        -0.00029
       8 <- 31        -0.00020
       8 <- 36         0.00029

 Excited State   6:      Singlet-B2    10.2695 eV  120.73 nm  f=0.1984  <S**2>=0.000
       3 -> 12        -0.00034
       3 -> 16        -0.00196
       3 -> 18         0.00062
       3 -> 22         0.00144
       3 -> 24         0.00097
       3 -> 29         0.00139
       3 -> 34        -0.00074

 The electronic state is 1-A1.
 Alpha  occ. eigenvalues --  -19.14256 -10.25608  -1.15818  -0.62364  -0.53692
 Alpha  occ. eigenvalues --   -0.48597  -0.46589  -0.26868
 Alpha virt. eigenvalues --   -0.02641   0.01158   0.04179   0.04345   0.06961
 Alpha virt. eigenvalues --    0.13552   0.18205   0.19423   0.22014   0.22689
 Alpha virt. eigenvalues --    0.27119   0.35185   0.48524   0.49406   0.51228

 Mulliken charges:
               1
     1  C    0.070913
     2  H    0.069810
     3  H    0.069810
     4  O   -0.210534
 Sum of Mulliken charges =  -0.00000

 Dipole moment (field-independent basis, Debye):
    X=             -0.0000    Y=             -0.0000    Z=             -1.7413  Tot=              1.7413
 Quadrupole moment (field-independent basis, Debye-Ang):
   XX=            -11.3244   YY=            -11.8692   ZZ=            -12.7931
   XY=              0.0000   XZ=              0.0000   YZ=              0.0000

 Normal termination of Gaussian 16 at Fri Sep 17 10:52:38 2021.
