 Gaussian 16, Revision C.01,
 Gaussian 16:  ES64L-G16RevC.01  3-Jul-2019

 ----------------------------------------
 #P wB97XD/6-311+G* NoSymm #P Field=Z+175
 ----------------------------------------

 -------
 TitleMe
 -------
 Symbolic Z-matrix:
 Charge =  1 Multiplicity = 1

                          Input orientation:
 ---------------------------------------------------------------------
 Center     Atomic      Atomic             Coordinates (Angstroms)
 Number     Number       Type             X           Y           Z
 ---------------------------------------------------------------------
      1          6           0        0.029500    1.339700    0.068200
      2          6           0        1.434800    1.286700    0.006400
      3          6           0        2.111800    0.051100   -0.005400
      4          6           0        1.445100   -1.137200    0.031200
      5          6           0       -0.687900    0.168200    0.110000
      6          1           0       -0.471300    2.298400    0.078100
      7          1           0        2.027300    2.196500   -0.032200
      8          1           0        1.989700   -2.076400    0.023200
      9          1           0       -1.771600    0.180400    0.158200
     10          7           0        3.586400    0.051000   -0.067500
     11          8           0        4.147100   -1.059700   -0.088100
     12          8           0        4.145000    1.163900   -0.090100
     13          6           0       -0.023600   -1.145800    0.083500
     14          1           0       -0.436700   -1.872500    0.788900
     15         35           0       -0.535900   -1.869700   -1.740800
 ---------------------------------------------------------------------

 SCF Done:  E(RwB97XD) =  -3010.54596219     A.U. after   18 cycles

 Alpha  occ. eigenvalues -- -483.28591 -62.83570 -56.63311 -56.62673 -56.62671
 Alpha  occ. eigenvalues --  -19.45031 -19.44973 -14.84529 -10.56872 -10.56377
 Alpha  occ. eigenvalues --  -10.56209 -10.55982 -10.55797 -10.52083  -8.99344
 Alpha  occ. eigenvalues --   -6.82147  -6.80073  -6.80062  -2.92021  -2.91472
 Alpha  occ. eigenvalues --   -2.91461  -2.89804  -2.89804  -1.48793  -1.31773
 Alpha  occ. eigenvalues --   -1.21540  -1.12734  -1.10668  -1.02115  -1.00108
 Alpha  occ. eigenvalues --   -0.94301  -0.89966  -0.84410  -0.79906  -0.79654
 Alpha  occ. eigenvalues --   -0.79089  -0.77445  -0.75214  -0.74970  -0.70839
 Alpha  occ. eigenvalues --   -0.68326  -0.66581  -0.62052  -0.58698  -0.56217
 Alpha  occ. eigenvalues --   -0.55314  -0.54774  -0.53163  -0.52485
 Alpha virt. eigenvalues --   -0.28291  -0.20487  -0.14406  -0.12945  -0.10951
 Alpha virt. eigenvalues --   -0.08832  -0.08341  -0.05998  -0.04687  -0.04172
 Alpha virt. eigenvalues --   -0.02460  -0.01222  -0.00432   0.00840   0.01283

 Mulliken charges:
               1
     1  C   -0.547490
     2  C    0.449873
     3  C   -0.693514
     4  C    0.259941
     5  C   -0.055866
     6  H    0.330665
     7  H    0.367185
     8  H    0.370781
     9  H    0.346159
    10  N   -0.112464
    11  O    0.033138
    12  O    0.030666
    13  C   -0.457636
    14  H    0.342179
    15  Br   0.336384
 Sum of Mulliken charges =   1.00000

 Dipole moment (field-independent basis, Debye):
    X=             -1.2589    Y=             -1.2665    Z=             -3.0767  Tot=              3.5574
 Quadrupole moment (field-independent basis, Debye-Ang):
   XX=            -71.8750   YY=            -51.1011   ZZ=            -59.6086
   XY=              1.8021   XZ=             -0.3019   YZ=              4.2496

 Normal termination of Gaussian 16 at Wed May  1 15:26:05 2024.
