 Gaussian 16, Revision C.01,
 Gaussian 16:  ES64L-G16RevC.01  3-Jul-2019

 ----------------------------------------
 #P wB97XD/6-311+G* NoSymm #P Field=Z-175
 ----------------------------------------

 -------
 TitleMe
 -------
 Symbolic Z-matrix:
 Charge =  1 Multiplicity = 1

                          Input orientation:
 ---------------------------------------------------------------------
 Center     Atomic      Atomic             Coordinates (Angstroms)
 Number     Number       Type             X           Y           Z
 ---------------------------------------------------------------------
      1          6           0        0.029500    1.339700    0.068200
      2          6           0        1.434800    1.286700    0.006400
      3          6           0        2.111800    0.051100   -0.005400
      4          6           0        1.445100   -1.137200    0.031200
      5          6           0       -0.687900    0.168200    0.110000
      6          1           0       -0.471300    2.298400    0.078100
      7          1           0        2.027300    2.196500   -0.032200
      8          1           0        1.989700   -2.076400    0.023200
      9          1           0       -1.771600    0.180400    0.158200
     10          7           0        3.586400    0.051000   -0.067500
     11          8           0        4.147100   -1.059700   -0.088100
     12          8           0        4.145000    1.163900   -0.090100
     13          6           0       -0.023600   -1.145800    0.083500
     14          1           0       -0.436700   -1.872500    0.788900
     15         35           0       -0.535900   -1.869700   -1.740800
 ---------------------------------------------------------------------

 SCF Done:  E(RwB97XD) =  -3010.54563075     A.U. after   18 cycles

 Alpha  occ. eigenvalues -- -483.33988 -62.89051 -56.68690 -56.68193 -56.68192
 Alpha  occ. eigenvalues --  -19.46450 -19.46360 -14.85942 -10.59607 -10.58353
 Alpha  occ. eigenvalues --  -10.57894 -10.57714 -10.57406 -10.53548  -9.04884
 Alpha  occ. eigenvalues --   -6.87414  -6.85771  -6.85760  -2.97354  -2.96913
 Alpha  occ. eigenvalues --   -2.96903  -2.95588  -2.95588  -1.50190  -1.33162
 Alpha  occ. eigenvalues --   -1.23494  -1.15331  -1.12520  -1.06487  -1.01663
 Alpha  occ. eigenvalues --   -0.96292  -0.91632  -0.85833  -0.81404  -0.81231
 Alpha  occ. eigenvalues --   -0.80565  -0.78873  -0.76685  -0.76566  -0.73649
 Alpha  occ. eigenvalues --   -0.70050  -0.68252  -0.64935  -0.61958  -0.59666
 Alpha  occ. eigenvalues --   -0.57659  -0.57274  -0.56613  -0.56142
 Alpha virt. eigenvalues --   -0.30769  -0.21907  -0.17893  -0.14864  -0.14271
 Alpha virt. eigenvalues --   -0.10957  -0.09817  -0.08114  -0.06644  -0.06072
 Alpha virt. eigenvalues --   -0.04535  -0.03862  -0.03122  -0.02272  -0.01828

 Mulliken charges:
               1
     1  C   -0.613166
     2  C    0.570470
     3  C   -0.730851
     4  C    0.305859
     5  C    0.056218
     6  H    0.341776
     7  H    0.369407
     8  H    0.380182
     9  H    0.359218
    10  N   -0.107509
    11  O    0.033965
    12  O    0.029823
    13  C   -0.471399
    14  H    0.464192
    15  Br   0.011818
 Sum of Mulliken charges =   1.00000

 Dipole moment (field-independent basis, Debye):
    X=             -0.4037    Y=              0.0593    Z=              3.0120  Tot=              3.0395
 Quadrupole moment (field-independent basis, Debye-Ang):
   XX=            -70.6744   YY=            -52.9176   ZZ=            -66.1580
   XY=              0.8336   XZ=              2.5009   YZ=             -0.9330

 Normal termination of Gaussian 16 at Wed May  1 15:17:38 2024.
