 Gaussian 16, Revision A.03,
 Gaussian 16:  ES64L-G16RevA.03 25-Dec-2016

 --------------------------------------------------------------------
 #p B3LYP/6-311+G** #p TD=(singlets,nstates=30)IOp(6/8=3) IOp(9/40=4)
 --------------------------------------------------------------------

 ---------------------------------------------
 Scan Step 172, Bond Length 1.3599999999999999
 ---------------------------------------------
 Symbolic Z-matrix:
 Charge =  0 Multiplicity = 1

                         Standard orientation:
 ---------------------------------------------------------------------
 Center     Atomic      Atomic             Coordinates (Angstroms)
 Number     Number       Type             X           Y           Z
 ---------------------------------------------------------------------
      1          6           0        0.000000    0.000000   -0.606081
      2          1           0        0.000000    0.937260   -1.197431
      3          1           0       -0.000000   -0.937260   -1.197431
      4          8           0        0.000000   -0.000000    0.753919
 ---------------------------------------------------------------------

 SCF Done:  E(RB3LYP) =  -114.513529693     A.U. after    9 cycles

 Excitation energies and oscillator strengths:

 Excited State   1:      Singlet-A2     3.0694 eV  403.94 nm  f=0.0000  <S**2>=0.000
       3 -> 27         0.00194
       3 -> 38         0.00159
       3 -> 46         0.00291
       4 -> 27         0.00132
       4 -> 38        -0.00036
       4 -> 46        -0.00141
       5 ->  9         0.01671
       5 -> 13        -0.00064
       5 -> 17         0.00462
       5 -> 23         0.00103
       5 -> 29         0.00404
       5 -> 31        -0.00110
       5 -> 37         0.00256
       5 -> 44         0.00050
       5 -> 48         0.00012
       5 -> 52         0.00060
       6 -> 27        -0.00044
       6 -> 38        -0.00089
       6 -> 46         0.00170
       7 -> 12        -0.00066
       7 -> 15         0.00371
       7 -> 19        -0.00333
       7 -> 25         0.00133
       7 -> 30        -0.00113
       7 -> 33         0.00045
       7 -> 35         0.00011
       7 -> 40         0.00011
       7 -> 42        -0.00012
       7 -> 49         0.00019
       7 -> 50         0.00029
       7 -> 53         0.00048
       8 ->  9         0.70677
       8 -> 13        -0.02675
       8 -> 17         0.02234
       8 -> 23        -0.00754
       8 -> 29         0.01051
       8 -> 31        -0.00088
       8 -> 37         0.00047
       8 -> 48        -0.00028
       8 -> 52         0.00186
       3 <- 27         0.00115
       3 <- 38         0.00127
       3 <- 46         0.00299
       4 <- 27         0.00205
       4 <- 38         0.00017
       4 <- 46        -0.00116
       5 <-  9        -0.00058
       5 <- 13        -0.00072
       5 <- 17        -0.00098
       5 <- 23         0.00045
       5 <- 29        -0.00069
       5 <- 31         0.00062
       5 <- 37         0.00131
       5 <- 44         0.00018
       5 <- 48         0.00012
       5 <- 52         0.00016
       6 <- 27         0.00018
       6 <- 38        -0.00076
       6 <- 46         0.00133
       7 <- 12        -0.00039
       7 <- 15        -0.00859
       7 <- 19         0.00161
       7 <- 22         0.00747
       7 <- 25         0.00022
       7 <- 30         0.00433
       7 <- 33        -0.00105
       7 <- 35         0.00187
       7 <- 40         0.00083
       7 <- 49        -0.00011
       7 <- 50         0.00019
       7 <- 53         0.00139
       8 <-  9        -0.03266
       8 <- 13         0.00182
       8 <- 17        -0.00516
       8 <- 23         0.00067
       8 <- 29        -0.00157
       8 <- 31        -0.00054
       8 <- 37        -0.00097
       8 <- 52         0.00052
 This state for optimization and/or second-order correction.
 Total Energy, E(TD-HF/TD-DFT) =  -114.400732885
 Copying the excited state density for this state as the 1-particle RhoCI density.

 Excited State   2:      Singlet-B2     6.9536 eV  178.30 nm  f=0.0149  <S**2>=0.000
       3 -> 12         0.00176
       3 -> 15         0.00052
       3 -> 19         0.00144
       3 -> 22        -0.00034
       3 -> 25         0.00111
       3 -> 33         0.00029
       3 -> 35        -0.00063
       3 -> 40        -0.00032
       3 -> 49         0.00028
       3 -> 53        -0.00011
       4 -> 12        -0.00208
       4 -> 15         0.00216
       4 -> 19         0.00166
       4 -> 22        -0.00316
       4 -> 25         0.00293
       4 -> 30         0.00029
       4 -> 33        -0.00017
       4 -> 35         0.00030
       4 -> 40         0.00042
       4 -> 42        -0.00013
       5 -> 10        -0.00862
       5 -> 11        -0.00519
       5 -> 14         0.00754
       5 -> 16        -0.00050
       5 -> 18         0.00447
       5 -> 20         0.00204
       5 -> 21        -0.00553
       5 -> 24        -0.00098
       5 -> 26         0.00188
       5 -> 28         0.00096
       5 -> 32        -0.00105
       5 -> 34        -0.00098
       5 -> 36        -0.00021
       5 -> 39        -0.00015
       5 -> 41        -0.00056
       5 -> 43        -0.00041
       5 -> 54         0.00013
       6 -> 12        -0.00144
       6 -> 15         0.00124
       6 -> 19         0.00061
       6 -> 22        -0.00196
       6 -> 25         0.00082
       6 -> 30        -0.00045
       6 -> 33        -0.00033
       6 -> 35         0.00081
       6 -> 40         0.00016
       6 -> 42        -0.00013
       6 -> 49         0.00032
       6 -> 50        -0.00016
       7 -> 38        -0.00075
       8 -> 10         0.70331
       8 -> 11        -0.06435
       8 -> 14         0.02499
       8 -> 16        -0.00178
       8 -> 18         0.00892
       8 -> 20         0.01710
       8 -> 21         0.00192
       8 -> 24         0.00020
       8 -> 26         0.00333
       8 -> 28         0.00153
       8 -> 32         0.00087
       8 -> 34         0.00043
       8 -> 36         0.00019
       8 -> 39         0.00029
       8 -> 41        -0.00030
       8 -> 43         0.00059
       8 -> 47         0.00020
       8 -> 51        -0.00028
       8 -> 54         0.00026
       3 <- 12         0.00039
       3 <- 15         0.00046
       3 <- 19         0.00055
       3 <- 22        -0.00057
       3 <- 25         0.00058
       3 <- 33         0.00024
       3 <- 35        -0.00055
       3 <- 40        -0.00032
       3 <- 49         0.00033
       3 <- 53        -0.00011
       4 <- 12         0.00077
       4 <- 15         0.00200
       4 <- 19         0.00158
       4 <- 22        -0.00204
       4 <- 25         0.00195
       4 <- 30         0.00019
       4 <- 42        -0.00022
       4 <- 50        -0.00014
       5 <- 10         0.00216
       5 <- 11        -0.00024
       5 <- 14         0.00444
       5 <- 16        -0.00042
       5 <- 18         0.00038
       5 <- 20         0.00052
       5 <- 21        -0.00144
       5 <- 24        -0.00227
       5 <- 26         0.00131
       5 <- 28         0.00013
       5 <- 32        -0.00083
       5 <- 34        -0.00081
       5 <- 36        -0.00021
       5 <- 39        -0.00010
       5 <- 41        -0.00039
       5 <- 43        -0.00034
       6 <- 12        -0.00013
       6 <- 15        -0.00053
       6 <- 19         0.00086
       6 <- 22        -0.00015
       6 <- 25         0.00027
       6 <- 30         0.00055
       6 <- 33        -0.00038
       6 <- 35         0.00081
       6 <- 40         0.00014
       6 <- 42        -0.00011
       6 <- 49         0.00024
       6 <- 50        -0.00019
       6 <- 53         0.00020
       7 <- 38        -0.00056
       8 <- 10        -0.00136
       8 <- 11        -0.00096
       8 <- 14        -0.00381
       8 <- 16        -0.00068
       8 <- 18        -0.00106
       8 <- 20        -0.00067
       8 <- 21         0.00133
       8 <- 24         0.00136
       8 <- 26        -0.00096
       8 <- 28        -0.00028
       8 <- 32         0.00069
       8 <- 34        -0.00012
       8 <- 36         0.00032
       8 <- 43         0.00032

 Excited State   3:      Singlet-B1     7.4201 eV  167.09 nm  f=0.0014  <S**2>=0.000
       3 ->  9        -0.03335
       3 -> 13         0.00377
       3 -> 17        -0.00641
       3 -> 23         0.00325
       3 -> 29        -0.00202
       3 -> 31        -0.00045
       3 -> 44         0.00052
       3 -> 48         0.00042
       3 -> 52         0.00111
       4 ->  9         0.01627
       4 -> 13        -0.00272
       4 -> 17         0.00079
       4 -> 23        -0.00249
       4 -> 29         0.00015
       4 -> 31        -0.00215
       4 -> 37        -0.00045
       4 -> 48        -0.00152
       4 -> 52        -0.00089
       5 -> 27        -0.00136
       5 -> 38         0.00201
       5 -> 46         0.00219
       6 ->  9         0.70560
       6 -> 13        -0.02879
       6 -> 17         0.02088
       6 -> 23        -0.01213
       6 -> 29         0.00667
       6 -> 31         0.00396
       6 -> 37        -0.00259
       6 -> 44        -0.00348
       6 -> 48         0.00520
       6 -> 52         0.00185
       7 -> 10         0.00028
       7 -> 11         0.00160
       7 -> 14        -0.00138
       7 -> 16        -0.01165
       7 -> 18         0.00100
       7 -> 20         0.00188
       7 -> 21        -0.00244
       7 -> 24         0.00147
       7 -> 26         0.00066
       7 -> 28        -0.00470
       7 -> 32        -0.00123
       7 -> 34         0.00024
       7 -> 36        -0.00159
       7 -> 39         0.00018
       7 -> 41        -0.00163
       7 -> 43         0.00090
       7 -> 45         0.00455
       7 -> 47         0.00261
       7 -> 51         0.00112
       7 -> 54         0.00057
       8 -> 27         0.00206
       8 -> 38         0.00069
       8 -> 46         0.00659
       3 <-  9        -0.01060
       3 <- 13         0.00031
       3 <- 17        -0.00332
       3 <- 23         0.00014
       3 <- 29        -0.00128
       3 <- 31        -0.00037
       3 <- 37        -0.00011
       3 <- 44        -0.00018
       3 <- 48         0.00069
       3 <- 52         0.00089
       4 <-  9         0.00592
       4 <- 17         0.00244
       4 <- 23        -0.00030
       4 <- 29         0.00222
       4 <- 31        -0.00189
       4 <- 44         0.00020
       4 <- 48        -0.00131
       4 <- 52        -0.00049
       5 <- 27        -0.00154
       5 <- 38         0.00154
       5 <- 46         0.00194
       6 <-  9        -0.02191
       6 <- 13         0.00250
       6 <- 17        -0.00301
       6 <- 23         0.00022
       6 <- 29        -0.00252
       6 <- 31         0.00264
       6 <- 37        -0.00252
       6 <- 44        -0.00213
       6 <- 48         0.00458
       6 <- 52         0.00068
       7 <- 10         0.00240
       7 <- 11         0.00412
       7 <- 14         0.00168
       7 <- 16         0.00121
       7 <- 18         0.01272
       7 <- 20         0.00749
       7 <- 21        -0.00665
       7 <- 24         0.00597
       7 <- 26         0.00328
       7 <- 28         0.00054
       7 <- 32        -0.00109
       7 <- 34         0.00147
       7 <- 36        -0.00255
       7 <- 39         0.00042
       7 <- 41        -0.00111
       7 <- 43         0.00085
       7 <- 45         0.00413
       7 <- 47         0.00217
       7 <- 51         0.00081
       7 <- 54         0.00106
       8 <- 27         0.00206
       8 <- 38         0.00077
       8 <- 46         0.00588

 Excited State   4:      Singlet-A1     7.5362 eV  164.52 nm  f=0.1322  <S**2>=0.000
       3 -> 10         0.00564
       3 -> 11         0.01453
       3 -> 14         0.00757
       3 -> 16        -0.00124
       3 -> 18         0.02429
       3 -> 20         0.00179
       3 -> 21        -0.00624
       3 -> 24         0.00663
       3 -> 26         0.00882
       3 -> 28         0.00125
       3 -> 32         0.00312
       3 -> 34        -0.00392
       3 -> 36        -0.00191
       3 -> 39         0.00146
       3 -> 41         0.00020
       3 -> 43         0.00068
       3 -> 45         0.00182
       3 -> 47         0.00082
       3 -> 51         0.00016
       3 -> 54         0.00029
       4 -> 10         0.02738
       4 -> 11        -0.01120
       4 -> 14         0.01632
       4 -> 16         0.00183
       4 -> 18        -0.00765
       4 -> 20         0.00997
       4 -> 21        -0.00022
       4 -> 24        -0.00819
       4 -> 26         0.00630
       4 -> 28         0.00090
       4 -> 32        -0.00129
       4 -> 34         0.00317
       4 -> 36         0.00074
       4 -> 39        -0.00021
       4 -> 45        -0.00074
       4 -> 47        -0.00156
       5 -> 12         0.03268
       5 -> 15         0.03263
       5 -> 19         0.00277
       5 -> 22         0.00157
       5 -> 25         0.01403
       5 -> 30        -0.00324
       5 -> 33        -0.00320
       5 -> 35         0.00161
       5 -> 40         0.00165
       5 -> 42         0.00074
       5 -> 49         0.00061
       5 -> 50        -0.00044
       5 -> 53        -0.00036
       6 -> 10        -0.03417
       6 -> 11        -0.05640
       6 -> 14        -0.02166
       6 -> 16        -0.03290
       6 -> 18        -0.09618
       6 -> 20        -0.04082
       6 -> 21         0.03064
       6 -> 24        -0.02679
       6 -> 26        -0.01402
       6 -> 28        -0.01150
       6 -> 32        -0.00019
       6 -> 34        -0.00326
       6 -> 36         0.00242
       6 -> 41        -0.00104
       6 -> 43         0.00038
       6 -> 45         0.00071
       6 -> 47         0.00177
       6 -> 51         0.00073
       6 -> 54        -0.00024
       7 ->  9         0.68179
       7 -> 13         0.02640
       7 -> 17        -0.02800
       7 -> 23         0.00752
       7 -> 29        -0.00537
       7 -> 31        -0.00144
       7 -> 44        -0.00081
       7 -> 48         0.00059
       7 -> 52         0.00099
       8 -> 12         0.02716
       8 -> 15         0.14231
       8 -> 19        -0.02589
       8 -> 22        -0.04927
       8 -> 25         0.00399
       8 -> 30        -0.01535
       8 -> 33         0.00597
       8 -> 35        -0.00736
       8 -> 40        -0.00286
       8 -> 42        -0.00038
       8 -> 49         0.00062
       8 -> 50         0.00041
       8 -> 53        -0.00104
       3 <- 10         0.00288
       3 <- 11         0.00845
       3 <- 14         0.00517
       3 <- 16        -0.00011
       3 <- 18         0.01539
       3 <- 20         0.00142
       3 <- 21        -0.00511
       3 <- 24         0.00454
       3 <- 26         0.00571
       3 <- 28         0.00095
       3 <- 32         0.00277
       3 <- 34        -0.00250
       3 <- 36        -0.00131
       3 <- 39         0.00110
       3 <- 41         0.00015
       3 <- 43         0.00066
       3 <- 45         0.00188
       3 <- 47         0.00108
       3 <- 51         0.00015
       3 <- 54         0.00032
       4 <- 10         0.01047
       4 <- 11        -0.00491
       4 <- 14         0.00677
       4 <- 16         0.00048
       4 <- 18        -0.00429
       4 <- 20         0.00581
       4 <- 24        -0.00473
       4 <- 26         0.00431
       4 <- 32        -0.00169
       4 <- 34         0.00245
       4 <- 36         0.00042
       4 <- 39        -0.00021
       4 <- 41        -0.00013
       4 <- 45        -0.00022
       4 <- 47        -0.00143
       4 <- 51         0.00011
       5 <- 12         0.00923
       5 <- 15         0.01191
       5 <- 19         0.00150
       5 <- 22         0.00076
       5 <- 25         0.00775
       5 <- 30        -0.00185
       5 <- 33        -0.00226
       5 <- 35         0.00131
       5 <- 40         0.00137
       5 <- 42         0.00057
       5 <- 49         0.00051
       5 <- 50        -0.00039
       5 <- 53        -0.00031
       6 <- 10        -0.00655
       6 <- 11        -0.01162
       6 <- 14        -0.00606
       6 <- 16        -0.01115
       6 <- 18        -0.03448
       6 <- 20        -0.01736
       6 <- 21         0.01444
       6 <- 24        -0.01410
       6 <- 26        -0.00806
       6 <- 28        -0.00703
       6 <- 32         0.00018
       6 <- 34        -0.00280
       6 <- 36         0.00163
       6 <- 39         0.00026
       6 <- 41        -0.00068
       6 <- 43         0.00032
       6 <- 45         0.00025
       6 <- 47         0.00144
       6 <- 51         0.00053
       6 <- 54        -0.00016
       7 <-  9        -0.09701
       7 <- 13         0.01281
       7 <- 17        -0.01465
       7 <- 23         0.00767
       7 <- 29        -0.00605
       7 <- 37        -0.00026
       7 <- 44        -0.00028
       7 <- 52         0.00081
       8 <- 12         0.00061
       8 <- 15         0.02655
       8 <- 19        -0.00678
       8 <- 22        -0.01962
       8 <- 25         0.00113
       8 <- 30        -0.00939
       8 <- 33         0.00393
       8 <- 35        -0.00502
       8 <- 40        -0.00218
       8 <- 42        -0.00029
       8 <- 49         0.00041
       8 <- 50         0.00031
       8 <- 53        -0.00091

 Excited State   5:      Singlet-B2     7.6256 eV  162.59 nm  f=0.0285  <S**2>=0.000
       3 -> 12        -0.00037
       3 -> 15        -0.00132
       3 -> 19         0.00154
       3 -> 22         0.00056
       3 -> 25        -0.00016
       3 -> 30         0.00300
       3 -> 33         0.00018
       3 -> 35        -0.00089
       3 -> 40        -0.00072
       3 -> 49         0.00085
       3 -> 50        -0.00016
       4 -> 12         0.00210
       4 -> 15         0.00077
       4 -> 19         0.00117
       4 -> 22        -0.00149
       4 -> 25         0.00246
       4 -> 30        -0.00161
       4 -> 33         0.00048
       4 -> 35        -0.00063
       4 -> 49         0.00018
       5 -> 10        -0.00274
       5 -> 11         0.00022
       5 -> 14         0.01096
       5 -> 16        -0.00601
       5 -> 18        -0.00073
       5 -> 20        -0.00419
       5 -> 21        -0.00357
       5 -> 24        -0.00063
       5 -> 26         0.00194
       5 -> 28         0.00150
       5 -> 32         0.00026
       5 -> 34        -0.00062
       5 -> 36        -0.00059
       5 -> 39         0.00059
       5 -> 41        -0.00059
       5 -> 43         0.00025
       5 -> 45         0.00093
       5 -> 47         0.00020
       5 -> 51        -0.00047
       6 -> 12        -0.00245
       6 -> 15        -0.00092
       6 -> 19        -0.00077
       6 -> 22         0.00091
       6 -> 25         0.00017
       6 -> 30         0.00129
       6 -> 33        -0.00053
       6 -> 35         0.00150
       6 -> 40         0.00128
       6 -> 42         0.00011
       6 -> 49        -0.00149
       6 -> 50         0.00020
       6 -> 53         0.00014
       7 -> 27         0.00048
       7 -> 38        -0.00072
       7 -> 46        -0.00241
       8 -> 10         0.06357
       8 -> 11         0.70252
       8 -> 14         0.00663
       8 -> 16         0.00933
       8 -> 18         0.04556
       8 -> 20        -0.00817
       8 -> 21         0.00149
       8 -> 24         0.00180
       8 -> 26         0.00020
       8 -> 28         0.00343
       8 -> 32         0.00014
       8 -> 34        -0.00026
       8 -> 36        -0.00050
       8 -> 39        -0.00026
       8 -> 41        -0.00092
       8 -> 43         0.00041
       8 -> 45         0.00297
       8 -> 47         0.00020
       8 -> 51        -0.00135
       8 -> 54         0.00013
       3 <- 12         0.00033
       3 <- 15        -0.00044
       3 <- 19         0.00118
       3 <- 30         0.00154
       3 <- 33         0.00029
       3 <- 35        -0.00084
       3 <- 40        -0.00066
       3 <- 49         0.00080
       3 <- 50        -0.00011
       3 <- 53        -0.00042
       4 <- 12         0.00021
       4 <- 15         0.00096
       4 <- 19         0.00017

 The electronic state is 1-A1.
 Alpha  occ. eigenvalues --  -19.16090 -10.30209  -1.00234  -0.66846  -0.49190
 Alpha  occ. eigenvalues --   -0.44475  -0.37204  -0.28876
 Alpha virt. eigenvalues --   -0.10238   0.00275   0.03399   0.04176   0.06249
 Alpha virt. eigenvalues --    0.12133   0.16233   0.18850   0.21806   0.22215
 Alpha virt. eigenvalues --    0.23658   0.30319   0.41633   0.43903   0.50946

 Mulliken charges:
               1
     1  C   -0.014648
     2  H    0.146967
     3  H    0.146967
     4  O   -0.279285
 Sum of Mulliken charges =   0.00000

 Dipole moment (field-independent basis, Debye):
    X=             -0.0000    Y=              0.0000    Z=             -3.1113  Tot=              3.1113
 Quadrupole moment (field-independent basis, Debye-Ang):
   XX=            -12.1988   YY=            -11.7485   ZZ=            -12.0095
   XY=              0.0000   XZ=              0.0000   YZ=              0.0000

 Normal termination of Gaussian 16 at Fri Sep 17 10:52:46 2021.
