 Gaussian 16, Revision C.01,
 Gaussian 16:  ES64L-G16RevC.01  3-Jul-2019

 ----------------------------------------
 #P wB97XD/6-311+G* NoSymm #P Field=Z+282
 ----------------------------------------

 -------
 TitleMe
 -------
 Symbolic Z-matrix:
 Charge =  1 Multiplicity = 1

                          Input orientation:
 ---------------------------------------------------------------------
 Center     Atomic      Atomic             Coordinates (Angstroms)
 Number     Number       Type             X           Y           Z
 ---------------------------------------------------------------------
      1          6           0        0.519300    1.233000   -0.031900
      2          6           0        1.944500    1.269200   -0.036700
      3          6           0        2.620400    0.092800   -0.025000
      4          6           0       -0.196000    0.030100    0.001000
      5          1           0       -0.020700    2.174200   -0.043400
      6          1           0        2.482800    2.208900   -0.036100
      7          1           0       -1.277700    0.039900    0.011700
      8          7           0        4.092100    0.095900    0.036600
      9          8           0        4.639300   -1.021700    0.144600
     10          8           0        4.664900    1.198400   -0.023300
     11          6           0        0.494300   -1.167100    0.021000
     12          1           0       -0.032500   -2.114900    0.054500
     13          6           0        1.962900   -1.216500   -0.021100
     14          1           0        2.443600   -1.963100    0.615100
     15         35           0        2.173000   -1.949100   -1.906200
 ---------------------------------------------------------------------

 SCF Done:  E(RwB97XD) =  -3010.56869163     A.U. after   21 cycles

 Alpha  occ. eigenvalues -- -483.27090 -62.82020 -56.61797 -56.61126 -56.61095
 Alpha  occ. eigenvalues --  -19.45663 -19.45658 -14.84995 -10.57639 -10.55669
 Alpha  occ. eigenvalues --  -10.55606 -10.54958 -10.51899 -10.51350  -8.97758
 Alpha  occ. eigenvalues --   -6.80652  -6.78475  -6.78380  -2.90502  -2.89950
 Alpha  occ. eigenvalues --   -2.89874  -2.88135  -2.88134  -1.49304  -1.32290
 Alpha  occ. eigenvalues --   -1.20643  -1.11333  -1.10215  -1.01929  -0.98141
 Alpha  occ. eigenvalues --   -0.93536  -0.89063  -0.83976  -0.79865  -0.79176
 Alpha  occ. eigenvalues --   -0.78813  -0.76521  -0.75298  -0.74027  -0.69758
 Alpha  occ. eigenvalues --   -0.66930  -0.66008  -0.60662  -0.57703  -0.56765
 Alpha  occ. eigenvalues --   -0.56015  -0.55310  -0.50966  -0.50226
 Alpha virt. eigenvalues --   -0.27978  -0.19529  -0.15647  -0.13004  -0.11709
 Alpha virt. eigenvalues --   -0.11085  -0.10694  -0.07218  -0.06570  -0.05282
 Alpha virt. eigenvalues --   -0.03185  -0.01503   0.00006   0.00052   0.01038

 Mulliken charges:
               1
     1  C   -0.186227
     2  C    0.260404
     3  C   -0.003088
     4  C   -0.352520
     5  H    0.345149
     6  H    0.350494
     7  H    0.328417
     8  N   -0.302188
     9  O    0.089889
    10  O    0.072638
    11  C   -0.264538
    12  H    0.351425
    13  C   -0.470279
    14  H    0.320330
    15  Br   0.460094
 Sum of Mulliken charges =   1.00000

 Dipole moment (field-independent basis, Debye):
    X=              3.2506    Y=             -2.1089    Z=             -5.9373  Tot=              7.0898
 Quadrupole moment (field-independent basis, Debye-Ang):
   XX=            -67.8890   YY=            -49.3488   ZZ=            -56.3047
   XY=             -5.4443   XZ=            -13.2241   YZ=              7.4766

 Normal termination of Gaussian 16 at Thu May  2 14:20:16 2024.
