 Gaussian 16, Revision C.01,
 Gaussian 16:  ES64L-G16RevC.01  3-Jul-2019

 ----------------------------------------
 #P wB97XD/6-311+G* NoSymm #P Field=X+204
 ----------------------------------------

 -------
 TitleMe
 -------
 Symbolic Z-matrix:
 Charge =  1 Multiplicity = 1

                          Input orientation:
 ---------------------------------------------------------------------
 Center     Atomic      Atomic             Coordinates (Angstroms)
 Number     Number       Type             X           Y           Z
 ---------------------------------------------------------------------
      1          6           0        0.519300    1.233000   -0.031900
      2          6           0        1.944500    1.269200   -0.036700
      3          6           0        2.620400    0.092800   -0.025000
      4          6           0       -0.196000    0.030100    0.001000
      5          1           0       -0.020700    2.174200   -0.043400
      6          1           0        2.482800    2.208900   -0.036100
      7          1           0       -1.277700    0.039900    0.011700
      8          7           0        4.092100    0.095900    0.036600
      9          8           0        4.639300   -1.021700    0.144600
     10          8           0        4.664900    1.198400   -0.023300
     11          6           0        0.494300   -1.167100    0.021000
     12          1           0       -0.032500   -2.114900    0.054500
     13          6           0        1.962900   -1.216500   -0.021100
     14          1           0        2.443600   -1.963100    0.615100
     15         35           0        2.173000   -1.949100   -1.906200
 ---------------------------------------------------------------------

 SCF Done:  E(RwB97XD) =  -3010.53292387     A.U. after   19 cycles

 Alpha  occ. eigenvalues -- -483.38316 -62.93350 -56.73029 -56.72479 -56.72470
 Alpha  occ. eigenvalues --  -19.59003 -19.58885 -14.98039 -10.66641 -10.65360
 Alpha  occ. eigenvalues --  -10.63030 -10.62231 -10.61537 -10.57398  -9.09166
 Alpha  occ. eigenvalues --   -6.91807  -6.89997  -6.89970  -3.01720  -3.01242
 Alpha  occ. eigenvalues --   -3.01220  -2.99771  -2.99771  -1.62559  -1.45646
 Alpha  occ. eigenvalues --   -1.29634  -1.20303  -1.19364  -1.12054  -1.08303
 Alpha  occ. eigenvalues --   -1.01822  -0.98350  -0.95129  -0.92495  -0.90933
 Alpha  occ. eigenvalues --   -0.87800  -0.85360  -0.83622  -0.82673  -0.78668
 Alpha  occ. eigenvalues --   -0.73700  -0.73415  -0.70388  -0.70246  -0.69363
 Alpha  occ. eigenvalues --   -0.68925  -0.66468  -0.63666  -0.61897
 Alpha virt. eigenvalues --   -0.37292  -0.30547  -0.22895  -0.20469  -0.18699
 Alpha virt. eigenvalues --   -0.15652  -0.14539  -0.14012  -0.12574  -0.10189
 Alpha virt. eigenvalues --   -0.09561  -0.09334  -0.08966  -0.07593  -0.06666

 Mulliken charges:
               1
     1  C   -0.138918
     2  C    0.171679
     3  C   -0.174129
     4  C   -0.302025
     5  H    0.395789
     6  H    0.326264
     7  H    0.420758
     8  N   -0.236861
     9  O    0.008273
    10  O   -0.029201
    11  C   -0.145749
    12  H    0.406388
    13  C   -0.235654
    14  H    0.386919
    15  Br   0.146467
 Sum of Mulliken charges =   1.00000

 Dipole moment (field-independent basis, Debye):
    X=             -3.0724    Y=             -0.6227    Z=             -0.4810  Tot=              3.1715
 Quadrupole moment (field-independent basis, Debye-Ang):
   XX=            -91.5332   YY=            -51.5890   ZZ=            -62.8334
   XY=             -1.4836   XZ=             -0.9741   YZ=              1.8151

 Normal termination of Gaussian 16 at Thu May  2 14:18:07 2024.
