 Gaussian 16, Revision C.01,
 Gaussian 16:  ES64L-G16RevC.01  3-Jul-2019

 ---------------------------------------
 #P wB97XD/6-311+G* NoSymm #P Field=Z+87
 ---------------------------------------

 -------
 TitleMe
 -------
 Symbolic Z-matrix:
 Charge =  1 Multiplicity = 1

                          Input orientation:
 ---------------------------------------------------------------------
 Center     Atomic      Atomic             Coordinates (Angstroms)
 Number     Number       Type             X           Y           Z
 ---------------------------------------------------------------------
      1          6           0        0.029500    1.339700    0.068200
      2          6           0        1.434800    1.286700    0.006400
      3          6           0        2.111800    0.051100   -0.005400
      4          6           0        1.445100   -1.137200    0.031200
      5          6           0       -0.687900    0.168200    0.110000
      6          1           0       -0.471300    2.298400    0.078100
      7          1           0        2.027300    2.196500   -0.032200
      8          1           0        1.989700   -2.076400    0.023200
      9          1           0       -1.771600    0.180400    0.158200
     10          7           0        3.586400    0.051000   -0.067500
     11          8           0        4.147100   -1.059700   -0.088100
     12          8           0        4.145000    1.163900   -0.090100
     13          6           0       -0.023600   -1.145800    0.083500
     14          1           0       -0.436700   -1.872500    0.788900
     15         35           0       -0.535900   -1.869700   -1.740800
 ---------------------------------------------------------------------

 SCF Done:  E(RwB97XD) =  -3010.53799351     A.U. after   18 cycles

 Alpha  occ. eigenvalues -- -483.29787 -62.84792 -56.64507 -56.63903 -56.63901
 Alpha  occ. eigenvalues --  -19.45329 -19.45264 -14.84832 -10.57449 -10.56821
 Alpha  occ. eigenvalues --  -10.56568 -10.56361 -10.56140 -10.52383  -9.00583
 Alpha  occ. eigenvalues --   -6.83320  -6.81353  -6.81339  -2.93210  -2.92689
 Alpha  occ. eigenvalues --   -2.92676  -2.91103  -2.91103  -1.49096  -1.32074
 Alpha  occ. eigenvalues --   -1.21957  -1.13251  -1.11082  -1.03140  -1.00445
 Alpha  occ. eigenvalues --   -0.94753  -0.90327  -0.84717  -0.80197  -0.80022
 Alpha  occ. eigenvalues --   -0.79415  -0.77738  -0.75529  -0.75311  -0.71417
 Alpha  occ. eigenvalues --   -0.68704  -0.66930  -0.62745  -0.59236  -0.56544
 Alpha  occ. eigenvalues --   -0.55617  -0.55101  -0.54648  -0.53797
 Alpha virt. eigenvalues --   -0.28818  -0.20761  -0.14728  -0.12669  -0.09579
 Alpha virt. eigenvalues --   -0.06808  -0.06536  -0.05269  -0.03332  -0.03098
 Alpha virt. eigenvalues --   -0.02294  -0.01254  -0.00569   0.00074   0.01240

 Mulliken charges:
               1
     1  C   -0.561547
     2  C    0.485546
     3  C   -0.705673
     4  C    0.273823
     5  C   -0.024907
     6  H    0.331684
     7  H    0.366221
     8  H    0.371808
     9  H    0.347978
    10  N   -0.109167
    11  O    0.031503
    12  O    0.028703
    13  C   -0.464700
    14  H    0.373401
    15  Br   0.255326
 Sum of Mulliken charges =   1.00000

 Dipole moment (field-independent basis, Debye):
    X=             -1.0414    Y=             -0.9192    Z=             -1.5307  Tot=              2.0670
 Quadrupole moment (field-independent basis, Debye-Ang):
   XX=            -71.5531   YY=            -51.5446   ZZ=            -61.0614
   XY=              1.5442   XZ=              0.4136   YZ=              2.9466

 Normal termination of Gaussian 16 at Wed May  1 15:26:00 2024.
