 Gaussian 16, Revision C.01,
 Gaussian 16:  ES64L-G16RevC.01  3-Jul-2019

 ----------------------------------------
 #P wB97XD/6-311+G* NoSymm #P Field=Y-214
 ----------------------------------------

 -------
 TitleMe
 -------
 Symbolic Z-matrix:
 Charge =  1 Multiplicity = 1

                          Input orientation:
 ---------------------------------------------------------------------
 Center     Atomic      Atomic             Coordinates (Angstroms)
 Number     Number       Type             X           Y           Z
 ---------------------------------------------------------------------
      1          6           0        0.029500    1.339700    0.068200
      2          6           0        1.434800    1.286700    0.006400
      3          6           0        2.111800    0.051100   -0.005400
      4          6           0        1.445100   -1.137200    0.031200
      5          6           0       -0.687900    0.168200    0.110000
      6          1           0       -0.471300    2.298400    0.078100
      7          1           0        2.027300    2.196500   -0.032200
      8          1           0        1.989700   -2.076400    0.023200
      9          1           0       -1.771600    0.180400    0.158200
     10          7           0        3.586400    0.051000   -0.067500
     11          8           0        4.147100   -1.059700   -0.088100
     12          8           0        4.145000    1.163900   -0.090100
     13          6           0       -0.023600   -1.145800    0.083500
     14          1           0       -0.436700   -1.872500    0.788900
     15         35           0       -0.535900   -1.869700   -1.740800
 ---------------------------------------------------------------------

 SCF Done:  E(RwB97XD) =  -3010.55631522     A.U. after   21 cycles

 Alpha  occ. eigenvalues -- -483.34795 -62.89854 -56.69494 -56.68998 -56.68993
 Alpha  occ. eigenvalues --  -19.46734 -19.46247 -14.85871 -10.61235 -10.58341
 Alpha  occ. eigenvalues --  -10.58258 -10.57261 -10.56753 -10.52014  -9.05686
 Alpha  occ. eigenvalues --   -6.88216  -6.86573  -6.86560  -2.98155  -2.97715
 Alpha  occ. eigenvalues --   -2.97705  -2.96389  -2.96389  -1.50196  -1.33163
 Alpha  occ. eigenvalues --   -1.23783  -1.15785  -1.12050  -1.07062  -1.01572
 Alpha  occ. eigenvalues --   -0.96475  -0.91616  -0.85903  -0.81565  -0.81163
 Alpha  occ. eigenvalues --   -0.80619  -0.79607  -0.76578  -0.76110  -0.73912
 Alpha  occ. eigenvalues --   -0.69498  -0.67342  -0.64506  -0.62397  -0.60604
 Alpha  occ. eigenvalues --   -0.57791  -0.57363  -0.56644  -0.55952
 Alpha virt. eigenvalues --   -0.30886  -0.21956  -0.18840  -0.18099  -0.14307
 Alpha virt. eigenvalues --   -0.13430  -0.13039  -0.09343  -0.08115  -0.07839
 Alpha virt. eigenvalues --   -0.06279  -0.05176  -0.03904  -0.03173  -0.01864

 Mulliken charges:
               1
     1  C   -0.527108
     2  C    0.426862
     3  C   -0.622393
     4  C    0.274231
     5  C    0.054854
     6  H    0.416560
     7  H    0.438973
     8  H    0.298138
     9  H    0.357726
    10  N   -0.109885
    11  O   -0.074920
    12  O    0.152602
    13  C   -0.468727
    14  H    0.348558
    15  Br   0.034529
 Sum of Mulliken charges =   1.00000

 Dipole moment (field-independent basis, Debye):
    X=             -0.0464    Y=              5.5822    Z=              0.7606  Tot=              5.6340
 Quadrupole moment (field-independent basis, Debye-Ang):
   XX=            -69.9509   YY=            -55.4268   ZZ=            -64.5087
   XY=              8.1869   XZ=              0.4297   YZ=             -1.1777

 Normal termination of Gaussian 16 at Wed May  1 15:06:47 2024.
