 Gaussian 16, Revision A.03,
 Gaussian 16:  ES64L-G16RevA.03 25-Dec-2016

 --------------------------------------------------------------------
 #p B3LYP/6-311+G** #p TD=(singlets,nstates=30)IOp(6/8=3) IOp(9/40=4)
 --------------------------------------------------------------------

 ------------------------------
 Scan Step 100, Bond Length 1.0
 ------------------------------
 Symbolic Z-matrix:
 Charge =  0 Multiplicity = 1

                         Standard orientation:
 ---------------------------------------------------------------------
 Center     Atomic      Atomic             Coordinates (Angstroms)
 Number     Number       Type             X           Y           Z
 ---------------------------------------------------------------------
      1          6           0        0.000000   -0.000000   -0.426081
      2          1           0        0.000000    0.937260   -1.017431
      3          1           0       -0.000000   -0.937260   -1.017431
      4          8           0        0.000000    0.000000    0.573919
 ---------------------------------------------------------------------

 SCF Done:  E(RB3LYP) =  -114.439182163     A.U. after    9 cycles

 Excitation energies and oscillator strengths:

 Excited State   1:      Singlet-A2     5.1046 eV  242.89 nm  f=0.0000  <S**2>=0.000
       3 -> 27         0.00299
       3 -> 37         0.00247
       3 -> 46         0.00170
       4 -> 27         0.00300
       4 -> 37        -0.00075
       4 -> 46        -0.00094
       5 ->  9         0.01611
       5 -> 13        -0.00870
       5 -> 17         0.00622
       5 -> 23        -0.00282
       5 -> 28         0.00357
       5 -> 31         0.00276
       5 -> 36         0.00401
       5 -> 44         0.00066
       5 -> 47         0.00010
       5 -> 52         0.00084
       6 -> 27         0.00067
       6 -> 37        -0.00053
       6 -> 46         0.00152
       7 -> 12        -0.00062
       7 -> 16         0.00168
       7 -> 18        -0.00137
       7 -> 22         0.00165
       7 -> 24         0.00102
       7 -> 29        -0.00064
       7 -> 33         0.00033
       7 -> 35         0.00052
       7 -> 40        -0.00026
       7 -> 42         0.00039
       7 -> 48         0.00064
       7 -> 50        -0.00017
       7 -> 53         0.00037
       8 ->  9         0.69936
       8 -> 13        -0.09960
       8 -> 17         0.02682
       8 -> 23        -0.01141
       8 -> 28         0.00648
       8 -> 31         0.00351
       8 -> 36        -0.00170
       8 -> 44        -0.00026
       8 -> 47        -0.00013
       8 -> 52         0.00123
       3 <- 27         0.00212
       3 <- 37         0.00210
       3 <- 46         0.00177
       4 <- 27         0.00371
       4 <- 37        -0.00028
       4 <- 46        -0.00087
       5 <-  9         0.00018
       5 <- 13        -0.00102
       5 <- 17        -0.00046
       5 <- 23         0.00044
       5 <- 28        -0.00032
       5 <- 31        -0.00112
       5 <- 36         0.00179
       5 <- 44         0.00041
       5 <- 47         0.00016
       5 <- 52         0.00022
       6 <- 27         0.00100
       6 <- 37        -0.00053
       6 <- 46         0.00119
       7 <- 12        -0.00097
       7 <- 16        -0.00430
       7 <- 18        -0.00222
       7 <- 22         0.00601
       7 <- 24        -0.00110
       7 <- 29         0.00211
       7 <- 33        -0.00119
       7 <- 35         0.00241
       7 <- 40        -0.00043
       7 <- 42         0.00095
       7 <- 48         0.00047
       7 <- 53         0.00098
       8 <-  9        -0.01457
       8 <- 13         0.00653
       8 <- 17        -0.00387
       8 <- 23         0.00066
       8 <- 28        -0.00046
       8 <- 31         0.00214
       8 <- 36        -0.00217
       8 <- 52         0.00037
 This state for optimization and/or second-order correction.
 Total Energy, E(TD-HF/TD-DFT) =  -114.251592180
 Copying the excited state density for this state as the 1-particle RhoCI density.

 Excited State   2:      Singlet-B2     6.3584 eV  194.99 nm  f=0.0661  <S**2>=0.000
       3 -> 12         0.00108
       3 -> 16         0.00035
       3 -> 18         0.00113
       3 -> 22        -0.00017
       3 -> 24         0.00126
       3 -> 29        -0.00014
       3 -> 35        -0.00019
       3 -> 50        -0.00012
       4 -> 12        -0.00511
       4 -> 16         0.00022
       4 -> 18         0.00231
       4 -> 22        -0.00311
       4 -> 24         0.00395
       4 -> 29        -0.00020
       4 -> 33        -0.00089
       4 -> 35         0.00087
       4 -> 40        -0.00031
       4 -> 42         0.00039
       5 -> 10        -0.00091
       5 -> 11        -0.00855
       5 -> 14         0.00629
       5 -> 15        -0.00143
       5 -> 19         0.00340
       5 -> 20        -0.00047
       5 -> 21         0.00391
       5 -> 25         0.00066
       5 -> 26        -0.00182
       5 -> 30         0.00250
       5 -> 32        -0.00029
       5 -> 34        -0.00028
       5 -> 38        -0.00057
       5 -> 39        -0.00024
       5 -> 41         0.00011
       5 -> 43        -0.00050
       5 -> 45        -0.00057
       5 -> 49         0.00027
       6 -> 12         0.00169
       6 -> 16        -0.00013
       6 -> 18         0.00422
       6 -> 22        -0.00263
       6 -> 24         0.00198
       6 -> 29        -0.00017
       6 -> 42        -0.00038
       6 -> 48         0.00036
       6 -> 50         0.00051
       7 -> 27         0.00066
       7 -> 46         0.00078
       8 -> 10         0.70570
       8 -> 11        -0.03616
       8 -> 14        -0.00599
       8 -> 15        -0.01067
       8 -> 19         0.01868
       8 -> 20         0.00960
       8 -> 21        -0.00609
       8 -> 25         0.00084
       8 -> 26        -0.00097
       8 -> 30         0.00037
       8 -> 32         0.00196
       8 -> 34         0.00191
       8 -> 38         0.00063
       8 -> 39         0.00057
       8 -> 41        -0.00019
       8 -> 43         0.00068
       8 -> 45        -0.00094
       8 -> 49         0.00016
       8 -> 54         0.00016
       3 <- 12         0.00032
       3 <- 16         0.00038
       3 <- 18         0.00054
       3 <- 22        -0.00025
       3 <- 24         0.00086
       3 <- 29        -0.00013
       3 <- 35        -0.00019
       4 <- 12         0.00036
       4 <- 16         0.00075
       4 <- 18         0.00273
       4 <- 22        -0.00189
       4 <- 24         0.00288
       4 <- 29        -0.00015
       4 <- 33        -0.00063
       4 <- 35         0.00062
       4 <- 40        -0.00027
       5 <- 10         0.00236
       5 <- 14         0.00473
       5 <- 15        -0.00140
       5 <- 19         0.00084
       5 <- 21         0.00212
       5 <- 25         0.00168
       5 <- 26        -0.00138
       5 <- 30         0.00085
       5 <- 32        -0.00055
       5 <- 34        -0.00033
       5 <- 38        -0.00045
       5 <- 39        -0.00017
       5 <- 41         0.00023
       5 <- 43        -0.00034
       5 <- 45        -0.00049
       5 <- 49         0.00024
       6 <- 12         0.00048
       6 <- 16        -0.00071
       6 <- 18         0.00183
       6 <- 22        -0.00099
       6 <- 24         0.00082
       6 <- 29         0.00049
       6 <- 33        -0.00016
       6 <- 35         0.00019
       6 <- 42        -0.00035
       6 <- 48         0.00031
       6 <- 50         0.00054
       7 <- 27         0.00051
       7 <- 46         0.00066
       8 <- 10        -0.00329
       8 <- 11        -0.00113
       8 <- 14        -0.00998
       8 <- 15         0.00071
       8 <- 19        -0.00067
       8 <- 20        -0.00036
       8 <- 21        -0.00355
       8 <- 25        -0.00297
       8 <- 26        -0.00038
       8 <- 30        -0.00063
       8 <- 32         0.00071
       8 <- 34         0.00163
       8 <- 38         0.00065
       8 <- 39         0.00046
       8 <- 43         0.00054
       8 <- 45        -0.00064
       8 <- 49         0.00019
       8 <- 51         0.00011

 Excited State   3:      Singlet-B2     7.1474 eV  173.47 nm  f=0.0205  <S**2>=0.000
       3 -> 12        -0.00017
       3 -> 16        -0.00068
       3 -> 18         0.00036
       3 -> 22         0.00020
       3 -> 24         0.00037
       3 -> 29         0.00129
       3 -> 33         0.00014
       3 -> 35        -0.00032
       3 -> 42        -0.00033
       3 -> 48         0.00022
       3 -> 50         0.00026
       4 -> 12         0.00311
       4 -> 16        -0.00211
       4 -> 18         0.00330
       4 -> 22        -0.00156
       4 -> 24         0.00345
       4 -> 29        -0.00107
       4 -> 33         0.00055
       4 -> 35        -0.00032
       4 -> 40        -0.00018
       4 -> 42        -0.00012
       4 -> 48         0.00017
       4 -> 50         0.00016
       5 -> 10        -0.00676
       5 -> 11         0.00031
       5 -> 14         0.00458
       5 -> 15        -0.00589
       5 -> 19        -0.00385
       5 -> 20        -0.00197
       5 -> 21         0.00112
       5 -> 25         0.00126
       5 -> 26         0.00111
       5 -> 30         0.00103
       5 -> 32        -0.00175
       5 -> 34        -0.00088
       5 -> 39         0.00056
       5 -> 41        -0.00085
       5 -> 45         0.00069
       5 -> 49        -0.00042
       5 -> 51        -0.00028
       6 -> 12        -0.00317
       6 -> 16        -0.00144
       6 -> 18        -0.00198
       6 -> 22         0.00145
       6 -> 29         0.00029
       6 -> 33        -0.00036
       6 -> 35         0.00137
       6 -> 40        -0.00047
       6 -> 42         0.00072
       6 -> 48        -0.00071
       6 -> 50        -0.00067
       6 -> 53         0.00014
       7 -> 27        -0.00064
       7 -> 37        -0.00125
       7 -> 46        -0.00129
       8 -> 10         0.03678
       8 -> 11         0.70518
       8 -> 14        -0.01386
       8 -> 15         0.01968
       8 -> 19        -0.02172
       8 -> 20         0.01348
       8 -> 21        -0.00211
       8 -> 25         0.00035
       8 -> 26         0.00081
       8 -> 30        -0.00142
       8 -> 34         0.00041
       8 -> 39         0.00022
       8 -> 41        -0.00143
       8 -> 45         0.00095
       8 -> 49        -0.00075
       8 -> 51        -0.00033
       8 -> 54        -0.00017
       3 <- 12         0.00029
       3 <- 16        -0.00041
       3 <- 18         0.00063
       3 <- 24         0.00045
       3 <- 29         0.00082
       3 <- 33         0.00020
       3 <- 35        -0.00036
       3 <- 42        -0.00028
       3 <- 48         0.00018
       3 <- 50         0.00015
       3 <- 53        -0.00022
       4 <- 12         0.00034
       4 <- 16         0.00014
       4 <- 18         0.00115
       4 <- 22        -0.00125
       4 <- 24         0.00149
       4 <- 29        -0.00044
       4 <- 33         0.00053
       4 <- 40        -0.00017
       4 <- 42        -0.00016
       4 <- 48         0.00010
       4 <- 50         0.00022
       5 <- 10         0.00134
       5 <- 11        -0.00059
       5 <- 14         0.00205
       5 <- 15        -0.00048
       5 <- 19         0.00069
       5 <- 21         0.00096
       5 <- 25         0.00101
       5 <- 26         0.00080
       5 <- 30         0.00077
       5 <- 32        -0.00027
       5 <- 34        -0.00125
       5 <- 38         0.00015
       5 <- 39         0.00033
       5 <- 41        -0.00087
       5 <- 43        -0.00011
       5 <- 45         0.00066
       5 <- 49        -0.00028
       5 <- 51        -0.00027
       6 <- 12        -0.00036
       6 <- 18        -0.00030
       6 <- 22         0.00037
       6 <- 33        -0.00015
       6 <- 35         0.00100
       6 <- 40        -0.00036
       6 <- 42         0.00050
       6 <- 48        -0.00061
       6 <- 50        -0.00059
       7 <- 27        -0.00021
       7 <- 37        -0.00101
       7 <- 46        -0.00110
       8 <- 10        -0.00112
       8 <- 11         0.00078
       8 <- 14        -0.00506
       8 <- 15         0.00085
       8 <- 19         0.00251
       8 <- 20        -0.00159
       8 <- 21        -0.00230
       8 <- 25        -0.00014
       8 <- 26         0.00128
       8 <- 30        -0.00083
       8 <- 32         0.00118
       8 <- 38        -0.00023
       8 <- 41        -0.00120
       8 <- 45         0.00079
       8 <- 49        -0.00048
       8 <- 51        -0.00030

 Excited State   4:      Singlet-A1     7.2879 eV  170.12 nm  f=0.0519  <S**2>=0.000
       3 -> 10         0.00150
       3 -> 11        -0.00098
       3 -> 14         0.00035
       3 -> 15        -0.00047
       3 -> 19         0.00114
       3 -> 20         0.00075
       3 -> 26        -0.00041
       3 -> 30         0.00119
       3 -> 32        -0.00032
       3 -> 34        -0.00022
       3 -> 38        -0.00034
       3 -> 39         0.00017
       3 -> 41        -0.00019
       3 -> 49        -0.00013
       3 -> 51        -0.00034
       3 -> 54        -0.00021
       4 -> 10         0.00550
       4 -> 11         0.00900
       4 -> 14         0.00607
       4 -> 15        -0.00072
       4 -> 19         0.00064
       4 -> 20         0.00604
       4 -> 21         0.00253
       4 -> 25         0.00706
       4 -> 26        -0.00083
       4 -> 30        -0.00058
       4 -> 32        -0.00026
       4 -> 34        -0.00088
       4 -> 38        -0.00010
       4 -> 39        -0.00049
       4 -> 41         0.00021
       4 -> 43         0.00011
       4 -> 45        -0.00028
       4 -> 49        -0.00023
       5 -> 12         0.00777
       5 -> 16        -0.00307
       5 -> 18         0.01110
       5 -> 22        -0.00043
       5 -> 24         0.00477
       5 -> 29         0.00036
       5 -> 33        -0.00016
       5 -> 35         0.00087
       5 -> 42        -0.00017
       5 -> 50        -0.00036
       5 -> 53        -0.00015
       6 -> 10         0.01339
       6 -> 11        -0.00459
       6 -> 14         0.00381
       6 -> 15         0.00145
       6 -> 19         0.00610
       6 -> 20         0.00412
       6 -> 21         0.00170
       6 -> 25         0.00226
       6 -> 26        -0.00055
       6 -> 30        -0.00047
       6 -> 32         0.00055
       6 -> 34        -0.00077
       6 -> 39        -0.00014
       6 -> 43         0.00011
       6 -> 49        -0.00020
       6 -> 51         0.00054
       7 ->  9         0.01002
       7 -> 13         0.00593
       7 -> 17         0.00494
       7 -> 23         0.00478
       7 -> 28         0.00025
       7 -> 31         0.00085
       7 -> 36         0.00054
       7 -> 44         0.00061
       7 -> 47        -0.00036
       8 -> 12         0.70563
       8 -> 16        -0.03068
       8 -> 18         0.02150
       8 -> 22         0.00498
       8 -> 24         0.00170
       8 -> 29         0.00221
       8 -> 33         0.00151
       8 -> 35        -0.00228
       8 -> 40        -0.00018
       8 -> 42         0.00112
       8 -> 48        -0.00037
       8 -> 50        -0.00023
       8 -> 53        -0.00017
       3 <- 10         0.00058
       3 <- 11        -0.00028
       3 <- 14         0.00023
       3 <- 15        -0.00017
       3 <- 19         0.00056
       3 <- 20         0.00034
       3 <- 21         0.00015
       3 <- 25         0.00020
       3 <- 26        -0.00019
       3 <- 30         0.00072
       3 <- 32        -0.00025
       3 <- 34        -0.00011
       3 <- 38        -0.00027
       3 <- 39         0.00015
       3 <- 41        -0.00017
       3 <- 45         0.00013
       3 <- 49        -0.00014
       3 <- 51        -0.00030
       3 <- 54        -0.00019
       4 <- 10         0.00528
       4 <- 11         0.00276
       4 <- 14         0.00446
       4 <- 15        -0.00102
       4 <- 19         0.00049
       4 <- 20         0.00341
       4 <- 21         0.00101
       4 <- 25         0.00409
       4 <- 26        -0.00042
       4 <- 32        -0.00054
       4 <- 34        -0.00097
       4 <- 38        -0.00017
       4 <- 39        -0.00047
       4 <- 45        -0.00027
       4 <- 49        -0.00020
       5 <- 12         0.00275
       5 <- 16         0.00023
       5 <- 18         0.00442
       5 <- 22         0.00014
       5 <- 24         0.00259
       5 <- 33        -0.00032
       5 <- 35         0.00079
       5 <- 42        -0.00015
       5 <- 50        -0.00026
       5 <- 53        -0.00014
       6 <- 10         0.00409
       6 <- 11        -0.00079
       6 <- 14         0.00171
       6 <- 15         0.00048
       6 <- 19         0.00235
       6 <- 20         0.00219
       6 <- 21         0.00066
       6 <- 25         0.00126
       6 <- 26        -0.00055
       6 <- 30        -0.00016
       6 <- 32         0.00030
       6 <- 34        -0.00060
       6 <- 39        -0.00021
       6 <- 41         0.00014
       6 <- 51         0.00050
       7 <-  9         0.00239
       7 <- 13         0.00194
       7 <- 17         0.00191
       7 <- 23         0.00265
       7 <- 31         0.00062
       7 <- 36         0.00044
       7 <- 44         0.00051
       7 <- 47        -0.00032
       8 <- 12        -0.00242
       8 <- 16        -0.00825
       8 <- 18        -0.00543
       8 <- 22         0.00037
       8 <- 24        -0.00238
       8 <- 29         0.00075
       8 <- 33         0.00096
       8 <- 35        -0.00143
       8 <- 40        -0.00020
       8 <- 42         0.00093
       8 <- 48        -0.00044
       8 <- 50        -0.00020
       8 <- 53        -0.00018

 Excited State   5:      Singlet-A2     7.8355 eV  158.23 nm  f=0.0000  <S**2>=0.000
       3 -> 27        -0.00101
       3 -> 37        -0.00088
       3 -> 46        -0.00049
       4 -> 27        -0.00011
       4 -> 37         0.00062
       4 -> 46         0.00016
       5 ->  9        -0.00988
       5 -> 13         0.00243
       5 -> 17         0.00467
       5 -> 23        -0.00044
       5 -> 31        -0.00200
       5 -> 36        -0.00167
       5 -> 44        -0.00027
       5 -> 52        -0.00024
       6 -> 27         0.00011
       6 -> 37         0.00027
       6 -> 46        -0.00052
       7 -> 12        -0.00045
       7 -> 16        -0.00194
       7 -> 18         0.00139
       7 -> 22        -0.00088
       7 -> 24        -0.00024
       7 -> 29         0.00024
       7 -> 35        -0.00024
       7 -> 42        -0.00019
       7 -> 48        -0.00019
       7 -> 53        -0.00012
       8 ->  9         0.09983
       8 -> 13         0.69960
       8 -> 17         0.00757
       8 -> 23         0.02062
       8 -> 28        -0.00064
       8 -> 31        -0.00125
       8 -> 36         0.00023
       8 -> 47         0.00018
       8 -> 52        -0.00029
       3 <- 27        -0.00050
       3 <- 37        -0.00068
       3 <- 46        -0.00059
       4 <- 27        -0.00059
       4 <- 46         0.00017
       5 <-  9        -0.00026
       5 <- 13        -0.00013
       5 <- 17         0.00063
       5 <- 23        -0.00010
       5 <- 36        -0.00045
       5 <- 44        -0.00011
       6 <- 27        -0.00018
       6 <- 37         0.00024
       6 <- 46        -0.00021
       7 <- 12        -0.00062
       7 <- 16        -0.00059
       7 <- 18         0.00060
       7 <- 22        -0.00175
       7 <- 24        -0.00014
       7 <- 29         0.00012
       7 <- 33         0.00056
       7 <- 35        -0.00096
       7 <- 40         0.00018
       7 <- 42        -0.00051
       7 <- 53        -0.00024
       8 <-  9         0.00455
       8 <- 13         0.00097
       8 <- 17         0.00033
       8 <- 23        -0.00037
       8 <- 28         0.00014
       8 <- 31        -0.00039
       8 <- 36         0.00046
       8 <- 52        -0.00013

 Excited State   6:      Singlet-B2    10.1778 eV  121.82 nm  f=0.2408  <S**2>=0.000
       3 -> 12        -0.00040
       3 -> 16        -0.00195

 The electronic state is 1-A1.
 Alpha  occ. eigenvalues --  -19.13948 -10.24617  -1.20049  -0.61312  -0.55895
 Alpha  occ. eigenvalues --   -0.49772  -0.49698  -0.25979
 Alpha virt. eigenvalues --   -0.00862   0.01295   0.04266   0.04380   0.07437
 Alpha virt. eigenvalues --    0.13824   0.18020   0.20112   0.21986   0.22552
 Alpha virt. eigenvalues --    0.26861   0.35793   0.49321   0.50935   0.51578

 Mulliken charges:
               1
     1  C    0.113091
     2  H    0.046294
     3  H    0.046294
     4  O   -0.205679
 Sum of Mulliken charges =  -0.00000

 Dipole moment (field-independent basis, Debye):
    X=              0.0000    Y=              0.0000    Z=             -1.3250  Tot=              1.3250
 Quadrupole moment (field-independent basis, Debye-Ang):
   XX=            -11.1209   YY=            -11.9976   ZZ=            -12.9532
   XY=             -0.0000   XZ=             -0.0000   YZ=             -0.0000

 Normal termination of Gaussian 16 at Fri Sep 17 10:52:36 2021.
