 Gaussian 16, Revision C.01,
 Gaussian 16:  ES64L-G16RevC.01  3-Jul-2019

 ---------------------------------------
 #P wB97XD/6-311+G* NoSymm #P Field=Y-29
 ---------------------------------------

 -------
 TitleMe
 -------
 Symbolic Z-matrix:
 Charge =  1 Multiplicity = 1

                          Input orientation:
 ---------------------------------------------------------------------
 Center     Atomic      Atomic             Coordinates (Angstroms)
 Number     Number       Type             X           Y           Z
 ---------------------------------------------------------------------
      1          6           0        0.519300    1.233000   -0.031900
      2          6           0        1.944500    1.269200   -0.036700
      3          6           0        2.620400    0.092800   -0.025000
      4          6           0       -0.196000    0.030100    0.001000
      5          1           0       -0.020700    2.174200   -0.043400
      6          1           0        2.482800    2.208900   -0.036100
      7          1           0       -1.277700    0.039900    0.011700
      8          7           0        4.092100    0.095900    0.036600
      9          8           0        4.639300   -1.021700    0.144600
     10          8           0        4.664900    1.198400   -0.023300
     11          6           0        0.494300   -1.167100    0.021000
     12          1           0       -0.032500   -2.114900    0.054500
     13          6           0        1.962900   -1.216500   -0.021100
     14          1           0        2.443600   -1.963100    0.615100
     15         35           0        2.173000   -1.949100   -1.906200
 ---------------------------------------------------------------------

 SCF Done:  E(RwB97XD) =  -3010.53135713     A.U. after   19 cycles

 Alpha  occ. eigenvalues -- -483.31473 -62.86500 -56.66188 -56.65625 -56.65616
 Alpha  occ. eigenvalues --  -19.46218 -19.46173 -14.85629 -10.59201 -10.58325
 Alpha  occ. eigenvalues --  -10.57419 -10.56907 -10.53240 -10.52778  -9.02308
 Alpha  occ. eigenvalues --   -6.84976  -6.83125  -6.83097  -2.94883  -2.94394
 Alpha  occ. eigenvalues --   -2.94372  -2.92891  -2.92890  -1.49888  -1.32846
 Alpha  occ. eigenvalues --   -1.22499  -1.12918  -1.12510  -1.04943  -1.00371
 Alpha  occ. eigenvalues --   -0.95400  -0.90591  -0.84964  -0.80903  -0.80192
 Alpha  occ. eigenvalues --   -0.80035  -0.77956  -0.76166  -0.75628  -0.72067
 Alpha  occ. eigenvalues --   -0.68565  -0.67553  -0.63390  -0.59973  -0.57408
 Alpha  occ. eigenvalues --   -0.56867  -0.56479  -0.55891  -0.54761
 Alpha virt. eigenvalues --   -0.30170  -0.20351  -0.15871  -0.13085  -0.08972
 Alpha virt. eigenvalues --   -0.06068  -0.05718  -0.04918  -0.04293  -0.03149
 Alpha virt. eigenvalues --   -0.02436  -0.01889  -0.01688  -0.00946   0.00159

 Mulliken charges:
               1
     1  C   -0.111184
     2  C    0.185112
     3  C   -0.069648
     4  C   -0.325706
     5  H    0.357371
     6  H    0.361201
     7  H    0.331429
     8  N   -0.238939
     9  O    0.072343
    10  O    0.086531
    11  C   -0.205667
    12  H    0.346106
    13  C   -0.354929
    14  H    0.404182
    15  Br   0.161797
 Sum of Mulliken charges =   1.00000

 Dipole moment (field-independent basis, Debye):
    X=              2.7389    Y=             -0.0549    Z=             -0.6353  Tot=              2.8122
 Quadrupole moment (field-independent basis, Debye-Ang):
   XX=            -67.8948   YY=            -51.5866   ZZ=            -62.4773
   XY=             -1.1963   XZ=             -2.3090   YZ=              2.0092

 Normal termination of Gaussian 16 at Thu May  2 14:18:07 2024.
