 Gaussian 16, Revision C.01,
 Gaussian 16:  ES64L-G16RevC.01  3-Jul-2019

 ----------------------------------------
 #P wB97XD/6-311+G* NoSymm #P Field=X-243
 ----------------------------------------

 -------
 TitleMe
 -------
 Symbolic Z-matrix:
 Charge =  1 Multiplicity = 1

                          Input orientation:
 ---------------------------------------------------------------------
 Center     Atomic      Atomic             Coordinates (Angstroms)
 Number     Number       Type             X           Y           Z
 ---------------------------------------------------------------------
      1          6           0        0.029500    1.339700    0.068200
      2          6           0        1.434800    1.286700    0.006400
      3          6           0        2.111800    0.051100   -0.005400
      4          6           0        1.445100   -1.137200    0.031200
      5          6           0       -0.687900    0.168200    0.110000
      6          1           0       -0.471300    2.298400    0.078100
      7          1           0        2.027300    2.196500   -0.032200
      8          1           0        1.989700   -2.076400    0.023200
      9          1           0       -1.771600    0.180400    0.158200
     10          7           0        3.586400    0.051000   -0.067500
     11          8           0        4.147100   -1.059700   -0.088100
     12          8           0        4.145000    1.163900   -0.090100
     13          6           0       -0.023600   -1.145800    0.083500
     14          1           0       -0.436700   -1.872500    0.788900
     15         35           0       -0.535900   -1.869700   -1.740800
 ---------------------------------------------------------------------

 SCF Done:  E(RwB97XD) =  -3010.56294740     A.U. after   30 cycles

 Alpha  occ. eigenvalues -- -483.29697 -62.84751 -56.64394 -56.63896 -56.63888
 Alpha  occ. eigenvalues --  -19.34336 -19.34286 -14.73710 -10.56216 -10.53975
 Alpha  occ. eigenvalues --  -10.52727 -10.51820 -10.51074 -10.50694  -9.00579
 Alpha  occ. eigenvalues --   -6.83115  -6.81470  -6.81442  -2.93053  -2.92617
 Alpha  occ. eigenvalues --   -2.92593  -2.91276  -2.91276  -1.37867  -1.20736
 Alpha  occ. eigenvalues --   -1.18850  -1.10234  -1.07612  -1.01913  -0.94679
 Alpha  occ. eigenvalues --   -0.91636  -0.86029  -0.80603  -0.76272  -0.75257
 Alpha  occ. eigenvalues --   -0.72851  -0.71038  -0.69831  -0.67744  -0.65396
 Alpha  occ. eigenvalues --   -0.64960  -0.62368  -0.60084  -0.57117  -0.55412
 Alpha  occ. eigenvalues --   -0.52406  -0.44855  -0.43315  -0.43190
 Alpha virt. eigenvalues --   -0.26371  -0.16956  -0.14645  -0.13386  -0.12121
 Alpha virt. eigenvalues --   -0.09916  -0.08289  -0.06374  -0.04223  -0.03840
 Alpha virt. eigenvalues --   -0.02873  -0.01390  -0.00256   0.00337   0.01059

 Mulliken charges:
               1
     1  C   -0.499859
     2  C    0.367773
     3  C   -0.588397
     4  C    0.320503
     5  C   -0.038819
     6  H    0.281732
     7  H    0.405864
     8  H    0.407463
     9  H    0.231516
    10  N   -0.128897
    11  O    0.158690
    12  O    0.156927
    13  C   -0.481356
    14  H    0.363677
    15  Br   0.043183
 Sum of Mulliken charges =   1.00000

 Dipole moment (field-independent basis, Debye):
    X=              6.9319    Y=              0.2429    Z=              0.5788  Tot=              6.9603
 Quadrupole moment (field-independent basis, Debye-Ang):
   XX=            -53.0435   YY=            -53.0833   ZZ=            -64.7151
   XY=             -0.1053   XZ=             -0.9018   YZ=             -0.0750

 Normal termination of Gaussian 16 at Wed May  1 14:58:09 2024.
