 Gaussian 16, Revision C.01,
 Gaussian 16:  ES64L-G16RevC.01  3-Jul-2019

 ----------------------------------------
 #P wB97XD/6-311+G* NoSymm #P Field=Y+107
 ----------------------------------------

 -------
 TitleMe
 -------
 Symbolic Z-matrix:
 Charge =  1 Multiplicity = 1

                          Input orientation:
 ---------------------------------------------------------------------
 Center     Atomic      Atomic             Coordinates (Angstroms)
 Number     Number       Type             X           Y           Z
 ---------------------------------------------------------------------
      1          6           0        0.519300    1.233000   -0.031900
      2          6           0        1.944500    1.269200   -0.036700
      3          6           0        2.620400    0.092800   -0.025000
      4          6           0       -0.196000    0.030100    0.001000
      5          1           0       -0.020700    2.174200   -0.043400
      6          1           0        2.482800    2.208900   -0.036100
      7          1           0       -1.277700    0.039900    0.011700
      8          7           0        4.092100    0.095900    0.036600
      9          8           0        4.639300   -1.021700    0.144600
     10          8           0        4.664900    1.198400   -0.023300
     11          6           0        0.494300   -1.167100    0.021000
     12          1           0       -0.032500   -2.114900    0.054500
     13          6           0        1.962900   -1.216500   -0.021100
     14          1           0        2.443600   -1.963100    0.615100
     15         35           0        2.173000   -1.949100   -1.906200
 ---------------------------------------------------------------------

 SCF Done:  E(RwB97XD) =  -3010.54232977     A.U. after   20 cycles

 Alpha  occ. eigenvalues -- -483.29496 -62.84492 -56.64210 -56.63611 -56.63593
 Alpha  occ. eigenvalues --  -19.46237 -19.46014 -14.85497 -10.58849 -10.56720
 Alpha  occ. eigenvalues --  -10.56458 -10.56364 -10.53476 -10.52249  -9.00277
 Alpha  occ. eigenvalues --   -6.83023  -6.81060  -6.81008  -2.92911  -2.92401
 Alpha  occ. eigenvalues --   -2.92359  -2.90788  -2.90788  -1.49790  -1.32758
 Alpha  occ. eigenvalues --   -1.21767  -1.12333  -1.11640  -1.03710  -0.99600
 Alpha  occ. eigenvalues --   -0.94708  -0.90109  -0.84658  -0.80592  -0.79864
 Alpha  occ. eigenvalues --   -0.79630  -0.77408  -0.75994  -0.74963  -0.71226
 Alpha  occ. eigenvalues --   -0.67916  -0.67078  -0.62665  -0.58899  -0.57258
 Alpha  occ. eigenvalues --   -0.56464  -0.55787  -0.54155  -0.53152
 Alpha virt. eigenvalues --   -0.29297  -0.20178  -0.14404  -0.12590  -0.11683
 Alpha virt. eigenvalues --   -0.07835  -0.06181  -0.05292  -0.04225  -0.03302
 Alpha virt. eigenvalues --   -0.01793  -0.01132  -0.00405  -0.00122   0.00834

 Mulliken charges:
               1
     1  C   -0.104402
     2  C    0.190425
     3  C   -0.098507
     4  C   -0.362834
     5  H    0.299126
     6  H    0.307746
     7  H    0.328103
     8  N   -0.244173
     9  O    0.148207
    10  O    0.008602
    11  C   -0.186702
    12  H    0.394046
    13  C   -0.380575
    14  H    0.436692
    15  Br   0.264247
 Sum of Mulliken charges =   1.00000

 Dipole moment (field-independent basis, Debye):
    X=              2.9419    Y=             -4.0498    Z=             -1.1870  Tot=              5.1443
 Quadrupole moment (field-independent basis, Debye-Ang):
   XX=            -67.6947   YY=            -49.6981   ZZ=            -61.0340
   XY=             -9.5379   XZ=             -3.5149   YZ=              4.1211

 Normal termination of Gaussian 16 at Thu May  2 14:19:10 2024.
