 Gaussian 16, Revision A.03,
 Gaussian 16:  ES64L-G16RevA.03 25-Dec-2016

 --------------------------------------------------------------------
 #p B3LYP/6-311+G** #p TD=(singlets,nstates=30)IOp(6/8=3) IOp(9/40=4)
 --------------------------------------------------------------------

 -------------------------------
 Scan Step 214, Bond Length 1.57
 -------------------------------
 Symbolic Z-matrix:
 Charge =  0 Multiplicity = 1

                         Standard orientation:
 ---------------------------------------------------------------------
 Center     Atomic      Atomic             Coordinates (Angstroms)
 Number     Number       Type             X           Y           Z
 ---------------------------------------------------------------------
      1          6           0        0.000000    0.000000   -0.711081
      2          1           0        0.000000    0.937260   -1.302431
      3          1           0       -0.000000   -0.937260   -1.302431
      4          8           0        0.000000   -0.000000    0.858919
 ---------------------------------------------------------------------

 SCF Done:  E(RB3LYP) =  -114.439091473     A.U. after   10 cycles

 Excitation energies and oscillator strengths:

 Excited State   1:      Singlet-A2     2.0980 eV  590.97 nm  f=0.0000  <S**2>=0.000
       3 -> 27         0.00126
       3 -> 38         0.00095
       3 -> 46         0.00326
       4 -> 27         0.00076
       4 -> 38        -0.00015
       4 -> 46        -0.00133
       5 ->  9         0.00842
       5 -> 13         0.00085
       5 -> 18         0.00307
       5 -> 23         0.00161
       5 -> 28         0.00270
       5 -> 31        -0.00022
       5 -> 37         0.00150
       5 -> 44         0.00035
       5 -> 52         0.00037
       6 -> 27        -0.00062
       6 -> 38        -0.00079
       6 -> 46         0.00139
       7 -> 12        -0.00087
       7 -> 16         0.00465
       7 -> 19        -0.00396
       7 -> 22        -0.00071
       7 -> 25         0.00099
       7 -> 30        -0.00149
       7 -> 33         0.00038
       7 -> 49         0.00013
       7 -> 50         0.00017
       7 -> 53         0.00045
       8 ->  9         0.70830
       8 -> 13        -0.01439
       8 -> 18         0.02172
       8 -> 23        -0.00385
       8 -> 28         0.01106
       8 -> 31         0.00091
       8 -> 37         0.00064
       8 -> 48        -0.00031
       8 -> 52         0.00194
       3 <- 27         0.00061
       3 <- 38         0.00067
       3 <- 46         0.00332
       4 <- 27         0.00131
       4 <- 38         0.00023
       4 <- 46        -0.00107
       5 <-  9        -0.00030
       5 <- 13        -0.00055
       5 <- 18        -0.00072
       5 <- 23         0.00029
       5 <- 28        -0.00050
       5 <- 31         0.00037
       5 <- 37         0.00083
       5 <- 44         0.00012
       6 <- 38        -0.00065
       6 <- 46         0.00107
       7 <- 12         0.00051
       7 <- 16        -0.00992
       7 <- 19         0.00349
       7 <- 22         0.00702
       7 <- 25         0.00051
       7 <- 30         0.00519
       7 <- 33        -0.00057
       7 <- 36         0.00094
       7 <- 40         0.00054
       7 <- 42         0.00013
       7 <- 49        -0.00037
       7 <- 50         0.00011
       7 <- 53         0.00146
       8 <-  9        -0.04901
       8 <- 13         0.00061
       8 <- 18        -0.00643
       8 <- 23         0.00023
       8 <- 28        -0.00230
       8 <- 31        -0.00061
       8 <- 37        -0.00051
       8 <- 52         0.00051
 This state for optimization and/or second-order correction.
 Total Energy, E(TD-HF/TD-DFT) =  -114.361991630
 Copying the excited state density for this state as the 1-particle RhoCI density.

 Excited State   2:      Singlet-A1     5.3620 eV  231.23 nm  f=0.0835  <S**2>=0.000
       3 -> 10        -0.01355
       3 -> 11        -0.01556
       3 -> 14         0.01261
       3 -> 15         0.00927
       3 -> 17        -0.00359
       3 -> 20        -0.00375
       3 -> 21        -0.00159
       3 -> 24         0.00288
       3 -> 26         0.00447
       3 -> 29        -0.00102
       3 -> 32         0.00277
       3 -> 34         0.00282
       3 -> 35        -0.00076
       3 -> 39         0.00089
       3 -> 43         0.00043
       3 -> 45        -0.00020
       3 -> 47         0.00222
       3 -> 51         0.00093
       3 -> 54         0.00022
       4 -> 10        -0.01447
       4 -> 11         0.01160
       4 -> 14         0.00745
       4 -> 15        -0.00953
       4 -> 17         0.00320
       4 -> 20         0.00591
       4 -> 21         0.00040
       4 -> 24        -0.00535
       4 -> 26         0.00528
       4 -> 29         0.00114
       4 -> 32        -0.00130
       4 -> 34        -0.00196
       4 -> 35         0.00030
       4 -> 39        -0.00012
       4 -> 41         0.00014
       4 -> 43        -0.00040
       4 -> 45        -0.00071
       4 -> 47        -0.00136
       4 -> 51        -0.00031
       5 -> 12         0.01884
       5 -> 16         0.01311
       5 -> 19         0.00153
       5 -> 22         0.00713
       5 -> 25         0.00894
       5 -> 30        -0.00051
       5 -> 33        -0.00316
       5 -> 36         0.00270
       5 -> 40         0.00153
       5 -> 42         0.00062
       5 -> 49         0.00051
       5 -> 50        -0.00065
       5 -> 53        -0.00016
       6 -> 10         0.11390
       6 -> 11         0.11219
       6 -> 14        -0.09486
       6 -> 15        -0.08300
       6 -> 17        -0.02044
       6 -> 20        -0.01368
       6 -> 21         0.01557
       6 -> 24        -0.01540
       6 -> 26        -0.00759
       6 -> 29        -0.00847
       6 -> 32         0.00054
       6 -> 34         0.00157
       6 -> 35        -0.00096
       6 -> 39         0.00075
       6 -> 41        -0.00048
       6 -> 43         0.00077
       6 -> 45         0.00072
       6 -> 47         0.00139
       6 -> 51         0.00084
       6 -> 54        -0.00060
       7 ->  9         0.68497
       7 -> 13         0.00297
       7 -> 18        -0.01984
       7 -> 23         0.00081
       7 -> 28        -0.00194
       7 -> 31        -0.00290
       7 -> 37         0.00078
       7 -> 44        -0.00106
       7 -> 48         0.00046
       7 -> 52         0.00104
       8 -> 12        -0.00671
       8 -> 16         0.07703
       8 -> 19        -0.02502
       8 -> 22        -0.02942
       8 -> 25         0.00088
       8 -> 30        -0.01269
       8 -> 33         0.00263
       8 -> 36        -0.00323
       8 -> 40        -0.00153
       8 -> 42        -0.00034
       8 -> 49         0.00063
       8 -> 50         0.00025
       8 -> 53        -0.00075
       3 <- 10        -0.00882
       3 <- 11        -0.01066
       3 <- 14         0.00919
       3 <- 15         0.00626
       3 <- 17        -0.00182
       3 <- 20        -0.00262
       3 <- 21        -0.00180
       3 <- 24         0.00185
       3 <- 26         0.00273
       3 <- 29        -0.00060
       3 <- 32         0.00254
       3 <- 34         0.00185
       3 <- 35        -0.00067
       3 <- 39         0.00077
       3 <- 41         0.00010
       3 <- 43         0.00052
       3 <- 47         0.00236
       3 <- 51         0.00090
       3 <- 54         0.00031
       4 <- 10        -0.00714
       4 <- 11         0.00713
       4 <- 14         0.00368
       4 <- 15        -0.00561
       4 <- 17         0.00157
       4 <- 20         0.00472
       4 <- 21         0.00031
       4 <- 24        -0.00357
       4 <- 26         0.00409
       4 <- 29         0.00030
       4 <- 32        -0.00162
       4 <- 34        -0.00173
       4 <- 35         0.00051
       4 <- 39        -0.00019
       4 <- 43        -0.00040
       4 <- 45        -0.00087
       4 <- 47        -0.00096
       4 <- 51        -0.00014
       5 <- 12         0.00799
       5 <- 16         0.00643
       5 <- 19         0.00104
       5 <- 22         0.00429
       5 <- 25         0.00592
       5 <- 30        -0.00022
       5 <- 33        -0.00242
       5 <- 36         0.00218
       5 <- 40         0.00132
       5 <- 42         0.00051
       5 <- 49         0.00044
       5 <- 50        -0.00059
       5 <- 53        -0.00014
       6 <- 10         0.03225
       6 <- 11         0.03395
       6 <- 14        -0.03587
       6 <- 15        -0.03409
       6 <- 17        -0.00951
       6 <- 20        -0.00810
       6 <- 21         0.00878
       6 <- 24        -0.00920
       6 <- 26        -0.00446
       6 <- 29        -0.00571
       6 <- 32         0.00101
       6 <- 34         0.00190
       6 <- 35        -0.00098
       6 <- 39         0.00085
       6 <- 41        -0.00033
       6 <- 43         0.00067
       6 <- 45         0.00071
       6 <- 47         0.00091
       6 <- 51         0.00066
       6 <- 54        -0.00050
       7 <-  9        -0.12173
       7 <- 13         0.00816
       7 <- 18        -0.01414
       7 <- 23         0.00404
       7 <- 28        -0.00423
       7 <- 31        -0.00128
       7 <- 37         0.00024
       7 <- 44        -0.00060
       7 <- 48        -0.00013
       7 <- 52         0.00090
       8 <- 12        -0.00138
       8 <- 16         0.02538
       8 <- 19        -0.01011
       8 <- 22        -0.01535
       8 <- 25         0.00024
       8 <- 30        -0.00898
       8 <- 33         0.00193
       8 <- 36        -0.00244
       8 <- 40        -0.00122
       8 <- 42        -0.00028
       8 <- 49         0.00042
       8 <- 50         0.00020
       8 <- 53        -0.00068

 Excited State   3:      Singlet-B1     5.6313 eV  220.17 nm  f=0.0015  <S**2>=0.000
       3 ->  9        -0.02970
       3 -> 13         0.00193
       3 -> 18        -0.00490
       3 -> 23         0.00194
       3 -> 28        -0.00105
       3 -> 31        -0.00048
       3 -> 44         0.00026
       3 -> 48         0.00092
       3 -> 52         0.00099
       4 ->  9         0.01403
       4 -> 13        -0.00269
       4 -> 18         0.00032
       4 -> 23        -0.00245
       4 -> 28         0.00022
       4 -> 31        -0.00160
       4 -> 37        -0.00042
       4 -> 44         0.00012
       4 -> 48        -0.00117
       4 -> 52        -0.00063
       5 -> 27        -0.00027
       5 -> 38         0.00201
       5 -> 46         0.00105
       6 ->  9         0.70566
       6 -> 13        -0.02099
       6 -> 18         0.01734
       6 -> 23        -0.01113
       6 -> 28         0.00453
       6 -> 31         0.00342
       6 -> 37        -0.00225
       6 -> 44        -0.00297
       6 -> 48         0.00429
       6 -> 52         0.00151
       7 -> 10         0.02536
       7 -> 11         0.02242
       7 -> 14        -0.01482
       7 -> 15        -0.00780
       7 -> 17        -0.00937
       7 -> 20         0.00275
       7 -> 21        -0.00010
       7 -> 24        -0.00038
       7 -> 26        -0.00133
       7 -> 29        -0.00401
       7 -> 32        -0.00073
       7 -> 34         0.00054
       7 -> 35         0.00183
       7 -> 39         0.00013
       7 -> 41        -0.00067
       7 -> 43         0.00058
       7 -> 45        -0.00085
       7 -> 47         0.00433
       7 -> 51         0.00117
       7 -> 54         0.00045
       8 -> 27         0.00065
       8 -> 38         0.00015
       8 -> 46         0.00553
       3 <-  9        -0.00990
       3 <- 13        -0.00054
       3 <- 18        -0.00298
       3 <- 23        -0.00050
       3 <- 28        -0.00069
       3 <- 31        -0.00064
       3 <- 44        -0.00027
       3 <- 48         0.00111
       3 <- 52         0.00079
       4 <-  9         0.00671
       4 <- 13        -0.00020
       4 <- 18         0.00203
       4 <- 23        -0.00054
       4 <- 28         0.00173
       4 <- 31        -0.00110
       4 <- 37        -0.00020
       4 <- 44         0.00012
       4 <- 48        -0.00101
       4 <- 52        -0.00036
       5 <- 27        -0.00079
       5 <- 38         0.00162
       5 <- 46         0.00093
       6 <-  9        -0.02449
       6 <- 13         0.00172
       6 <- 18        -0.00318
       6 <- 23        -0.00028
       6 <- 28        -0.00328
       6 <- 31         0.00140
       6 <- 37        -0.00198
       6 <- 44        -0.00166
       6 <- 48         0.00384
       6 <- 52         0.00052
       7 <- 10        -0.01171
       7 <- 11        -0.01215
       7 <- 14         0.01334
       7 <- 15         0.01436
       7 <- 17         0.00121
       7 <- 20         0.00526
       7 <- 21        -0.00459
       7 <- 24         0.00458
       7 <- 26         0.00184
       7 <- 29         0.00097
       7 <- 32        -0.00033
       7 <- 34         0.00033
       7 <- 35         0.00282
       7 <- 39         0.00042
       7 <- 41        -0.00030
       7 <- 43         0.00046
       7 <- 45        -0.00094
       7 <- 47         0.00392
       7 <- 51         0.00101
       7 <- 54         0.00108
       8 <- 27         0.00109
       8 <- 38         0.00033
       8 <- 46         0.00512

 Excited State   4:      Singlet-B2     6.3553 eV  195.09 nm  f=0.0169  <S**2>=0.000
       3 -> 12        -0.00162
       3 -> 16         0.00178
       3 -> 19        -0.00425
       3 -> 22         0.00038
       3 -> 25         0.00018
       3 -> 30        -0.00319
       3 -> 33        -0.00034
       3 -> 36         0.00209
       3 -> 40         0.00166
       3 -> 42         0.00018
       3 -> 49        -0.00234
       3 -> 50         0.00022
       3 -> 53         0.00027
       4 -> 12         0.00047
       4 -> 16        -0.00285
       4 -> 19        -0.00019
       4 -> 22         0.00334
       4 -> 25        -0.00234
       4 -> 30         0.00138
       4 -> 33        -0.00046
       4 -> 36         0.00050
       4 -> 40        -0.00051
       4 -> 49         0.00034
       4 -> 50        -0.00010
       5 -> 10         0.00339
       5 -> 11         0.00567
       5 -> 14        -0.01399
       5 -> 15         0.00178
       5 -> 17         0.00114
       5 -> 20         0.00189
       5 -> 21         0.00659
       5 -> 24         0.00189
       5 -> 26        -0.00203
       5 -> 29        -0.00196
       5 -> 32        -0.00118
       5 -> 34        -0.00132
       5 -> 35        -0.00060
       5 -> 39        -0.00094
       5 -> 41         0.00080
       5 -> 45         0.00024
       5 -> 47        -0.00083
       5 -> 51         0.00050
       5 -> 54        -0.00023
       6 -> 12         0.00342
       6 -> 16        -0.00142
       6 -> 19         0.00260
       6 -> 25        -0.00077
       6 -> 30        -0.00055
       6 -> 33         0.00042
       6 -> 36        -0.00218
       6 -> 40        -0.00170
       6 -> 42        -0.00029
       6 -> 49         0.00148
       6 -> 53        -0.00031
       7 -> 27        -0.00061
       7 -> 38         0.00095
       7 -> 46         0.00343
       8 -> 10         0.62766
       8 -> 11         0.29445
       8 -> 14        -0.11743
       8 -> 15        -0.07309
       8 -> 17        -0.01105
       8 -> 20        -0.00329
       8 -> 21         0.00563
       8 -> 24        -0.00587
       8 -> 26        -0.00554
       8 -> 29        -0.00893
       8 -> 32        -0.00240
       8 -> 34        -0.00162
       8 -> 35        -0.00063
       8 -> 39        -0.00053
       8 -> 41         0.00038
       8 -> 43        -0.00055
       8 -> 45         0.00205
       8 -> 47        -0.00382
       8 -> 51         0.00209
       8 -> 54        -0.00138
       3 <- 12        -0.00057
       3 <- 16         0.00042
       3 <- 19        -0.00200
       3 <- 22         0.00085
       3 <- 25         0.00023
       3 <- 30        -0.00127
       3 <- 33        -0.00030
       3 <- 36         0.00165
       3 <- 40         0.00149
       3 <- 42         0.00016
       3 <- 49        -0.00241
       3 <- 50         0.00019
       3 <- 53         0.00078
       4 <- 12        -0.00033
       4 <- 16        -0.00243
       4 <- 19        -0.00041
       4 <- 22         0.00280
       4 <- 25        -0.00144
       4 <- 30         0.00115
       4 <- 33        -0.00055
       4 <- 36         0.00070
       4 <- 40        -0.00016
       4 <- 42         0.00014
       4 <- 49         0.00026
       5 <- 10         0.00089
       5 <- 11        -0.00154
       5 <- 14        -0.00251
       5 <- 15         0.00377
       5 <- 17         0.00024
       5 <- 20         0.00042
       5 <- 21         0.00208
       5 <- 24         0.00273
       5 <- 26        -0.00069
       5 <- 29        -0.00050
       5 <- 32         0.00024
       5 <- 34        -0.00039
       5 <- 39        -0.00030
       5 <- 41         0.00078
       5 <- 43         0.00013
       5 <- 45         0.00053
       5 <- 47        -0.00063
       5 <- 51         0.00026
       6 <- 12         0.00015
       6 <- 16         0.00471
       6 <- 19        -0.00212
       6 <- 22        -0.00337
       6 <- 25        -0.00039
       6 <- 30        -0.00410
       6 <- 33         0.00067
       6 <- 36        -0.00217
       6 <- 40        -0.00168
       6 <- 42        -0.00035
       6 <- 49         0.00155
       6 <- 53        -0.00090
       7 <- 27        -0.00061
       7 <- 38         0.00073
       7 <- 46         0.00281
       8 <- 10        -0.01006
       8 <- 11        -0.01107
       8 <- 14         0.01091
       8 <- 15         0.00566
       8 <- 17         0.00023
       8 <- 20        -0.00210
       8 <- 21        -0.00236
       8 <- 24         0.00104
       8 <- 26         0.00202
       8 <- 29        -0.00084
       8 <- 32         0.00198
       8 <- 34         0.00138
       8 <- 39         0.00135
       8 <- 41         0.00060
       8 <- 43         0.00016
       8 <- 45         0.00252
       8 <- 47        -0.00271
       8 <- 51         0.00124
       8 <- 54        -0.00033

 Excited State   5:      Singlet-B2     7.0803 eV  175.11 nm  f=0.0030  <S**2>=0.000
       3 -> 12         0.00139
       3 -> 16         0.00161
       3 -> 19        -0.00106
       3 -> 22        -0.00038
       3 -> 25         0.00096
       3 -> 30        -0.00254
       3 -> 36         0.00060
       3 -> 40         0.00054
       3 -> 49        -0.00080
       4 -> 12        -0.00138
       4 -> 16         0.00048
       4 -> 19         0.00093
       4 -> 22        -0.00073
       4 -> 25         0.00054
       4 -> 30         0.00135
       4 -> 33        -0.00020
       4 -> 36         0.00039
       4 -> 50        -0.00012
       5 -> 10         0.00795
       5 -> 11        -0.00185
       5 -> 14         0.00101
       5 -> 15         0.00584
       5 -> 17         0.00114
       5 -> 20         0.00198
       5 -> 21         0.00047
       5 -> 24        -0.00029
       5 -> 26        -0.00047
       5 -> 29        -0.00055
       5 -> 32        -0.00156
       5 -> 34         0.00022
       5 -> 35        -0.00041
       5 -> 39        -0.00064
       5 -> 43        -0.00034
       5 -> 45         0.00035
       5 -> 47        -0.00043
       5 -> 51         0.00030
       6 -> 12        -0.00127
       6 -> 16        -0.00028
       6 -> 19         0.00052
       6 -> 22        -0.00103
       6 -> 25         0.00012
       6 -> 30        -0.00087
       6 -> 36        -0.00024
       6 -> 40        -0.00070
       6 -> 42        -0.00021
       6 -> 49         0.00133
       6 -> 50        -0.00011
       6 -> 53        -0.00012
       7 -> 27        -0.00065
       7 -> 38        -0.00016
       7 -> 46         0.00193
       8 -> 10        -0.30566
       8 -> 11         0.63585
       8 -> 14        -0.01424
       8 -> 15        -0.04129
       8 -> 17        -0.00588
       8 -> 20         0.01528
       8 -> 21         0.00406
       8 -> 24        -0.00371
       8 -> 26         0.00124
       8 -> 29        -0.00328
       8 -> 32        -0.00056

 The electronic state is 1-A1.
 Alpha  occ. eigenvalues --  -19.17095 -10.32388  -0.93600  -0.69345  -0.48828
 Alpha  occ. eigenvalues --   -0.41962  -0.33493  -0.28987
 Alpha virt. eigenvalues --   -0.14057  -0.00906   0.01596   0.04099   0.06136
 Alpha virt. eigenvalues --    0.09609   0.13480   0.14652   0.18947   0.21460
 Alpha virt. eigenvalues --    0.23948   0.30124   0.39292   0.41423   0.50958

 Mulliken charges:
               1
     1  C   -0.055202
     2  H    0.176173
     3  H    0.176173
     4  O   -0.297145
 Sum of Mulliken charges =   0.00000

 Dipole moment (field-independent basis, Debye):
    X=             -0.0000    Y=             -0.0000    Z=             -3.6880  Tot=              3.6880
 Quadrupole moment (field-independent basis, Debye-Ang):
   XX=            -12.6759   YY=            -11.8668   ZZ=            -11.4019
   XY=              0.0000   XZ=              0.0000   YZ=             -0.0000

 Normal termination of Gaussian 16 at Fri Sep 17 10:52:59 2021.
