 Gaussian 16, Revision A.03,
 Gaussian 16:  ES64L-G16RevA.03 25-Dec-2016

 --------------------------------------------------------------------
 #p B3LYP/6-311+G** #p TD=(singlets,nstates=30)IOp(6/8=3) IOp(9/40=4)
 --------------------------------------------------------------------

 --------------------------------
 Scan Step 117, Bond Length 1.085
 --------------------------------
 Symbolic Z-matrix:
 Charge =  0 Multiplicity = 1

                         Standard orientation:
 ---------------------------------------------------------------------
 Center     Atomic      Atomic             Coordinates (Angstroms)
 Number     Number       Type             X           Y           Z
 ---------------------------------------------------------------------
      1          6           0        0.000000    0.000000   -0.468581
      2          1           0        0.000000    0.937260   -1.059931
      3          1           0       -0.000000   -0.937260   -1.059931
      4          8           0        0.000000   -0.000000    0.616419
 ---------------------------------------------------------------------

 SCF Done:  E(RB3LYP) =  -114.513944223     A.U. after    9 cycles

 Excitation energies and oscillator strengths:

 Excited State   1:      Singlet-A2     4.6459 eV  266.87 nm  f=0.0000  <S**2>=0.000
       3 -> 27         0.00285
       3 -> 38         0.00240
       3 -> 45         0.00204
       4 -> 27         0.00255
       4 -> 38        -0.00070
       4 -> 45        -0.00110
       5 ->  9         0.02003
       5 -> 13        -0.00649
       5 -> 17         0.00612
       5 -> 23        -0.00178
       5 -> 28         0.00398
       5 -> 31         0.00290
       5 -> 36         0.00394
       5 -> 44         0.00068
       5 -> 47         0.00013
       5 -> 52         0.00085
       6 -> 27         0.00033
       6 -> 38        -0.00068
       6 -> 45         0.00169
       7 -> 12        -0.00062
       7 -> 16         0.00206
       7 -> 18        -0.00208
       7 -> 22         0.00133
       7 -> 24         0.00128
       7 -> 30        -0.00076
       7 -> 34         0.00038
       7 -> 35         0.00044
       7 -> 40        -0.00039
       7 -> 48         0.00056
       7 -> 51         0.00022
       7 -> 53         0.00042
       8 ->  9         0.70292
       8 -> 13        -0.07087
       8 -> 17         0.02472
       8 -> 23        -0.01178
       8 -> 28         0.00746
       8 -> 31         0.00339
       8 -> 36        -0.00104
       8 -> 44        -0.00022
       8 -> 47        -0.00020
       8 -> 52         0.00144
       3 <- 27         0.00196
       3 <- 38         0.00203
       3 <- 45         0.00212
       4 <- 27         0.00335
       4 <- 38        -0.00014
       4 <- 45        -0.00098
       5 <- 13        -0.00092
       5 <- 17        -0.00075
       5 <- 23         0.00053
       5 <- 28        -0.00049
       5 <- 31        -0.00107
       5 <- 36         0.00179
       5 <- 44         0.00035
       5 <- 47         0.00017
       5 <- 52         0.00022
       6 <- 27         0.00078
       6 <- 38        -0.00064
       6 <- 45         0.00131
       7 <- 12        -0.00094
       7 <- 16        -0.00568
       7 <- 18        -0.00104
       7 <- 22         0.00672
       7 <- 24        -0.00066
       7 <- 30         0.00257
       7 <- 34        -0.00131
       7 <- 35         0.00254
       7 <- 40        -0.00098
       7 <- 42         0.00040
       7 <- 48         0.00039
       7 <- 53         0.00112
       8 <-  9        -0.01836
       8 <- 13         0.00482
       8 <- 17        -0.00389
       8 <- 23         0.00075
       8 <- 28        -0.00059
       8 <- 31         0.00155
       8 <- 36        -0.00192
       8 <- 52         0.00042
 This state for optimization and/or second-order correction.
 Total Energy, E(TD-HF/TD-DFT) =  -114.343209075
 Copying the excited state density for this state as the 1-particle RhoCI density.

 Excited State   2:      Singlet-B2     6.6225 eV  187.22 nm  f=0.0505  <S**2>=0.000
       3 -> 12         0.00124
       3 -> 16         0.00062
       3 -> 18         0.00111
       3 -> 22        -0.00024
       3 -> 24         0.00130
       3 -> 30        -0.00012
       3 -> 34         0.00010
       3 -> 35        -0.00027
       4 -> 12        -0.00429
       4 -> 16         0.00115
       4 -> 18         0.00234
       4 -> 22        -0.00332
       4 -> 24         0.00376
       4 -> 34        -0.00076
       4 -> 35         0.00080
       4 -> 40        -0.00050
       5 -> 10        -0.00327
       5 -> 11        -0.00926
       5 -> 14         0.00678
       5 -> 15        -0.00122
       5 -> 19         0.00266
       5 -> 20         0.00035
       5 -> 21         0.00478
       5 -> 25         0.00018
       5 -> 26         0.00245
       5 -> 29         0.00209
       5 -> 32        -0.00010
       5 -> 33        -0.00089
       5 -> 37        -0.00037
       5 -> 39        -0.00030
       5 -> 43        -0.00055
       5 -> 46        -0.00052
       5 -> 49         0.00017
       6 -> 12         0.00111
       6 -> 16         0.00109
       6 -> 18         0.00347
       6 -> 22        -0.00271
       6 -> 24         0.00163
       6 -> 30        -0.00034
       6 -> 34        -0.00014
       6 -> 35         0.00010
       6 -> 40         0.00020
       6 -> 42        -0.00028
       6 -> 48         0.00038
       6 -> 51        -0.00049
       7 -> 27         0.00044
       7 -> 38        -0.00031
       7 -> 45         0.00067
       8 -> 10         0.70470
       8 -> 11        -0.05251
       8 -> 14         0.00276
       8 -> 15        -0.00913
       8 -> 19         0.01691
       8 -> 20         0.01092
       8 -> 21        -0.00476
       8 -> 25         0.00072
       8 -> 26         0.00147
       8 -> 29         0.00057
       8 -> 32         0.00056
       8 -> 33         0.00223
       8 -> 37         0.00052
       8 -> 39         0.00051
       8 -> 41        -0.00016
       8 -> 43         0.00069
       8 -> 46        -0.00084
       8 -> 54         0.00017
       3 <- 12         0.00034
       3 <- 16         0.00051
       3 <- 18         0.00047
       3 <- 22        -0.00034
       3 <- 24         0.00084
       3 <- 30        -0.00011
       3 <- 35        -0.00025
       4 <- 12         0.00057
       4 <- 16         0.00155
       4 <- 18         0.00242
       4 <- 22        -0.00202
       4 <- 24         0.00267
       4 <- 34        -0.00051
       4 <- 35         0.00053
       4 <- 40        -0.00023
       4 <- 42        -0.00016
       4 <- 48        -0.00011
       5 <- 10         0.00245
       5 <- 11        -0.00020
       5 <- 14         0.00494
       5 <- 15        -0.00112
       5 <- 19         0.00063
       5 <- 20         0.00039
       5 <- 21         0.00229
       5 <- 25         0.00168
       5 <- 26         0.00154
       5 <- 29         0.00058
       5 <- 32        -0.00032
       5 <- 33        -0.00085
       5 <- 37        -0.00037
       5 <- 39        -0.00017
       5 <- 43        -0.00039
       5 <- 46        -0.00044
       5 <- 49         0.00016
       6 <- 12         0.00033
       6 <- 16        -0.00020
       6 <- 18         0.00163
       6 <- 22        -0.00095
       6 <- 24         0.00062
       6 <- 30         0.00037
       6 <- 34        -0.00021
       6 <- 35         0.00028
       6 <- 40         0.00018
       6 <- 42        -0.00027
       6 <- 48         0.00032
       6 <- 51        -0.00049
       6 <- 53         0.00011
       7 <- 27         0.00034
       7 <- 38        -0.00023
       7 <- 45         0.00058
       8 <- 10        -0.00260
       8 <- 11        -0.00074
       8 <- 14        -0.00798
       8 <- 15         0.00010
       8 <- 19        -0.00046
       8 <- 20        -0.00040
       8 <- 21        -0.00293
       8 <- 25        -0.00278
       8 <- 29        -0.00070
       8 <- 32        -0.00034
       8 <- 33         0.00147
       8 <- 37         0.00052
       8 <- 39         0.00041
       8 <- 43         0.00052
       8 <- 46        -0.00057
       8 <- 50        -0.00014

 Excited State   3:      Singlet-B2     7.4173 eV  167.16 nm  f=0.0216  <S**2>=0.000
       3 -> 12        -0.00022
       3 -> 16        -0.00066
       3 -> 18         0.00058
       3 -> 22         0.00027
       3 -> 24         0.00029
       3 -> 30         0.00159
       3 -> 34         0.00013
       3 -> 35        -0.00035
       3 -> 40         0.00031
       3 -> 42        -0.00018
       3 -> 48         0.00028
       3 -> 51        -0.00027
       4 -> 12         0.00308
       4 -> 16        -0.00084
       4 -> 18         0.00320
       4 -> 22        -0.00155
       4 -> 24         0.00328
       4 -> 30        -0.00108
       4 -> 34         0.00053
       4 -> 35        -0.00042
       4 -> 42        -0.00018
       4 -> 48         0.00020
       4 -> 51        -0.00015
       5 -> 10        -0.00755
       5 -> 11         0.00028
       5 -> 14         0.00612
       5 -> 15        -0.00668
       5 -> 19        -0.00372
       5 -> 20        -0.00307
       5 -> 21         0.00100
       5 -> 25         0.00141
       5 -> 26        -0.00044
       5 -> 29         0.00146
       5 -> 32        -0.00090
       5 -> 33        -0.00139
       5 -> 37        -0.00010
       5 -> 39         0.00045
       5 -> 41        -0.00084
       5 -> 46         0.00080
       5 -> 49        -0.00022
       5 -> 50         0.00040
       6 -> 12        -0.00324
       6 -> 16        -0.00187
       6 -> 18        -0.00142
       6 -> 22         0.00146
       6 -> 30         0.00060
       6 -> 34        -0.00045
       6 -> 35         0.00145
       6 -> 40        -0.00090
       6 -> 42         0.00026
       6 -> 48        -0.00083
       6 -> 51         0.00067
       6 -> 53         0.00012
       7 -> 27        -0.00041
       7 -> 38        -0.00113
       7 -> 45        -0.00147
       8 -> 10         0.05314
       8 -> 11         0.70418
       8 -> 14        -0.01123
       8 -> 15         0.01604
       8 -> 19        -0.02473
       8 -> 20         0.01170
       8 -> 21        -0.00214
       8 -> 25         0.00053
       8 -> 26        -0.00154
       8 -> 29        -0.00059
       8 -> 32        -0.00035
       8 -> 33         0.00018
       8 -> 41        -0.00138
       8 -> 43         0.00014
       8 -> 46         0.00132
       8 -> 49        -0.00049
       8 -> 50         0.00071
       8 -> 54        -0.00017
       3 <- 12         0.00032
       3 <- 16        -0.00027
       3 <- 18         0.00077
       3 <- 24         0.00040
       3 <- 30         0.00096
       3 <- 34         0.00021
       3 <- 35        -0.00041
       3 <- 40         0.00028
       3 <- 42        -0.00015
       3 <- 48         0.00023
       3 <- 51        -0.00017
       3 <- 53        -0.00024
       4 <- 12         0.00036
       4 <- 16         0.00051
       4 <- 18         0.00090
       4 <- 22        -0.00119
       4 <- 24         0.00136
       4 <- 30        -0.00047
       4 <- 34         0.00049
       4 <- 42        -0.00020
       4 <- 48         0.00013
       4 <- 51        -0.00020
       5 <- 10         0.00131
       5 <- 11        -0.00085
       5 <- 14         0.00227
       5 <- 15        -0.00045
       5 <- 19         0.00079
       5 <- 20        -0.00018
       5 <- 21         0.00087
       5 <- 25         0.00115
       5 <- 26        -0.00052
       5 <- 29         0.00077
       5 <- 32         0.00054
       5 <- 33        -0.00110
       5 <- 37         0.00017
       5 <- 39         0.00020
       5 <- 41        -0.00087
       5 <- 46         0.00074
       5 <- 50         0.00036
       6 <- 12        -0.00035
       6 <- 16        -0.00029
       6 <- 18        -0.00018
       6 <- 22         0.00049
       6 <- 30         0.00025
       6 <- 34        -0.00025
       6 <- 35         0.00110
       6 <- 40        -0.00066
       6 <- 42         0.00017
       6 <- 48        -0.00069
       6 <- 51         0.00056
       7 <- 38        -0.00091
       7 <- 45        -0.00124
       8 <- 10        -0.00081
       8 <- 11         0.00021
       8 <- 14        -0.00430
       8 <- 15         0.00061
       8 <- 19         0.00305
       8 <- 20        -0.00138
       8 <- 21        -0.00212
       8 <- 26        -0.00158
       8 <- 29        -0.00037
       8 <- 32         0.00131
       8 <- 33         0.00035
       8 <- 37        -0.00014
       8 <- 39        -0.00028
       8 <- 41        -0.00118
       8 <- 46         0.00106
       8 <- 49        -0.00025
       8 <- 50         0.00055

 Excited State   4:      Singlet-A1     7.5695 eV  163.79 nm  f=0.0540  <S**2>=0.000
       3 -> 10         0.00167
       3 -> 11        -0.00101
       3 -> 14         0.00057
       3 -> 15        -0.00033
       3 -> 19         0.00080
       3 -> 20         0.00118
       3 -> 21         0.00039
       3 -> 25        -0.00029
       3 -> 26         0.00085
       3 -> 29         0.00117
       3 -> 32        -0.00029
       3 -> 33        -0.00038
       3 -> 37        -0.00029
       3 -> 39         0.00012
       3 -> 41        -0.00021
       3 -> 50         0.00037
       3 -> 54        -0.00021
       4 -> 10         0.00528
       4 -> 11         0.00761
       4 -> 14         0.00562
       4 -> 19         0.00046
       4 -> 20         0.00527
       4 -> 21         0.00212
       4 -> 25         0.00718
       4 -> 26         0.00105
       4 -> 29        -0.00047
       4 -> 32         0.00030
       4 -> 33        -0.00069
       4 -> 39        -0.00027
       4 -> 41         0.00018
       4 -> 43         0.00015
       4 -> 46        -0.00024
       4 -> 49        -0.00018
       5 -> 12         0.00741
       5 -> 16         0.00021
       5 -> 18         0.01154
       5 -> 22        -0.00131
       5 -> 24         0.00513
       5 -> 30         0.00011
       5 -> 34        -0.00015
       5 -> 35         0.00082
       5 -> 51         0.00032
       5 -> 53        -0.00015
       6 -> 10         0.01319
       6 -> 11        -0.00382
       6 -> 14         0.00426
       6 -> 15         0.00148
       6 -> 19         0.00442
       6 -> 20         0.00448
       6 -> 21         0.00172
       6 -> 25         0.00265
       6 -> 26         0.00047
       6 -> 29        -0.00117
       6 -> 32         0.00061
       6 -> 33        -0.00040
       6 -> 43         0.00012
       6 -> 49        -0.00041
       6 -> 50        -0.00048
       7 ->  9         0.01271
       7 -> 13         0.00809
       7 -> 17         0.00419
       7 -> 23         0.00513
       7 -> 28        -0.00012
       7 -> 31         0.00085
       7 -> 36         0.00056
       7 -> 44         0.00065
       7 -> 47        -0.00035
       7 -> 52        -0.00011
       8 -> 12         0.70572
       8 -> 16        -0.01927
       8 -> 18         0.02849
       8 -> 22         0.00518
       8 -> 24         0.00246
       8 -> 30         0.00131
       8 -> 34         0.00152
       8 -> 35        -0.00212
       8 -> 40        -0.00073
       8 -> 42         0.00054
       8 -> 48        -0.00036
       8 -> 51         0.00030
       8 -> 53        -0.00020
       3 <- 10         0.00059
       3 <- 11        -0.00019
       3 <- 14         0.00034
       3 <- 19         0.00032
       3 <- 20         0.00054
       3 <- 21         0.00034
       3 <- 26         0.00049
       3 <- 29         0.00075
       3 <- 32        -0.00028
       3 <- 33        -0.00020
       3 <- 37        -0.00023
       3 <- 39         0.00011
       3 <- 41        -0.00017
       3 <- 46         0.00018
       3 <- 50         0.00033
       3 <- 54        -0.00019
       4 <- 10         0.00484
       4 <- 11         0.00207
       4 <- 14         0.00412
       4 <- 15        -0.00055
       4 <- 19         0.00032
       4 <- 20         0.00299
       4 <- 21         0.00086
       4 <- 25         0.00403
       4 <- 26         0.00065
       4 <- 32         0.00012
       4 <- 33        -0.00100
       4 <- 39        -0.00030
       4 <- 46        -0.00022
       4 <- 49        -0.00015
       5 <- 12         0.00277
       5 <- 16         0.00170
       5 <- 18         0.00419
       5 <- 22        -0.00032
       5 <- 24         0.00278
       5 <- 34        -0.00034
       5 <- 35         0.00075
       5 <- 40         0.00011
       5 <- 51         0.00022
       5 <- 53        -0.00013
       6 <- 10         0.00364
       6 <- 11        -0.00045
       6 <- 14         0.00177
       6 <- 15         0.00048
       6 <- 19         0.00154
       6 <- 20         0.00224
       6 <- 21         0.00065
       6 <- 25         0.00139
       6 <- 26         0.00053
       6 <- 29        -0.00068
       6 <- 32         0.00041
       6 <- 33        -0.00041
       6 <- 39        -0.00012
       6 <- 41         0.00014
       6 <- 49        -0.00029
       6 <- 50        -0.00047
       7 <-  9         0.00178
       7 <- 13         0.00222
       7 <- 17         0.00137
       7 <- 23         0.00270
       7 <- 28        -0.00016
       7 <- 31         0.00060
       7 <- 36         0.00044
       7 <- 44         0.00054
       7 <- 47        -0.00031
       8 <- 12        -0.00166
       8 <- 16        -0.00760
       8 <- 18        -0.00297
       8 <- 22         0.00076
       8 <- 24        -0.00220
       8 <- 34         0.00082
       8 <- 35        -0.00115
       8 <- 40        -0.00066
       8 <- 42         0.00045
       8 <- 48        -0.00042
       8 <- 51         0.00024
       8 <- 53        -0.00021

 Excited State   5:      Singlet-A2     8.0747 eV  153.55 nm  f=0.0000  <S**2>=0.000
       3 -> 27        -0.00068
       3 -> 38        -0.00061
       3 -> 45        -0.00036
       4 -> 27         0.00014
       4 -> 38         0.00055
       4 -> 45         0.00011
       5 ->  9        -0.00917
       5 -> 13        -0.00119
       5 -> 17         0.00586
       5 -> 23        -0.00132
       5 -> 31        -0.00177
       5 -> 36        -0.00126
       5 -> 44        -0.00023
       5 -> 52        -0.00014
       6 -> 27         0.00021
       6 -> 38         0.00028
       6 -> 45        -0.00037
       7 -> 12        -0.00052
       7 -> 16        -0.00180
       7 -> 18         0.00182
       7 -> 22        -0.00072
       7 -> 24        -0.00017
       7 -> 30         0.00012
       7 -> 35        -0.00017
       7 -> 40         0.00014
       7 -> 48        -0.00013
       8 ->  9         0.07086
       8 -> 13         0.70307
       8 -> 17         0.01383
       8 -> 23         0.01880
       8 -> 31        -0.00132
       8 -> 36        -0.00011
       8 -> 47         0.00018
       8 -> 52        -0.00019
       3 <- 27        -0.00027
       3 <- 38        -0.00044
       3 <- 45        -0.00045
       4 <- 27        -0.00027
       5 <-  9        -0.00025
       5 <- 13        -0.00028
       5 <- 17         0.00061
       5 <- 36        -0.00029
       6 <- 38         0.00021
       7 <- 12        -0.00066
       7 <- 16        -0.00078
       7 <- 18         0.00066
       7 <- 22        -0.00129
       7 <- 24        -0.00034
       7 <- 30         0.00018
       7 <- 34         0.00046
       7 <- 35        -0.00076
       7 <- 40         0.00039
       7 <- 42        -0.00021
       7 <- 53        -0.00015
       8 <-  9         0.00305
       8 <- 13         0.00140
       8 <- 17         0.00024
       8 <- 23        -0.00026
       8 <- 31        -0.00016
       8 <- 36         0.00025

 Excited State   6:      Singlet-B2    10.2893 eV  120.50 nm  f=0.1854  <S**2>=0.000
       3 -> 12        -0.00032
       3 -> 16        -0.00195
       3 -> 18         0.00074
       3 -> 22         0.00143
       3 -> 24         0.00101
       3 -> 30         0.00141
       3 -> 34        -0.00071
       3 -> 40        -0.00025
       3 -> 42         0.00048
       3 -> 48         0.00033
       3 -> 51        -0.00020
       3 -> 53        -0.00011

 The electronic state is 1-A1.
 Alpha  occ. eigenvalues --  -19.14369 -10.25938  -1.14549  -0.62687  -0.53126
 Alpha  occ. eigenvalues --   -0.48262  -0.45727  -0.27108
 Alpha virt. eigenvalues --   -0.03205   0.01109   0.04149   0.04334   0.06858
 Alpha virt. eigenvalues --    0.13464   0.18263   0.19186   0.22017   0.22759
 Alpha virt. eigenvalues --    0.27165   0.34942   0.48212   0.48954   0.51153

 Mulliken charges:
               1
     1  C    0.060597
     2  H    0.076562
     3  H    0.076562
     4  O   -0.213721
 Sum of Mulliken charges =   0.00000

 Dipole moment (field-independent basis, Debye):
    X=             -0.0000    Y=             -0.0000    Z=             -1.8608  Tot=              1.8608
 Quadrupole moment (field-independent basis, Debye-Ang):
   XX=            -11.3872   YY=            -11.8397   ZZ=            -12.7429
   XY=              0.0000   XZ=              0.0000   YZ=             -0.0000

 Normal termination of Gaussian 16 at Fri Sep 17 10:52:37 2021.
