 Gaussian 16, Revision A.03,
 Gaussian 16:  ES64L-G16RevA.03 25-Dec-2016

 --------------------------------------------------------------------
 #p B3LYP/6-311+G** #p TD=(singlets,nstates=30)IOp(6/8=3) IOp(9/40=4)
 --------------------------------------------------------------------

 -------------------------------
 Scan Step 282, Bond Length 1.91
 -------------------------------
 Symbolic Z-matrix:
 Charge =  0 Multiplicity = 1

                         Standard orientation:
 ---------------------------------------------------------------------
 Center     Atomic      Atomic             Coordinates (Angstroms)
 Number     Number       Type             X           Y           Z
 ---------------------------------------------------------------------
      1          6           0        0.000000    0.000000   -0.881081
      2          1           0        0.000000    0.937260   -1.472431
      3          1           0       -0.000000   -0.937260   -1.472431
      4          8           0        0.000000   -0.000000    1.028919
 ---------------------------------------------------------------------

 SCF Done:  E(RB3LYP) =  -114.321936718     A.U. after   12 cycles

 Excitation energies and oscillator strengths:

 Excited State   1:      Singlet-A2     1.1273 eV 1099.80 nm  f=0.0000  <S**2>=0.000
       3 -> 27         0.00061
       3 -> 38         0.00036
       3 -> 47         0.00330
       4 -> 27         0.00031
       4 -> 47        -0.00084
       5 ->  9         0.00054
       5 -> 13         0.00106
       5 -> 18         0.00142
       5 -> 23         0.00124
       5 -> 28         0.00105
       5 -> 37         0.00062
       5 -> 44         0.00017
       5 -> 52         0.00014
       6 -> 27        -0.00054
       6 -> 38        -0.00050
       6 -> 47         0.00083
       7 -> 12        -0.00140
       7 -> 16         0.00538
       7 -> 19        -0.00487
       7 -> 22        -0.00114
       7 -> 25        -0.00047
       7 -> 29        -0.00201
       7 -> 33         0.00026
       7 -> 49         0.00013
       7 -> 53         0.00036
       8 ->  9         0.71169
       8 -> 13        -0.00549
       8 -> 18         0.02045
       8 -> 23        -0.00049
       8 -> 28         0.00992
       8 -> 31         0.00160
       8 -> 37         0.00046
       8 -> 46        -0.00028
       8 -> 52         0.00181
       3 <- 27         0.00013
       3 <- 38         0.00015
       3 <- 47         0.00332
       4 <- 27         0.00060
       4 <- 38         0.00017
       4 <- 47        -0.00064
       5 <-  9         0.00054
       5 <- 13        -0.00029
       5 <- 18        -0.00031
       5 <- 23         0.00014
       5 <- 28        -0.00024
       5 <- 31         0.00019
       5 <- 37         0.00036
       6 <- 38        -0.00037
       6 <- 47         0.00059
       7 <- 12         0.00213
       7 <- 16        -0.01050
       7 <- 19         0.00607
       7 <- 22         0.00526
       7 <- 25        -0.00063
       7 <- 29         0.00565
       7 <- 33        -0.00034
       7 <- 49        -0.00047
       7 <- 53         0.00144
       8 <-  9        -0.08272
       8 <- 13        -0.00066
       8 <- 18        -0.00797
       8 <- 23        -0.00044
       8 <- 28        -0.00280
       8 <- 31        -0.00085
       8 <- 37        -0.00016
       8 <- 46         0.00013
       8 <- 52         0.00041
 This state for optimization and/or second-order correction.
 Total Energy, E(TD-HF/TD-DFT) =  -114.280507936
 Copying the excited state density for this state as the 1-particle RhoCI density.

 Excited State   2:      Singlet-A1     2.9558 eV  419.45 nm  f=0.0230  <S**2>=0.000
       3 -> 10        -0.01239
       3 -> 11        -0.00220
       3 -> 14         0.00032
       3 -> 15         0.00011
       3 -> 17        -0.00290
       3 -> 20        -0.00323
       3 -> 21         0.00065
       3 -> 24         0.00016
       3 -> 26         0.00081
       3 -> 32         0.00263
       3 -> 34         0.00094
       3 -> 36        -0.00089
       3 -> 39        -0.00031
       3 -> 43         0.00046
       3 -> 45        -0.00121
       3 -> 48         0.00231
       3 -> 50         0.00164
       3 -> 54        -0.00013
       4 -> 10        -0.00030
       4 -> 11         0.00923
       4 -> 14         0.00138
       4 -> 15        -0.00706
       4 -> 17         0.00196
       4 -> 20         0.00155
       4 -> 21         0.00020
       4 -> 24        -0.00358
       4 -> 26         0.00278
       4 -> 32        -0.00106
       4 -> 34        -0.00065
       4 -> 39        -0.00027
       4 -> 43        -0.00041
       4 -> 45         0.00074
       4 -> 48        -0.00067
       4 -> 50        -0.00023
       4 -> 54         0.00013
       5 -> 12         0.00806
       5 -> 16         0.00139
       5 -> 19         0.00100
       5 -> 22         0.00629
       5 -> 25        -0.00375
       5 -> 29         0.00033
       5 -> 33        -0.00225
       5 -> 35         0.00270
       5 -> 40        -0.00088
       5 -> 42        -0.00099
       5 -> 51        -0.00090
       6 -> 10         0.26214
       6 -> 11         0.02945
       6 -> 14        -0.03195
       6 -> 15        -0.01884
       6 -> 17        -0.01452
       6 -> 20        -0.00030
       6 -> 21         0.00397
       6 -> 24        -0.00667
       6 -> 26        -0.00244
       6 -> 30        -0.00239
       6 -> 32         0.00472
       6 -> 34         0.00136
       6 -> 36         0.00071
       6 -> 39        -0.00150
       6 -> 43         0.00077
       6 -> 45        -0.00095
       6 -> 48         0.00070
       6 -> 50         0.00046
       6 -> 54        -0.00099
       7 ->  9         0.67354
       7 -> 13        -0.00792
       7 -> 18        -0.00863
       7 -> 23        -0.00301
       7 -> 28         0.00167
       7 -> 31        -0.00330
       7 -> 37         0.00136
       7 -> 44        -0.00095
       7 -> 52         0.00105
       8 -> 12        -0.00704
       8 -> 16         0.03037
       8 -> 19        -0.01686
       8 -> 22        -0.00991
       8 -> 29        -0.00704
       8 -> 33         0.00079
       8 -> 35        -0.00046
       8 -> 40         0.00014
       8 -> 42         0.00017
       8 -> 51         0.00012
       8 -> 53        -0.00047
       3 <- 10        -0.01019
       3 <- 11        -0.00214
       3 <- 14         0.00024
       3 <- 15        -0.00032
       3 <- 17        -0.00171
       3 <- 20        -0.00292
       3 <- 21         0.00022
       3 <- 24        -0.00027
       3 <- 30         0.00031
       3 <- 32         0.00223
       3 <- 34         0.00048
       3 <- 36        -0.00095
       3 <- 39        -0.00025
       3 <- 43         0.00049
       3 <- 45        -0.00131
       3 <- 48         0.00231
       3 <- 50         0.00165
       4 <- 10         0.00094
       4 <- 11         0.00709
       4 <- 14         0.00124
       4 <- 15        -0.00505
       4 <- 17         0.00124
       4 <- 20         0.00215
       4 <- 24        -0.00282
       4 <- 26         0.00253
       4 <- 30        -0.00041
       4 <- 32        -0.00103
       4 <- 34        -0.00056
       4 <- 36         0.00026
       4 <- 39        -0.00031
       4 <- 43        -0.00037
       4 <- 45         0.00066
       4 <- 48        -0.00040
       4 <- 50        -0.00011
       4 <- 54         0.00011
       5 <- 12         0.00521
       5 <- 16         0.00102
       5 <- 19         0.00084
       5 <- 22         0.00471
       5 <- 25        -0.00304
       5 <- 29         0.00034
       5 <- 33        -0.00192
       5 <- 35         0.00237
       5 <- 40        -0.00081
       5 <- 42        -0.00089
       5 <- 51        -0.00085
       6 <- 10         0.09214
       6 <- 11         0.01323
       6 <- 14        -0.01654
       6 <- 15        -0.01072
       6 <- 17        -0.00927
       6 <- 20        -0.00152
       6 <- 21         0.00296
       6 <- 24        -0.00452
       6 <- 26        -0.00110
       6 <- 30        -0.00124
       6 <- 32         0.00441
       6 <- 34         0.00151
       6 <- 36         0.00022
       6 <- 39        -0.00134
       6 <- 43         0.00065
       6 <- 45        -0.00069
       6 <- 48         0.00039
       6 <- 50         0.00032
       6 <- 54        -0.00092
       7 <-  9        -0.12993
       7 <- 13         0.00236
       7 <- 18        -0.01051
       7 <- 23         0.00018
       7 <- 28        -0.00121
       7 <- 31        -0.00158
       7 <- 37         0.00066
       7 <- 44        -0.00084
       7 <- 46        -0.00045
       7 <- 52         0.00098
       8 <- 12        -0.00329
       8 <- 16         0.01661
       8 <- 19        -0.01048
       8 <- 22        -0.00691
       8 <- 25         0.00013
       8 <- 29        -0.00580
       8 <- 33         0.00064
       8 <- 35        -0.00035
       8 <- 40         0.00011
       8 <- 42         0.00013
       8 <- 49        -0.00015
       8 <- 51         0.00011
       8 <- 53        -0.00045

 Excited State   3:      Singlet-B2     3.0640 eV  404.65 nm  f=0.0016  <S**2>=0.000
       3 -> 12        -0.00108
       3 -> 16         0.00099
       3 -> 19        -0.00354
       3 -> 22         0.00111
       3 -> 25        -0.00088
       3 -> 29        -0.00231
       3 -> 33         0.00031
       3 -> 35         0.00115
       3 -> 40        -0.00112
       3 -> 42        -0.00038
       3 -> 49        -0.00401
       3 -> 51         0.00015
       3 -> 53         0.00024
       4 -> 12         0.00034
       4 -> 16        -0.00123
       4 -> 19         0.00030
       4 -> 22         0.00152
       4 -> 25         0.00048
       4 -> 29         0.00073
       4 -> 33        -0.00029
       4 -> 35         0.00040
       4 -> 40         0.00022
       4 -> 49         0.00073
       5 -> 10         0.00919
       5 -> 11         0.00095
       5 -> 14        -0.00247
       5 -> 15         0.00267
       5 -> 17        -0.00053
       5 -> 20         0.00185
       5 -> 21         0.00252
       5 -> 24         0.00129
       5 -> 26        -0.00031
       5 -> 30        -0.00209
       5 -> 32        -0.00080
       5 -> 34        -0.00015
       5 -> 39         0.00055
       5 -> 41         0.00036
       5 -> 48        -0.00031
       5 -> 50         0.00021
       5 -> 54        -0.00017
       6 -> 12         0.00238
       6 -> 16        -0.00286
       6 -> 19         0.00428
       6 -> 22        -0.00068
       6 -> 25         0.00115
       6 -> 29         0.00036
       6 -> 33        -0.00020
       6 -> 35        -0.00106
       6 -> 40         0.00065
       6 -> 42         0.00057
       6 -> 49         0.00104
       6 -> 53        -0.00045
       7 -> 27        -0.00047
       7 -> 38         0.00027
       7 -> 47         0.00276
       8 -> 10         0.70565
       8 -> 11         0.04622
       8 -> 14        -0.04402
       8 -> 15        -0.01867
       8 -> 17        -0.01646
       8 -> 20         0.00633
       8 -> 21         0.00507
       8 -> 24        -0.00521
       8 -> 26        -0.00389
       8 -> 30        -0.01353
       8 -> 32         0.00083
       8 -> 34        -0.00098
       8 -> 36         0.00172
       8 -> 39         0.00033
       8 -> 41        -0.00017
       8 -> 45        -0.00076
       8 -> 48        -0.00339
       8 -> 50         0.00119
       8 -> 54        -0.00249
       3 <- 12        -0.00038
       3 <- 16         0.00037
       3 <- 19        -0.00178
       3 <- 22         0.00089
       3 <- 25        -0.00079
       3 <- 29        -0.00095
       3 <- 33         0.00030
       3 <- 35         0.00072
       3 <- 40        -0.00097
       3 <- 42        -0.00022
       3 <- 49        -0.00406
       3 <- 51         0.00015
       3 <- 53         0.00067
       4 <- 12         0.00012
       4 <- 16        -0.00155
       4 <- 19         0.00019
       4 <- 22         0.00191
       4 <- 25         0.00023
       4 <- 29         0.00101
       4 <- 33        -0.00029
       4 <- 35         0.00057
       4 <- 49         0.00051
       5 <- 10        -0.00095
       5 <- 11        -0.00049
       5 <- 14        -0.00038
       5 <- 15         0.00216
       5 <- 17         0.00019
       5 <- 20         0.00076
       5 <- 21         0.00147
       5 <- 24         0.00142
       5 <- 30        -0.00046
       5 <- 32        -0.00023
       5 <- 39         0.00027
       5 <- 41         0.00038
       5 <- 45        -0.00018
       5 <- 48        -0.00033
       5 <- 50         0.00011
       6 <- 12        -0.00102
       6 <- 16         0.00816
       6 <- 19        -0.00465
       6 <- 22        -0.00521
       6 <- 25         0.00134
       6 <- 29        -0.00623
       6 <- 33         0.00016
       6 <- 35        -0.00085
       6 <- 40         0.00064
       6 <- 42         0.00055
       6 <- 49         0.00157
       6 <- 53        -0.00144
       7 <- 27        -0.00048
       7 <- 38         0.00022
       7 <- 47         0.00240
       8 <- 10        -0.05287
       8 <- 11        -0.00702
       8 <- 14         0.00692
       8 <- 15         0.00221
       8 <- 17         0.00252
       8 <- 20        -0.00352
       8 <- 21        -0.00106
       8 <- 24         0.00142
       8 <- 26         0.00097
       8 <- 30         0.00261
       8 <- 32         0.00227
       8 <- 34         0.00077
       8 <- 36        -0.00090
       8 <- 39        -0.00087
       8 <- 41         0.00016
       8 <- 43         0.00032
       8 <- 45        -0.00145
       8 <- 48        -0.00284
       8 <- 50         0.00109
       8 <- 54        -0.00066

 Excited State   4:      Singlet-B1     3.3278 eV  372.57 nm  f=0.0000  <S**2>=0.000
       3 ->  9        -0.01974
       3 -> 13         0.00061
       3 -> 18        -0.00355
       3 -> 23         0.00112
       3 -> 28        -0.00134
       3 -> 31        -0.00105
       3 -> 37         0.00018
       3 -> 44         0.00026
       3 -> 46        -0.00088
       3 -> 52         0.00055
       4 ->  9        -0.00127
       4 -> 18         0.00024
       4 -> 28         0.00067
       4 -> 31        -0.00091
       4 -> 37        -0.00011
       4 -> 52        -0.00018
       5 -> 27        -0.00158
       5 -> 38         0.00043
       5 -> 47         0.00035
       6 ->  9         0.53015
       6 -> 13        -0.01382
       6 -> 18         0.01234
       6 -> 23        -0.00846
       6 -> 28         0.00380
       6 -> 31         0.00085
       6 -> 37        -0.00056
       6 -> 44        -0.00112
       6 -> 46         0.00257
       6 -> 52         0.00051
       7 -> 10         0.47268
       7 -> 11         0.03245
       7 -> 14        -0.03211
       7 -> 15        -0.01445
       7 -> 17        -0.01229
       7 -> 20         0.00430
       7 -> 21         0.00247
       7 -> 24        -0.00537
       7 -> 26        -0.00421
       7 -> 30        -0.00740
       7 -> 32         0.00124
       7 -> 34        -0.00046
       7 -> 36         0.00107
       7 -> 41        -0.00014
       7 -> 43         0.00048
       7 -> 45        -0.00099
       7 -> 48         0.00316
       7 -> 50         0.00104
       7 -> 54        -0.00090
       8 -> 27         0.00013
       8 -> 47         0.00384
       3 <-  9        -0.00655
       3 <- 13        -0.00058
       3 <- 18        -0.00230
       3 <- 23        -0.00025
       3 <- 28        -0.00083
       3 <- 31        -0.00072
       3 <- 46        -0.00082
       3 <- 52         0.00065
       4 <-  9         0.00022
       4 <- 13         0.00044
       4 <- 18         0.00118
       4 <- 23         0.00020
       4 <- 28         0.00143
       4 <- 31        -0.00068
       4 <- 44        -0.00032
       4 <- 46        -0.00013
       5 <- 27        -0.00162
       5 <- 38         0.00042
       5 <- 47         0.00032
       6 <-  9        -0.05735
       6 <- 13         0.00233
       6 <- 18        -0.00639
       6 <- 23         0.00069
       6 <- 28        -0.00420
       6 <- 31        -0.00165
       6 <- 37        -0.00026
       6 <- 44         0.00016
       6 <- 46         0.00247
       6 <- 52        -0.00056
       7 <- 10        -0.06481
       7 <- 11        -0.00874
       7 <- 14         0.01173
       7 <- 15         0.00618
       7 <- 17         0.00369
       7 <- 20         0.00043
       7 <- 21        -0.00296
       7 <- 24         0.00310
       7 <- 26         0.00172
       7 <- 30         0.00238
       7 <- 34         0.00026
       7 <- 36         0.00018
       7 <- 39        -0.00046
       7 <- 41         0.00024
       7 <- 43         0.00026
       7 <- 45        -0.00069
       7 <- 48         0.00291
       7 <- 50         0.00126
       7 <- 54         0.00040
       8 <- 27         0.00046
       8 <- 47         0.00352

 Excited State   5:      Singlet-B1     3.8562 eV  321.52 nm  f=0.0059  <S**2>=0.000
       3 ->  9         0.00397
       3 -> 13        -0.00021
       3 -> 18        -0.00060
       3 -> 28        -0.00186
       3 -> 31        -0.00098
       3 -> 44        -0.00024
       3 -> 46        -0.00327
       3 -> 52        -0.00039
       4 ->  9        -0.02918
       4 -> 13         0.00589
       4 -> 18         0.00063
       4 -> 23         0.00469
       4 -> 28         0.00051
       4 -> 31         0.00074
       4 -> 37         0.00036
       4 -> 44        -0.00038
       4 -> 46         0.00094
       4 -> 52         0.00021
       5 -> 27        -0.00573
       5 -> 38        -0.00375
       6 ->  9        -0.47067
       6 -> 13         0.00822
       6 -> 18        -0.00372
       6 -> 23         0.00545
       6 -> 28         0.00161
       6 -> 31        -0.00435
       6 -> 37         0.00277
       6 -> 44         0.00129
       6 -> 46        -0.00155
       6 -> 52        -0.00105
       7 -> 10         0.52517
       7 -> 11         0.02800
       7 -> 14        -0.02892
       7 -> 15        -0.02069
       7 -> 17        -0.00533
       7 -> 20        -0.00220
       7 -> 21         0.00176
       7 -> 24        -0.00692
       7 -> 26        -0.00367
       7 -> 30        -0.00601
       7 -> 32        -0.00025
       7 -> 34        -0.00329
       7 -> 36        -0.00145
       7 -> 39         0.00061
       7 -> 43         0.00030
       7 -> 45        -0.00062
       7 -> 48        -0.00051
       7 -> 50        -0.00028
       7 -> 54        -0.00155
       8 -> 27         0.00045
       8 -> 38         0.00017
       8 -> 47        -0.00058
       3 <-  9         0.00154
       3 <- 13         0.00092
       3 <- 18         0.00011
       3 <- 23         0.00068
       3 <- 28        -0.00139
       3 <- 31         0.00016
       3 <- 37        -0.00031
       3 <- 44        -0.00029
       3 <- 46        -0.00337
       4 <-  9        -0.01514
       4 <- 13         0.00297
       4 <- 18        -0.00023
       4 <- 23         0.00301
       4 <- 28         0.00034
       4 <- 31         0.00053
       4 <- 37         0.00033
       4 <- 44        -0.00049
       4 <- 46         0.00058
       4 <- 52         0.00015
       5 <- 27        -0.00419
       5 <- 38        -0.00319
       6 <-  9        -0.01521
       6 <- 13        -0.00110
       6 <- 18        -0.00165
       6 <- 23         0.00050
       6 <- 28         0.00116
       6 <- 31        -0.00469
       6 <- 37         0.00263
       6 <- 44         0.00094
       6 <- 46        -0.00083
       6 <- 52        -0.00121
       7 <- 10         0.00015
       7 <- 11         0.00068
       7 <- 14        -0.00253
       7 <- 15        -0.00692
       7 <- 17        -0.00038
       7 <- 20        -0.00503
       7 <- 24        -0.00350
       7 <- 26        -0.00076
       7 <- 30        -0.00064
       7 <- 32         0.00114
       7 <- 34        -0.00216
       7 <- 36        -0.00241
       7 <- 39         0.00019
       7 <- 43         0.00038
       7 <- 45        -0.00068
       7 <- 48        -0.00063
       7 <- 50        -0.00054

 The electronic state is 1-A1.
 Alpha  occ. eigenvalues --  -19.17806 -10.34231  -0.88437  -0.71874  -0.49408
 Alpha  occ. eigenvalues --   -0.38000  -0.30130  -0.28592
 Alpha virt. eigenvalues --   -0.17856  -0.09434  -0.00235   0.04032   0.06085
 Alpha virt. eigenvalues --    0.06163   0.11563   0.13011   0.18626   0.20887
 Alpha virt. eigenvalues --    0.23897   0.30423   0.38476   0.39225   0.50466

 Mulliken charges:
               1
     1  C   -0.106986
     2  H    0.194344
     3  H    0.194344
     4  O   -0.281702
 Sum of Mulliken charges =  -0.00000

 Dipole moment (field-independent basis, Debye):
    X=             -0.0000    Y=             -0.0000    Z=             -4.3087  Tot=              4.3087
 Quadrupole moment (field-independent basis, Debye-Ang):
   XX=            -13.1027   YY=            -12.0897   ZZ=            -10.4021
   XY=              0.0000   XZ=              0.0000   YZ=              0.0000

 Normal termination of Gaussian 16 at Fri Sep 17 10:53:13 2021.
