 Gaussian 16, Revision C.01,
 Gaussian 16:  ES64L-G16RevC.01  3-Jul-2019

 ----------------------------------------
 #P wB97XD/6-311+G* NoSymm #P Field=Z-184
 ----------------------------------------

 -------
 TitleMe
 -------
 Symbolic Z-matrix:
 Charge =  1 Multiplicity = 1

                          Input orientation:
 ---------------------------------------------------------------------
 Center     Atomic      Atomic             Coordinates (Angstroms)
 Number     Number       Type             X           Y           Z
 ---------------------------------------------------------------------
      1          6           0        0.519300    1.233000   -0.031900
      2          6           0        1.944500    1.269200   -0.036700
      3          6           0        2.620400    0.092800   -0.025000
      4          6           0       -0.196000    0.030100    0.001000
      5          1           0       -0.020700    2.174200   -0.043400
      6          1           0        2.482800    2.208900   -0.036100
      7          1           0       -1.277700    0.039900    0.011700
      8          7           0        4.092100    0.095900    0.036600
      9          8           0        4.639300   -1.021700    0.144600
     10          8           0        4.664900    1.198400   -0.023300
     11          6           0        0.494300   -1.167100    0.021000
     12          1           0       -0.032500   -2.114900    0.054500
     13          6           0        1.962900   -1.216500   -0.021100
     14          1           0        2.443600   -1.963100    0.615100
     15         35           0        2.173000   -1.949100   -1.906200
 ---------------------------------------------------------------------

 SCF Done:  E(RwB97XD) =  -3010.53841310     A.U. after   21 cycles

 Alpha  occ. eigenvalues -- -483.34319 -62.89380 -56.69021 -56.68524 -56.68519
 Alpha  occ. eigenvalues --  -19.46742 -19.46685 -14.86183 -10.60281 -10.59816
 Alpha  occ. eigenvalues --  -10.58408 -10.58255 -10.54428 -10.53736  -9.05213
 Alpha  occ. eigenvalues --   -6.87748  -6.86099  -6.86086  -2.97686  -2.97245
 Alpha  occ. eigenvalues --   -2.97234  -2.95914  -2.95913  -1.50403  -1.33349
 Alpha  occ. eigenvalues --   -1.23713  -1.14557  -1.13547  -1.06994  -1.01500
 Alpha  occ. eigenvalues --   -0.96526  -0.91609  -0.85686  -0.81736  -0.81056
 Alpha  occ. eigenvalues --   -0.80734  -0.78872  -0.76874  -0.76576  -0.73680
 Alpha  occ. eigenvalues --   -0.69642  -0.68652  -0.65079  -0.62081  -0.59952
 Alpha  occ. eigenvalues --   -0.57994  -0.57643  -0.56475  -0.56162
 Alpha virt. eigenvalues --   -0.31636  -0.21236  -0.18672  -0.15586  -0.14039
 Alpha virt. eigenvalues --   -0.11949  -0.10516  -0.08635  -0.07460  -0.06494
 Alpha virt. eigenvalues --   -0.05143  -0.04619  -0.02720  -0.02034  -0.01640

 Mulliken charges:
               1
     1  C   -0.062427
     2  C    0.104891
     3  C   -0.096729
     4  C   -0.355844
     5  H    0.351248
     6  H    0.356371
     7  H    0.338937
     8  N   -0.205654
     9  O    0.091509
    10  O    0.074740
    11  C   -0.148265
    12  H    0.364758
    13  C   -0.284049
    14  H    0.470374
    15  Br   0.000139
 Sum of Mulliken charges =   1.00000

 Dipole moment (field-independent basis, Debye):
    X=              2.5377    Y=             -0.1873    Z=              2.5532  Tot=              3.6047
 Quadrupole moment (field-independent basis, Debye-Ang):
   XX=            -67.7872   YY=            -52.3248   ZZ=            -66.7201
   XY=             -1.5452   XZ=              4.2457   YZ=             -0.7774

 Normal termination of Gaussian 16 at Thu May  2 14:20:44 2024.
