 Gaussian 16, Revision C.01,
 Gaussian 16:  ES64L-G16RevC.01  3-Jul-2019

 ----------------------------------------
 #P wB97XD/6-311+G* NoSymm #P Field=Y+136
 ----------------------------------------

 -------
 TitleMe
 -------
 Symbolic Z-matrix:
 Charge =  1 Multiplicity = 1

                          Input orientation:
 ---------------------------------------------------------------------
 Center     Atomic      Atomic             Coordinates (Angstroms)
 Number     Number       Type             X           Y           Z
 ---------------------------------------------------------------------
      1          6           0        0.029500    1.339700    0.068200
      2          6           0        1.434800    1.286700    0.006400
      3          6           0        2.111800    0.051100   -0.005400
      4          6           0        1.445100   -1.137200    0.031200
      5          6           0       -0.687900    0.168200    0.110000
      6          1           0       -0.471300    2.298400    0.078100
      7          1           0        2.027300    2.196500   -0.032200
      8          1           0        1.989700   -2.076400    0.023200
      9          1           0       -1.771600    0.180400    0.158200
     10          7           0        3.586400    0.051000   -0.067500
     11          8           0        4.147100   -1.059700   -0.088100
     12          8           0        4.145000    1.163900   -0.090100
     13          6           0       -0.023600   -1.145800    0.083500
     14          1           0       -0.436700   -1.872500    0.788900
     15         35           0       -0.535900   -1.869700   -1.740800
 ---------------------------------------------------------------------

 SCF Done:  E(RwB97XD) =  -3010.54897172     A.U. after   20 cycles

 Alpha  occ. eigenvalues -- -483.29110 -62.84106 -56.63825 -56.63218 -56.63214
 Alpha  occ. eigenvalues --  -19.45469 -19.45318 -14.84873 -10.57445 -10.56414
 Alpha  occ. eigenvalues --  -10.56392 -10.56312 -10.55887 -10.53324  -8.99890
 Alpha  occ. eigenvalues --   -6.82636  -6.80655  -6.80636  -2.92524  -2.92000
 Alpha  occ. eigenvalues --   -2.91984  -2.90400  -2.90400  -1.49168  -1.32154
 Alpha  occ. eigenvalues --   -1.21870  -1.12965  -1.11279  -1.02641  -1.00521
 Alpha  occ. eigenvalues --   -0.94639  -0.90337  -0.84930  -0.80347  -0.79996
 Alpha  occ. eigenvalues --   -0.79455  -0.77621  -0.75560  -0.75214  -0.71427
 Alpha  occ. eigenvalues --   -0.68650  -0.66990  -0.62846  -0.59077  -0.56714
 Alpha  occ. eigenvalues --   -0.55721  -0.55079  -0.53761  -0.53191
 Alpha virt. eigenvalues --   -0.28697  -0.20625  -0.14870  -0.13369  -0.11951
 Alpha virt. eigenvalues --   -0.09378  -0.06841  -0.06042  -0.05160  -0.03445
 Alpha virt. eigenvalues --   -0.01957  -0.01236  -0.01118  -0.00091   0.00375

 Mulliken charges:
               1
     1  C   -0.599760
     2  C    0.595931
     3  C   -0.796595
     4  C    0.346834
     5  C   -0.049560
     6  H    0.274417
     7  H    0.314112
     8  H    0.416916
     9  H    0.347258
    10  N   -0.103369
    11  O    0.100790
    12  O   -0.048692
    13  C   -0.505724
    14  H    0.438186
    15  Br   0.269255
 Sum of Mulliken charges =   1.00000

 Dipole moment (field-independent basis, Debye):
    X=             -1.2675    Y=             -4.5161    Z=             -0.5489  Tot=              4.7226
 Quadrupole moment (field-independent basis, Debye-Ang):
   XX=            -71.9467   YY=            -50.4846   ZZ=            -61.5207
   XY=             -3.0587   XZ=              1.5557   YZ=              3.4664

 Normal termination of Gaussian 16 at Wed May  1 15:09:27 2024.
