 Gaussian 16, Revision C.01,
 Gaussian 16:  ES64L-G16RevC.01  3-Jul-2019

 ----------------------------------------
 #P wB97XD/6-311+G* NoSymm #P Field=Y+116
 ----------------------------------------

 -------
 TitleMe
 -------
 Symbolic Z-matrix:
 Charge =  1 Multiplicity = 1

                          Input orientation:
 ---------------------------------------------------------------------
 Center     Atomic      Atomic             Coordinates (Angstroms)
 Number     Number       Type             X           Y           Z
 ---------------------------------------------------------------------
      1          6           0        0.519300    1.233000   -0.031900
      2          6           0        1.944500    1.269200   -0.036700
      3          6           0        2.620400    0.092800   -0.025000
      4          6           0       -0.196000    0.030100    0.001000
      5          1           0       -0.020700    2.174200   -0.043400
      6          1           0        2.482800    2.208900   -0.036100
      7          1           0       -1.277700    0.039900    0.011700
      8          7           0        4.092100    0.095900    0.036600
      9          8           0        4.639300   -1.021700    0.144600
     10          8           0        4.664900    1.198400   -0.023300
     11          6           0        0.494300   -1.167100    0.021000
     12          1           0       -0.032500   -2.114900    0.054500
     13          6           0        1.962900   -1.216500   -0.021100
     14          1           0        2.443600   -1.963100    0.615100
     15         35           0        2.173000   -1.949100   -1.906200
 ---------------------------------------------------------------------

 SCF Done:  E(RwB97XD) =  -3010.54381072     A.U. after   20 cycles

 Alpha  occ. eigenvalues -- -483.29376 -62.84370 -56.64090 -56.63488 -56.63470
 Alpha  occ. eigenvalues --  -19.46247 -19.46007 -14.85491 -10.58828 -10.56712
 Alpha  occ. eigenvalues --  -10.56343 -10.56291 -10.53496 -10.52222  -9.00153
 Alpha  occ. eigenvalues --   -6.82904  -6.80934  -6.80880  -2.92790  -2.92279
 Alpha  occ. eigenvalues --   -2.92236  -2.90660  -2.90659  -1.49788  -1.32756
 Alpha  occ. eigenvalues --   -1.21727  -1.12307  -1.11583  -1.03638  -0.99551
 Alpha  occ. eigenvalues --   -0.94666  -0.90083  -0.84650  -0.80577  -0.79858
 Alpha  occ. eigenvalues --   -0.79600  -0.77381  -0.75983  -0.74920  -0.71178
 Alpha  occ. eigenvalues --   -0.67873  -0.67040  -0.62617  -0.58842  -0.57259
 Alpha  occ. eigenvalues --   -0.56458  -0.55779  -0.53998  -0.53036
 Alpha virt. eigenvalues --   -0.29243  -0.20171  -0.14330  -0.12594  -0.12075
 Alpha virt. eigenvalues --   -0.08217  -0.06255  -0.05479  -0.04343  -0.03298
 Alpha virt. eigenvalues --   -0.01794  -0.01168  -0.00465  -0.00118   0.00802

 Mulliken charges:
               1
     1  C   -0.104088
     2  C    0.192131
     3  C   -0.100956
     4  C   -0.365433
     5  H    0.295089
     6  H    0.304024
     7  H    0.327925
     8  N   -0.244508
     9  O    0.153278
    10  O    0.003504
    11  C   -0.185075
    12  H    0.397080
    13  C   -0.382972
    14  H    0.438791
    15  Br   0.271211
 Sum of Mulliken charges =   1.00000

 Dipole moment (field-independent basis, Debye):
    X=              2.9555    Y=             -4.3151    Z=             -1.2245  Tot=              5.3717
 Quadrupole moment (field-independent basis, Debye-Ang):
   XX=            -67.6814   YY=            -49.5907   ZZ=            -60.9408
   XY=            -10.0930   XZ=             -3.5970   YZ=              4.2620

 Normal termination of Gaussian 16 at Thu May  2 14:19:39 2024.
