 Gaussian 16, Revision A.03,
 Gaussian 16:  ES64L-G16RevA.03 25-Dec-2016

 --------------------------------------------------------------------
 #p B3LYP/6-311+G** #p TD=(singlets,nstates=30)IOp(6/8=3) IOp(9/40=4)
 --------------------------------------------------------------------

 ------------------------------
 Scan Step 7, Bond Length 0.535
 ------------------------------
 Symbolic Z-matrix:
 Charge =  0 Multiplicity = 1

                         Standard orientation:
 ---------------------------------------------------------------------
 Center     Atomic      Atomic             Coordinates (Angstroms)
 Number     Number       Type             X           Y           Z
 ---------------------------------------------------------------------
      1          6           0        0.000000    0.000000   -0.193581
      2          1           0        0.000000    0.937260   -0.784931
      3          1           0       -0.000000   -0.937260   -0.784931
      4          8           0        0.000000   -0.000000    0.341419
 ---------------------------------------------------------------------

 SCF Done:  E(RB3LYP) =  -109.959717982     A.U. after   11 cycles

 Excitation energies and oscillator strengths:

 Excited State   1:      Singlet-B2     4.3333 eV  286.12 nm  f=0.1552  <S**2>=0.000
       3 -> 11         0.00070
       3 -> 15         0.00145
       3 -> 19         0.00072
       3 -> 22         0.00128
       3 -> 25         0.00158
       3 -> 31        -0.00036
       3 -> 38         0.00015
       3 -> 40         0.00059
       3 -> 43         0.00025
       3 -> 53         0.00015
       4 ->  9        -0.00234
       4 -> 12         0.00152
       4 -> 13         0.00281
       4 -> 16         0.00115
       4 -> 17         0.00150
       4 -> 20         0.00200
       4 -> 21         0.00153
       4 -> 24         0.00101
       4 -> 26         0.00066
       4 -> 30         0.00162
       4 -> 32         0.00039
       4 -> 33         0.00090
       4 -> 37        -0.00048
       4 -> 42         0.00042
       4 -> 44        -0.00023
       4 -> 47        -0.00064
       4 -> 48        -0.00012
       4 -> 51        -0.00013
       4 -> 54        -0.00014
       5 -> 28         0.00218
       5 -> 35         0.00097
       5 -> 45         0.00063
       6 -> 11         0.00989
       6 -> 15        -0.00144
       6 -> 19         0.00268
       6 -> 22         0.00027
       6 -> 25        -0.00330
       6 -> 29        -0.00112
       6 -> 31         0.00080
       6 -> 40        -0.00013
       6 -> 43        -0.00019
       6 -> 46        -0.00017
       6 -> 50         0.00011
       7 -> 11         0.00790
       7 -> 15         0.00552
       7 -> 19         0.00391
       7 -> 22         0.00079
       7 -> 25         0.00277
       7 -> 29        -0.00079
       7 -> 31         0.00107
       7 -> 38        -0.00062
       7 -> 43        -0.00031
       7 -> 46         0.00048
       7 -> 50         0.00039
       7 -> 53        -0.00017
       8 ->  9         0.70397
       8 -> 12        -0.00758
       8 -> 13         0.06706
       8 -> 16        -0.00774
       8 -> 17        -0.02433
       8 -> 20         0.00639
       8 -> 21         0.01196
       8 -> 24        -0.00075
       8 -> 26         0.00122
       8 -> 30        -0.00359
       8 -> 32        -0.00153
       8 -> 33        -0.00145
       8 -> 37        -0.00089
       8 -> 39        -0.00030
       8 -> 42         0.00073
       8 -> 44         0.00061
       8 -> 47         0.00049
       8 -> 48         0.00025
       3 <- 11         0.00037
       3 <- 15         0.00104
       3 <- 19         0.00042
       3 <- 22         0.00109
       3 <- 25         0.00122
       3 <- 31        -0.00037
       3 <- 38         0.00018
       3 <- 40         0.00058
       3 <- 43         0.00026
       3 <- 46         0.00012
       3 <- 53         0.00017
       4 <-  9        -0.00091
       4 <- 13         0.00229
       4 <- 16         0.00115
       4 <- 20         0.00137
       4 <- 21         0.00128
       4 <- 24         0.00052
       4 <- 26         0.00119
       4 <- 30         0.00128
       4 <- 32         0.00023
       4 <- 33         0.00036
       4 <- 37        -0.00032
       4 <- 39         0.00015
       4 <- 42         0.00033
       4 <- 44        -0.00020
       4 <- 47        -0.00059
       5 <- 28         0.00190
       5 <- 35         0.00081
       5 <- 45         0.00054
       6 <- 11         0.00338
       6 <- 15        -0.00218
       6 <- 19         0.00118
       6 <- 22        -0.00034
       6 <- 25        -0.00262
       6 <- 29        -0.00088
       6 <- 31         0.00073
       6 <- 40        -0.00014
       6 <- 43        -0.00015
       6 <- 46        -0.00013
       7 <- 11         0.00181
       7 <- 15         0.00287
       7 <- 19         0.00099
       7 <- 22         0.00047
       7 <- 25         0.00187
       7 <- 29        -0.00156
       7 <- 31         0.00095
       7 <- 38        -0.00038
       7 <- 43        -0.00020
       7 <- 46         0.00051
       7 <- 50         0.00050
       8 <-  9        -0.01555
       8 <- 12        -0.00802
       8 <- 13         0.02773
       8 <- 16         0.00754
       8 <- 17        -0.00142
       8 <- 20         0.00182
       8 <- 21         0.00660
       8 <- 24         0.00252
       8 <- 26         0.00106
       8 <- 30        -0.00248
       8 <- 32        -0.00173
       8 <- 33        -0.00087
       8 <- 37        -0.00088
       8 <- 39        -0.00033
       8 <- 42         0.00070
       8 <- 44         0.00029
       8 <- 47         0.00045
       8 <- 48         0.00015
 This state for optimization and/or second-order correction.
 Total Energy, E(TD-HF/TD-DFT) =  -109.800473363
 Copying the excited state density for this state as the 1-particle RhoCI density.

 Excited State   2:      Singlet-A2     4.7327 eV  261.98 nm  f=0.0000  <S**2>=0.000
       3 -> 28        -0.00212
       3 -> 35        -0.00102
       3 -> 45        -0.00028
       4 -> 10        -0.00077
       4 -> 14        -0.00098
       4 -> 18        -0.00177
       4 -> 23        -0.00035
       4 -> 27        -0.00180
       4 -> 34         0.00028
       4 -> 36        -0.00093
       4 -> 49        -0.00015
       4 -> 52        -0.00019
       5 -> 11         0.00016
       5 -> 15        -0.00021
       5 -> 19         0.00029
       5 -> 22        -0.00061
       5 -> 25         0.00022
       5 -> 29         0.00038
       5 -> 38        -0.00033
       5 -> 40        -0.00014
       5 -> 43        -0.00035
       5 -> 46        -0.00024
       5 -> 50         0.00015
       6 -> 28         0.00323
       6 -> 35        -0.00087
       6 -> 45        -0.00023
       7 -> 28         0.00122
       7 -> 45        -0.00019
       8 -> 10         0.70674
       8 -> 14         0.00178
       8 -> 18         0.02382
       8 -> 23        -0.00346
       8 -> 27        -0.00042
       8 -> 34         0.00361
       8 -> 36        -0.00123
       8 -> 41         0.00075
       8 -> 49         0.00015
       8 -> 52         0.00024
       3 <- 28        -0.00178
       3 <- 35        -0.00088
       3 <- 45        -0.00027
       4 <- 10        -0.00022
       4 <- 14         0.00014
       4 <- 18        -0.00077
       4 <- 23        -0.00011
       4 <- 27        -0.00052
       4 <- 34         0.00059
       4 <- 36        -0.00057
       5 <- 11         0.00039
       5 <- 15        -0.00042
       5 <- 19         0.00089
       5 <- 22        -0.00072
       5 <- 25         0.00053
       5 <- 29         0.00112
       5 <- 38        -0.00053
       5 <- 40        -0.00010
       5 <- 43        -0.00039
       5 <- 46        -0.00027
       5 <- 53        -0.00016
       6 <- 28         0.00320
       6 <- 35        -0.00101
       6 <- 45        -0.00022
       7 <- 28         0.00118
       7 <- 35        -0.00014
       7 <- 45        -0.00022
       8 <- 10         0.00299
       8 <- 14         0.00098
       8 <- 18        -0.00773
       8 <- 27        -0.00098
       8 <- 34         0.00341
       8 <- 36        -0.00102
       8 <- 41         0.00042
       8 <- 52         0.00011

 Excited State   3:      Singlet-B2     5.4896 eV  225.85 nm  f=0.0397  <S**2>=0.000
       3 -> 11        -0.00030
       3 -> 15         0.00038
       3 -> 19        -0.00058
       3 -> 22         0.00017
       3 -> 31         0.00013
       3 -> 38        -0.00015
       3 -> 40        -0.00027
       3 -> 43        -0.00016
       3 -> 53        -0.00019
       4 ->  9         0.00061
       4 -> 13         0.00076
       4 -> 16         0.00143
       4 -> 17        -0.00080
       4 -> 20        -0.00052
       4 -> 21         0.00079
       4 -> 24         0.00088
       4 -> 30        -0.00193
       4 -> 32        -0.00012
       4 -> 37         0.00050
       4 -> 39        -0.00083
       4 -> 42        -0.00030
       4 -> 47         0.00035
       5 -> 28        -0.00099
       5 -> 35        -0.00105
       5 -> 45        -0.00055
       6 -> 11         0.00101
       6 -> 15        -0.00445
       6 -> 19         0.00195
       6 -> 22         0.00033
       6 -> 25        -0.00184
       6 -> 29        -0.00244
       6 -> 31        -0.00062
       6 -> 38        -0.00033
       6 -> 40         0.00034
       6 -> 43        -0.00028
       6 -> 46         0.00011
       6 -> 50         0.00015
       6 -> 53        -0.00012
       7 -> 11        -0.00097
       7 -> 15        -0.00324
       7 -> 19        -0.00142
       7 -> 22        -0.00050
       7 -> 25        -0.00251
       7 -> 29        -0.00070
       7 -> 31        -0.00037
       7 -> 38         0.00059
       7 -> 40        -0.00022
       7 -> 43         0.00013
       7 -> 46        -0.00059
       7 -> 50        -0.00027
       7 -> 53         0.00022
       8 ->  9         0.00410
       8 -> 12         0.70528
       8 -> 13         0.04481
       8 -> 16         0.02235
       8 -> 20         0.01558
       8 -> 21         0.00513
       8 -> 24        -0.00106
       8 -> 26        -0.00201
       8 -> 30        -0.00333
       8 -> 32         0.00036
       8 -> 33         0.00036
       8 -> 37        -0.00093
       8 -> 39         0.00122
       8 -> 42         0.00098
       8 -> 44        -0.00018
       8 -> 47        -0.00014
       8 -> 51        -0.00011
       8 -> 54        -0.00011
       3 <- 11        -0.00014
       3 <- 15         0.00025
       3 <- 19        -0.00022
       3 <- 25         0.00011
       3 <- 29         0.00011
       3 <- 31         0.00017
       3 <- 38        -0.00019
       3 <- 40        -0.00022
       3 <- 43        -0.00016
       3 <- 53        -0.00023
       4 <-  9        -0.00090
       4 <- 12        -0.00021
       4 <- 13         0.00086
       4 <- 16         0.00065
       4 <- 17         0.00035
       4 <- 20        -0.00032
       4 <- 21         0.00056
       4 <- 24         0.00090
       4 <- 26        -0.00015
       4 <- 30        -0.00135
       4 <- 32        -0.00042
       4 <- 33         0.00029
       4 <- 37         0.00032
       4 <- 39        -0.00059
       4 <- 42        -0.00034
       4 <- 44         0.00011
       4 <- 47         0.00032
       5 <- 28        -0.00065
       5 <- 35        -0.00093
       5 <- 45        -0.00050
       6 <- 11         0.00098
       6 <- 15        -0.00093
       6 <- 19        -0.00010
       6 <- 22         0.00050
       6 <- 25        -0.00169
       6 <- 29        -0.00183
       6 <- 31        -0.00077
       6 <- 38        -0.00038
       6 <- 40         0.00026
       6 <- 43        -0.00024
       6 <- 53        -0.00012
       7 <- 11         0.00034
       7 <- 15        -0.00116
       7 <- 19        -0.00051
       7 <- 22        -0.00041
       7 <- 25        -0.00151
       7 <- 31        -0.00023
       7 <- 38         0.00028
       7 <- 40        -0.00013
       7 <- 46        -0.00051
       7 <- 50        -0.00034
       7 <- 53         0.00014
       8 <-  9        -0.00735
       8 <- 12         0.00056
       8 <- 13         0.01306
       8 <- 16         0.00444
       8 <- 17        -0.00247
       8 <- 20        -0.00328
       8 <- 21         0.00312
       8 <- 24         0.00048
       8 <- 30        -0.00257
       8 <- 32         0.00024
       8 <- 33         0.00044
       8 <- 37        -0.00080
       8 <- 39         0.00118
       8 <- 42         0.00084
       8 <- 44        -0.00012
       8 <- 47        -0.00013

 Excited State   4:      Singlet-A1     5.7801 eV  214.50 nm  f=0.0002  <S**2>=0.000
       3 ->  9         0.00190
       3 -> 12        -0.00014
       3 -> 16        -0.00146
       3 -> 17        -0.00190
       3 -> 21         0.00110
       3 -> 24        -0.00147
       3 -> 26         0.00037
       3 -> 30         0.00068
       3 -> 32         0.00023
       3 -> 33        -0.00104
       3 -> 37         0.00066
       3 -> 39         0.00033
       3 -> 44        -0.00022
       3 -> 54         0.00018
       4 -> 11        -0.00506
       4 -> 15        -0.00423
       4 -> 19        -0.00479
       4 -> 22        -0.00277
       4 -> 25        -0.00311
       4 -> 29        -0.00131
       4 -> 38        -0.00073
       4 -> 40         0.00013
       4 -> 43         0.00013
       4 -> 46        -0.00013
       5 -> 10        -0.00173
       5 -> 14        -0.00371
       5 -> 18         0.00047
       5 -> 23         0.00384
       5 -> 27         0.00026
       5 -> 34        -0.00054
       5 -> 36        -0.00052
       6 ->  9        -0.00907
       6 -> 12        -0.00948
       6 -> 13         0.00258
       6 -> 16         0.00802
       6 -> 17         0.00274
       6 -> 20        -0.00389
       6 -> 21        -0.00366
       6 -> 24         0.00433
       6 -> 26         0.00295
       6 -> 30         0.00037
       6 -> 32        -0.00337
       6 -> 33        -0.00212
       6 -> 37        -0.00209
       6 -> 39         0.00109
       6 -> 42         0.00043
       6 -> 44        -0.00103
       6 -> 47         0.00023
       6 -> 48         0.00039
       6 -> 51         0.00019
       7 ->  9         0.01660
       7 -> 12        -0.01102
       7 -> 13        -0.00340
       7 -> 16         0.00454
       7 -> 17        -0.01245
       7 -> 20        -0.00235
       7 -> 21        -0.00257
       7 -> 24        -0.00156
       7 -> 26         0.00394
       7 -> 30        -0.00120
       7 -> 32         0.00062
       7 -> 33        -0.00084
       7 -> 37        -0.00090
       7 -> 54        -0.00015
       8 -> 11         0.70414
       8 -> 15         0.05751
       8 -> 19        -0.02520
       8 -> 22        -0.00176
       8 -> 25         0.01123
       8 -> 29        -0.00162
       8 -> 31         0.00237
       8 -> 38        -0.00372
       8 -> 40         0.00132
       8 -> 43         0.00186
       8 -> 46        -0.00125
       8 -> 50         0.00023
       3 <-  9         0.00127
       3 <- 16        -0.00101
       3 <- 17        -0.00123
       3 <- 21         0.00085
       3 <- 24        -0.00110
       3 <- 26         0.00030
       3 <- 30         0.00057
       3 <- 32         0.00019
       3 <- 33        -0.00081
       3 <- 37         0.00055
       3 <- 39         0.00028
       3 <- 44        -0.00018
       3 <- 54         0.00016
       4 <- 11        -0.00242
       4 <- 15        -0.00189
       4 <- 19        -0.00297
       4 <- 22        -0.00193
       4 <- 25        -0.00187
       4 <- 29        -0.00096
       4 <- 38        -0.00061
       4 <- 40         0.00013
       4 <- 43         0.00014
       4 <- 46        -0.00010
       5 <- 10        -0.00110
       5 <- 14        -0.00243
       5 <- 18         0.00032
       5 <- 23         0.00285
       5 <- 27         0.00022
       5 <- 34        -0.00046
       5 <- 36        -0.00045
       6 <-  9        -0.00785
       6 <- 12        -0.00460
       6 <- 13         0.00254
       6 <- 16         0.00558
       6 <- 17         0.00117
       6 <- 20        -0.00178
       6 <- 21        -0.00347
       6 <- 24         0.00300
       6 <- 26         0.00215
       6 <- 32        -0.00250
       6 <- 33        -0.00168
       6 <- 37        -0.00190
       6 <- 39         0.00072
       6 <- 42         0.00039
       6 <- 44        -0.00097
       6 <- 47         0.00017
       6 <- 48         0.00035
       6 <- 51         0.00017
       7 <-  9         0.00341
       7 <- 12        -0.00396
       7 <- 13        -0.00068
       7 <- 16         0.00287
       7 <- 17        -0.00579
       7 <- 20        -0.00083
       7 <- 21        -0.00182
       7 <- 24        -0.00086
       7 <- 26         0.00272
       7 <- 30        -0.00092
       7 <- 32         0.00044
       7 <- 33        -0.00062
       7 <- 37        -0.00074
       7 <- 54        -0.00013
       8 <- 11        -0.01672
       8 <- 15         0.00466
       8 <- 19        -0.01754
       8 <- 22        -0.00476
       8 <- 25         0.00662
       8 <- 29        -0.00146
       8 <- 31         0.00217
       8 <- 38        -0.00305
       8 <- 40         0.00084
       8 <- 43         0.00153
       8 <- 46        -0.00113
       8 <- 50         0.00024

 Excited State   5:      Singlet-A2     8.5907 eV  144.32 nm  f=0.0000  <S**2>=0.000
       3 -> 28         0.00146
       3 -> 35         0.00068
       3 -> 45         0.00012
       4 -> 10        -0.00115
       4 -> 14        -0.00325
       4 -> 18         0.00138
       4 -> 23         0.00214
       4 -> 34         0.00018
       4 -> 36         0.00103
       4 -> 41        -0.00037
       5 -> 15         0.00012
       5 -> 19        -0.00032
       5 -> 22         0.00058
       5 -> 25        -0.00051
       5 -> 29        -0.00017
       5 -> 38         0.00021
       5 -> 40         0.00010
       5 -> 43         0.00030
       5 -> 46         0.00017
       6 -> 28        -0.00166
       6 -> 35         0.00050
       7 -> 28        -0.00091
       7 -> 35        -0.00011
       8 -> 10         0.00024
       8 -> 14         0.70418
       8 -> 18        -0.06264
       8 -> 23        -0.01423
       8 -> 27        -0.00067
       8 -> 34        -0.00186
       8 -> 36         0.00199
       8 -> 41        -0.00027
       8 -> 52        -0.00018
       3 <- 28         0.00108
       3 <- 35         0.00052
       3 <- 45         0.00013
       4 <- 10         0.00022
       4 <- 18         0.00052
       4 <- 23         0.00016
       4 <- 27         0.00025
       4 <- 34        -0.00033
       4 <- 36         0.00041
       5 <- 11         0.00044
       5 <- 19         0.00017
       5 <- 22         0.00057
       5 <- 25        -0.00075
       5 <- 31        -0.00026
       5 <- 38         0.00044
       5 <- 43         0.00030
       6 <- 28        -0.00162
       6 <- 35         0.00049
       6 <- 45         0.00011
       7 <- 28        -0.00050
       7 <- 35        -0.00022
       8 <- 10         0.00153
       8 <- 14         0.00164
       8 <- 18         0.00392
       8 <- 23         0.00083
       8 <- 27         0.00014
       8 <- 34        -0.00207
       8 <- 36         0.00075
       8 <- 41        -0.00021

 Excited State   6:      Singlet-B2     8.7444 eV  141.79 nm  f=0.1717  <S**2>=0.000
       3 -> 11         0.00090
       3 -> 15        -0.00171
       3 -> 19         0.00188
       3 -> 22        -0.00138
       3 -> 25        -0.00061
       3 -> 29         0.00119
       3 -> 31         0.00074
       3 -> 40        -0.00077
       3 -> 43        -0.00032
       4 ->  9         0.00197
       4 -> 12        -0.00202
       4 -> 13        -0.00509
       4 -> 16        -0.00052
       4 -> 17        -0.00082
       4 -> 20        -0.00408
       4 -> 21        -0.00494
       4 -> 24        -0.00074
       4 -> 26        -0.00049
       4 -> 30        -0.00289
       4 -> 32         0.00019
       4 -> 33         0.00016
       4 -> 37        -0.00103

 The electronic state is 1-A1.
 Alpha  occ. eigenvalues --  -19.42234 -10.64532  -1.18965  -0.99082  -0.96738
 Alpha  occ. eigenvalues --   -0.56907  -0.46811  -0.19441
 Alpha virt. eigenvalues --   -0.00342   0.02203   0.04436   0.04670   0.13864
 Alpha virt. eigenvalues --    0.16723   0.16901   0.18398   0.21232   0.22339
 Alpha virt. eigenvalues --    0.29433   0.36761   0.50436   0.57061   0.63565

 Mulliken charges:
               1
     1  C    0.128719
     2  H   -0.142969
     3  H   -0.142969
     4  O    0.157219
 Sum of Mulliken charges =  -0.00000

 Dipole moment (field-independent basis, Debye):
    X=              0.0000    Y=              0.0000    Z=              1.7833  Tot=              1.7833
 Quadrupole moment (field-independent basis, Debye-Ang):
   XX=             -9.9192   YY=            -14.5686   ZZ=            -13.8058
   XY=             -0.0000   XZ=             -0.0000   YZ=              0.0000

 Normal termination of Gaussian 16 at Fri Sep 17 10:52:18 2021.
