 Gaussian 16, Revision C.01,
 Gaussian 16:  ES64L-G16RevC.01  3-Jul-2019

 ----------------------------------------
 #P wB97XD/6-311+G* NoSymm #P Field=X-107
 ----------------------------------------

 -------
 TitleMe
 -------
 Symbolic Z-matrix:
 Charge =  1 Multiplicity = 1

                          Input orientation:
 ---------------------------------------------------------------------
 Center     Atomic      Atomic             Coordinates (Angstroms)
 Number     Number       Type             X           Y           Z
 ---------------------------------------------------------------------
      1          6           0        0.029500    1.339700    0.068200
      2          6           0        1.434800    1.286700    0.006400
      3          6           0        2.111800    0.051100   -0.005400
      4          6           0        1.445100   -1.137200    0.031200
      5          6           0       -0.687900    0.168200    0.110000
      6          1           0       -0.471300    2.298400    0.078100
      7          1           0        2.027300    2.196500   -0.032200
      8          1           0        1.989700   -2.076400    0.023200
      9          1           0       -1.771600    0.180400    0.158200
     10          7           0        3.586400    0.051000   -0.067500
     11          8           0        4.147100   -1.059700   -0.088100
     12          8           0        4.145000    1.163900   -0.090100
     13          6           0       -0.023600   -1.145800    0.083500
     14          1           0       -0.436700   -1.872500    0.788900
     15         35           0       -0.535900   -1.869700   -1.740800
 ---------------------------------------------------------------------

 SCF Done:  E(RwB97XD) =  -3010.53858274     A.U. after   22 cycles

 Alpha  occ. eigenvalues -- -483.30475 -62.85515 -56.65186 -56.64644 -56.64642
 Alpha  occ. eigenvalues --  -19.40249 -19.40179 -14.79855 -10.57290 -10.55458
 Alpha  occ. eigenvalues --  -10.55454 -10.54657 -10.54352 -10.51811  -9.01333
 Alpha  occ. eigenvalues --   -6.83951  -6.82171  -6.82158  -2.93870  -2.93395
 Alpha  occ. eigenvalues --   -2.93383  -2.91959  -2.91959  -1.44016  -1.26924
 Alpha  occ. eigenvalues --   -1.20791  -1.12119  -1.09889  -1.03200  -0.97942
 Alpha  occ. eigenvalues --   -0.93699  -0.88677  -0.82699  -0.78505  -0.77205
 Alpha  occ. eigenvalues --   -0.76141  -0.74947  -0.73972  -0.70892  -0.70192
 Alpha  occ. eigenvalues --   -0.67763  -0.65673  -0.61897  -0.58670  -0.55937
 Alpha  occ. eigenvalues --   -0.54147  -0.51258  -0.50037  -0.49757
 Alpha virt. eigenvalues --   -0.28086  -0.17650  -0.14558  -0.11019  -0.10124
 Alpha virt. eigenvalues --   -0.07568  -0.06061  -0.05781  -0.03379  -0.02257
 Alpha virt. eigenvalues --   -0.01941  -0.00859  -0.00712  -0.00336   0.00246

 Mulliken charges:
               1
     1  C   -0.546194
     2  C    0.467480
     3  C   -0.674493
     4  C    0.321767
     5  C   -0.022731
     6  H    0.311453
     7  H    0.384963
     8  H    0.389336
     9  H    0.300909
    10  N   -0.112965
    11  O    0.080215
    12  O    0.077501
    13  C   -0.482261
    14  H    0.386527
    15  Br   0.118494
 Sum of Mulliken charges =   1.00000

 Dipole moment (field-independent basis, Debye):
    X=              2.3775    Y=             -0.2314    Z=              0.2363  Tot=              2.4004
 Quadrupole moment (field-independent basis, Debye-Ang):
   XX=            -63.8855   YY=            -52.3613   ZZ=            -63.4303
   XY=              0.7556   XZ=              0.2840   YZ=              0.9320

 Normal termination of Gaussian 16 at Wed May  1 14:49:21 2024.
