 Gaussian 16, Revision C.01,
 Gaussian 16:  ES64L-G16RevC.01  3-Jul-2019

 ---------------------------------------
 #P wB97XD/6-311+G* NoSymm #P Field=X-77
 ---------------------------------------

 -------
 TitleMe
 -------
 Symbolic Z-matrix:
 Charge =  1 Multiplicity = 1

                          Input orientation:
 ---------------------------------------------------------------------
 Center     Atomic      Atomic             Coordinates (Angstroms)
 Number     Number       Type             X           Y           Z
 ---------------------------------------------------------------------
      1          6           0        0.029500    1.339700    0.068200
      2          6           0        1.434800    1.286700    0.006400
      3          6           0        2.111800    0.051100   -0.005400
      4          6           0        1.445100   -1.137200    0.031200
      5          6           0       -0.687900    0.168200    0.110000
      6          1           0       -0.471300    2.298400    0.078100
      7          1           0        2.027300    2.196500   -0.032200
      8          1           0        1.989700   -2.076400    0.023200
      9          1           0       -1.771600    0.180400    0.158200
     10          7           0        3.586400    0.051000   -0.067500
     11          8           0        4.147100   -1.059700   -0.088100
     12          8           0        4.145000    1.163900   -0.090100
     13          6           0       -0.023600   -1.145800    0.083500
     14          1           0       -0.436700   -1.872500    0.788900
     15         35           0       -0.535900   -1.869700   -1.740800
 ---------------------------------------------------------------------

 SCF Done:  E(RwB97XD) =  -3010.53631245     A.U. after   21 cycles

 Alpha  occ. eigenvalues -- -483.30630 -62.85667 -56.65344 -56.64794 -56.64792
 Alpha  occ. eigenvalues --  -19.41743 -19.41673 -14.81330 -10.57508 -10.55980
 Alpha  occ. eigenvalues --  -10.55750 -10.55252 -10.55075 -10.52053  -9.01482
 Alpha  occ. eigenvalues --   -6.84115  -6.82312  -6.82299  -2.94030  -2.93550
 Alpha  occ. eigenvalues --   -2.93538  -2.92095  -2.92095  -1.45515  -1.28442
 Alpha  occ. eigenvalues --   -1.21225  -1.12569  -1.10355  -1.03469  -0.98729
 Alpha  occ. eigenvalues --   -0.94127  -0.89249  -0.83249  -0.79004  -0.77849
 Alpha  occ. eigenvalues --   -0.77152  -0.75987  -0.74595  -0.72103  -0.70908
 Alpha  occ. eigenvalues --   -0.68170  -0.66169  -0.62318  -0.59011  -0.56034
 Alpha  occ. eigenvalues --   -0.54449  -0.52789  -0.51671  -0.51322
 Alpha virt. eigenvalues --   -0.28450  -0.18506  -0.14759  -0.11247  -0.09764
 Alpha virt. eigenvalues --   -0.06869  -0.05567  -0.05322  -0.03541  -0.02168
 Alpha virt. eigenvalues --   -0.01930  -0.01117  -0.00995  -0.00512   0.00275

 Mulliken charges:
               1
     1  C   -0.555376
     2  C    0.483193
     3  C   -0.688122
     4  C    0.314479
     5  C   -0.016315
     6  H    0.317779
     7  H    0.379846
     8  H    0.384997
     9  H    0.315270
    10  N   -0.111062
    11  O    0.066114
    12  O    0.063233
    13  C   -0.479628
    14  H    0.391391
    15  Br   0.134202
 Sum of Mulliken charges =   1.00000

 Dipole moment (field-independent basis, Debye):
    X=              1.4713    Y=             -0.3303    Z=              0.1650  Tot=              1.5169
 Quadrupole moment (field-independent basis, Debye-Ang):
   XX=            -65.9498   YY=            -52.2496   ZZ=            -63.1955
   XY=              0.9152   XZ=              0.5188   YZ=              1.1359

 Normal termination of Gaussian 16 at Wed May  1 14:48:37 2024.
