 Gaussian 16, Revision C.01,
 Gaussian 16:  ES64L-G16RevC.01  3-Jul-2019

 --------------------------------------
 #P wB97XD/6-311+G* NoSymm #P Field=Y+9
 --------------------------------------

 -------
 TitleMe
 -------
 Symbolic Z-matrix:
 Charge =  1 Multiplicity = 1

                          Input orientation:
 ---------------------------------------------------------------------
 Center     Atomic      Atomic             Coordinates (Angstroms)
 Number     Number       Type             X           Y           Z
 ---------------------------------------------------------------------
      1          6           0        0.029500    1.339700    0.068200
      2          6           0        1.434800    1.286700    0.006400
      3          6           0        2.111800    0.051100   -0.005400
      4          6           0        1.445100   -1.137200    0.031200
      5          6           0       -0.687900    0.168200    0.110000
      6          1           0       -0.471300    2.298400    0.078100
      7          1           0        2.027300    2.196500   -0.032200
      8          1           0        1.989700   -2.076400    0.023200
      9          1           0       -1.771600    0.180400    0.158200
     10          7           0        3.586400    0.051000   -0.067500
     11          8           0        4.147100   -1.059700   -0.088100
     12          8           0        4.145000    1.163900   -0.090100
     13          6           0       -0.023600   -1.145800    0.083500
     14          1           0       -0.436700   -1.872500    0.788900
     15         35           0       -0.535900   -1.869700   -1.740800
 ---------------------------------------------------------------------

 SCF Done:  E(RwB97XD) =  -3010.53559660     A.U. after   19 cycles

 Alpha  occ. eigenvalues -- -483.30937 -62.85962 -56.65654 -56.65083 -56.65080
 Alpha  occ. eigenvalues --  -19.45631 -19.45575 -14.85143 -10.57972 -10.57301
 Alpha  occ. eigenvalues --  -10.56922 -10.56713 -10.56511 -10.52762  -9.01768
 Alpha  occ. eigenvalues --   -6.84443  -6.82574  -6.82559  -2.94348  -2.93852
 Alpha  occ. eigenvalues --   -2.93838  -2.92344  -2.92343  -1.49404  -1.32380
 Alpha  occ. eigenvalues --   -1.22373  -1.13779  -1.11509  -1.04099  -1.00791
 Alpha  occ. eigenvalues --   -0.95187  -0.90692  -0.85036  -0.80507  -0.80388
 Alpha  occ. eigenvalues --   -0.79741  -0.78022  -0.75852  -0.75665  -0.72015
 Alpha  occ. eigenvalues --   -0.69089  -0.67306  -0.63417  -0.59850  -0.56903
 Alpha  occ. eigenvalues --   -0.56094  -0.55889  -0.55374  -0.54922
 Alpha virt. eigenvalues --   -0.29348  -0.21055  -0.15359  -0.13098  -0.08488
 Alpha virt. eigenvalues --   -0.06020  -0.05480  -0.04580  -0.04402  -0.02871
 Alpha virt. eigenvalues --   -0.02212  -0.02174  -0.01075  -0.00728   0.00709

 Mulliken charges:
               1
     1  C   -0.579038
     2  C    0.521800
     3  C   -0.721517
     4  C    0.289977
     5  C    0.001089
     6  H    0.330137
     7  H    0.362980
     8  H    0.376706
     9  H    0.350540
    10  N   -0.106832
    11  O    0.035647
    12  O    0.022754
    13  C   -0.471690
    14  H    0.406258
    15  Br   0.181188
 Sum of Mulliken charges =   1.00000

 Dipole moment (field-independent basis, Debye):
    X=             -0.8590    Y=             -0.8453    Z=             -0.0540  Tot=              1.2064
 Quadrupole moment (field-independent basis, Debye-Ang):
   XX=            -71.2978   YY=            -51.8760   ZZ=            -62.5446
   XY=              1.0108   XZ=              1.1401   YZ=              1.7800

 Normal termination of Gaussian 16 at Wed May  1 15:07:34 2024.
