 Gaussian 16, Revision A.03,
 Gaussian 16:  ES64L-G16RevA.03 25-Dec-2016

 --------------------------------------------------------------------
 #p B3LYP/6-311+G** #p TD=(singlets,nstates=30)IOp(6/8=3) IOp(9/40=4)
 --------------------------------------------------------------------

 --------------------------------
 Scan Step 181, Bond Length 1.405
 --------------------------------
 Symbolic Z-matrix:
 Charge =  0 Multiplicity = 1

                         Standard orientation:
 ---------------------------------------------------------------------
 Center     Atomic      Atomic             Coordinates (Angstroms)
 Number     Number       Type             X           Y           Z
 ---------------------------------------------------------------------
      1          6           0        0.000000   -0.000000   -0.628581
      2          1           0        0.000000    0.937260   -1.219931
      3          1           0       -0.000000   -0.937260   -1.219931
      4          8           0        0.000000    0.000000    0.776419
 ---------------------------------------------------------------------

 SCF Done:  E(RB3LYP) =  -114.499205729     A.U. after    9 cycles

 Excitation energies and oscillator strengths:

 Excited State   1:      Singlet-A2     2.8372 eV  437.00 nm  f=0.0000  <S**2>=0.000
       3 -> 27         0.00178
       3 -> 38         0.00144
       3 -> 46         0.00301
       4 -> 27         0.00117
       4 -> 38        -0.00031
       4 -> 46        -0.00142
       5 ->  9         0.01488
       5 -> 13        -0.00015
       5 -> 18         0.00427
       5 -> 23         0.00125
       5 -> 28         0.00379
       5 -> 31        -0.00081
       5 -> 37         0.00230
       5 -> 44         0.00047
       5 -> 48         0.00011
       5 -> 52         0.00055
       6 -> 27        -0.00051
       6 -> 38        -0.00088
       6 -> 46         0.00165
       7 -> 12        -0.00069
       7 -> 15         0.00394
       7 -> 19        -0.00348
       7 -> 22        -0.00017
       7 -> 25         0.00127
       7 -> 30        -0.00121
       7 -> 33         0.00044
       7 -> 42        -0.00011
       7 -> 49         0.00017
       7 -> 50         0.00026
       7 -> 53         0.00048
       8 ->  9         0.70710
       8 -> 13        -0.02331
       8 -> 18         0.02219
       8 -> 23        -0.00668
       8 -> 28         0.01077
       8 -> 31        -0.00038
       8 -> 37         0.00056
       8 -> 48        -0.00029
       8 -> 52         0.00189
       3 <- 27         0.00102
       3 <- 38         0.00113
       3 <- 46         0.00308
       4 <- 27         0.00187
       4 <- 38         0.00019
       4 <- 46        -0.00116
       5 <-  9        -0.00056
       5 <- 13        -0.00069
       5 <- 18        -0.00094
       5 <- 23         0.00041
       5 <- 28        -0.00066
       5 <- 31         0.00055
       5 <- 37         0.00120
       5 <- 44         0.00016
       5 <- 48         0.00010
       5 <- 52         0.00015
       6 <- 27         0.00012
       6 <- 38        -0.00075
       6 <- 46         0.00128
       7 <- 12        -0.00023
       7 <- 15        -0.00894
       7 <- 19         0.00202
       7 <- 22         0.00743
       7 <- 25         0.00030
       7 <- 30         0.00456
       7 <- 33        -0.00093
       7 <- 35         0.00167
       7 <- 40         0.00078
       7 <- 49        -0.00018
       7 <- 50         0.00017
       7 <- 53         0.00141
       8 <-  9        -0.03573
       8 <- 13         0.00152
       8 <- 18        -0.00544
       8 <- 23         0.00059
       8 <- 28        -0.00175
       8 <- 31        -0.00053
       8 <- 37        -0.00085
       8 <- 52         0.00052
 This state for optimization and/or second-order correction.
 Total Energy, E(TD-HF/TD-DFT) =  -114.394942133
 Copying the excited state density for this state as the 1-particle RhoCI density.

 Excited State   2:      Singlet-B2     6.9420 eV  178.60 nm  f=0.0131  <S**2>=0.000
       3 -> 12         0.00182
       3 -> 15         0.00033
       3 -> 19         0.00166
       3 -> 22        -0.00033
       3 -> 25         0.00101
       3 -> 30         0.00031
       3 -> 33         0.00031
       3 -> 35        -0.00077
       3 -> 40        -0.00045
       3 -> 49         0.00044
       3 -> 53        -0.00013
       4 -> 12        -0.00176
       4 -> 15         0.00228
       4 -> 19         0.00152
       4 -> 22        -0.00317
       4 -> 25         0.00286
       4 -> 30         0.00016
       4 -> 35         0.00018
       4 -> 40         0.00042
       4 -> 42        -0.00012
       4 -> 49        -0.00010
       5 -> 10        -0.00844
       5 -> 11        -0.00347
       5 -> 14         0.00841
       5 -> 17         0.00537
       5 -> 20         0.00136
       5 -> 21        -0.00546
       5 -> 24        -0.00122
       5 -> 26         0.00180
       5 -> 29         0.00101
       5 -> 32        -0.00095
       5 -> 34        -0.00100
       5 -> 36        -0.00028
       5 -> 41        -0.00062
       5 -> 43        -0.00035
       5 -> 47         0.00014
       5 -> 54         0.00013
       6 -> 12        -0.00198
       6 -> 15         0.00110
       6 -> 19         0.00012
       6 -> 22        -0.00170
       6 -> 25         0.00075
       6 -> 30        -0.00035
       6 -> 33        -0.00037
       6 -> 35         0.00102
       6 -> 40         0.00034
       6 -> 49         0.00017
       6 -> 50        -0.00013
       7 -> 38        -0.00081
       7 -> 46        -0.00040
       8 -> 10         0.70457
       8 -> 11        -0.04275
       8 -> 14         0.03077
       8 -> 16         0.00260
       8 -> 17         0.01841
       8 -> 20         0.01581
       8 -> 21         0.00145
       8 -> 24         0.00050
       8 -> 26         0.00367
       8 -> 29         0.00212
       8 -> 32         0.00086
       8 -> 34         0.00021
       8 -> 39         0.00028
       8 -> 41        -0.00035
       8 -> 43         0.00061
       8 -> 45         0.00032
       8 -> 47         0.00030
       8 -> 51        -0.00043
       8 -> 54         0.00033
       3 <- 12         0.00041
       3 <- 15         0.00040
       3 <- 19         0.00066
       3 <- 22        -0.00061
       3 <- 25         0.00050
       3 <- 33         0.00027
       3 <- 35        -0.00066
       3 <- 40        -0.00043
       3 <- 49         0.00049
       3 <- 53        -0.00017
       4 <- 12         0.00076
       4 <- 15         0.00205
       4 <- 19         0.00145
       4 <- 22        -0.00211
       4 <- 25         0.00188
       4 <- 42        -0.00021
       4 <- 50        -0.00013
       5 <- 10         0.00210
       5 <- 11        -0.00029
       5 <- 14         0.00437
       5 <- 16        -0.00038
       5 <- 17         0.00012
       5 <- 20         0.00035
       5 <- 21        -0.00135
       5 <- 24        -0.00237
       5 <- 26         0.00123
       5 <- 29         0.00016
       5 <- 32        -0.00084
       5 <- 34        -0.00076
       5 <- 36        -0.00018
       5 <- 41        -0.00047
       5 <- 43        -0.00030
       6 <- 12        -0.00020
       6 <- 15        -0.00087
       6 <- 19         0.00086
       6 <- 22         0.00017
       6 <- 25         0.00025
       6 <- 30         0.00081
       6 <- 33        -0.00042
       6 <- 35         0.00099
       6 <- 40         0.00031
       6 <- 50        -0.00016
       6 <- 53         0.00025
       7 <- 38        -0.00061
       7 <- 46        -0.00029
       8 <- 10        -0.00151
       8 <- 11        -0.00155
       8 <- 14        -0.00380
       8 <- 16        -0.00096
       8 <- 17        -0.00174
       8 <- 20        -0.00051
       8 <- 21         0.00137
       8 <- 24         0.00102
       8 <- 26        -0.00106
       8 <- 29        -0.00016
       8 <- 32         0.00046
       8 <- 36         0.00036
       8 <- 41        -0.00014
       8 <- 43         0.00029
       8 <- 45         0.00041
       8 <- 51        -0.00015

 Excited State   3:      Singlet-B1     6.9985 eV  177.16 nm  f=0.0015  <S**2>=0.000
       3 ->  9        -0.03292
       3 -> 13         0.00328
       3 -> 18        -0.00609
       3 -> 23         0.00291
       3 -> 28        -0.00177
       3 -> 31        -0.00049
       3 -> 44         0.00045
       3 -> 48         0.00055
       3 -> 52         0.00109
       4 ->  9         0.01586
       4 -> 13        -0.00271
       4 -> 18         0.00068
       4 -> 23        -0.00249
       4 -> 28         0.00018
       4 -> 31        -0.00200
       4 -> 37        -0.00046
       4 -> 48        -0.00145
       4 -> 52        -0.00084
       5 -> 27        -0.00113
       5 -> 38         0.00199
       5 -> 46         0.00188
       6 ->  9         0.70582
       6 -> 13        -0.02652
       6 -> 18         0.02004
       6 -> 23        -0.01193
       6 -> 28         0.00609
       6 -> 31         0.00395
       6 -> 37        -0.00254
       6 -> 44        -0.00341
       6 -> 48         0.00500
       6 -> 52         0.00178
       7 -> 10        -0.00187
       7 -> 11        -0.00246
       7 -> 14        -0.00279
       7 -> 16        -0.01139
       7 -> 17        -0.00013
       7 -> 20         0.00192
       7 -> 21        -0.00178
       7 -> 24         0.00091
       7 -> 29        -0.00459
       7 -> 32        -0.00116
       7 -> 34         0.00024
       7 -> 36        -0.00165
       7 -> 39         0.00014
       7 -> 41        -0.00138
       7 -> 43         0.00082
       7 -> 45         0.00416
       7 -> 47         0.00292
       7 -> 51         0.00113
       7 -> 54         0.00056
       8 -> 27         0.00166
       8 -> 38         0.00055
       8 -> 46         0.00640
       3 <-  9        -0.01058
       3 <- 18        -0.00327
       3 <- 28        -0.00115
       3 <- 31        -0.00045
       3 <- 44        -0.00021
       3 <- 48         0.00080
       3 <- 52         0.00087
       4 <-  9         0.00617
       4 <- 18         0.00238
       4 <- 23        -0.00032
       4 <- 28         0.00214
       4 <- 31        -0.00164
       4 <- 44         0.00019
       4 <- 48        -0.00126
       4 <- 52        -0.00047
       5 <- 27        -0.00140
       5 <- 38         0.00153
       5 <- 46         0.00168
       6 <-  9        -0.02225
       6 <- 13         0.00221
       6 <- 18        -0.00301
       6 <- 28        -0.00275
       6 <- 31         0.00234
       6 <- 37        -0.00241
       6 <- 44        -0.00207
       6 <- 48         0.00442
       6 <- 52         0.00066
       7 <- 10         0.00311
       7 <- 11         0.00535
       7 <- 14         0.00278
       7 <- 16         0.00334
       7 <- 17         0.01462
       7 <- 20         0.00682
       7 <- 21        -0.00617
       7 <- 24         0.00553
       7 <- 26         0.00279
       7 <- 29         0.00055
       7 <- 32        -0.00098
       7 <- 34         0.00131
       7 <- 36        -0.00264
       7 <- 39         0.00039
       7 <- 41        -0.00091
       7 <- 43         0.00076
       7 <- 45         0.00381
       7 <- 47         0.00249
       7 <- 51         0.00084
       7 <- 54         0.00108
       8 <- 27         0.00181
       8 <- 38         0.00066
       8 <- 46         0.00577

 Excited State   4:      Singlet-A1     7.0263 eV  176.46 nm  f=0.1277  <S**2>=0.000
       3 -> 10         0.00651
       3 -> 11         0.01547
       3 -> 14         0.00870
       3 -> 16         0.00134
       3 -> 17         0.02361
       3 -> 20        -0.00053
       3 -> 21        -0.00496
       3 -> 24         0.00566
       3 -> 26         0.00775
       3 -> 29         0.00053
       3 -> 32         0.00298
       3 -> 34        -0.00386
       3 -> 36        -0.00142
       3 -> 39         0.00132
       3 -> 41         0.00016
       3 -> 43         0.00058
       3 -> 45         0.00173
       3 -> 47         0.00111
       3 -> 51         0.00034
       3 -> 54         0.00030
       4 -> 10         0.02456
       4 -> 11        -0.01073
       4 -> 14         0.01488
       4 -> 16         0.00143
       4 -> 17        -0.00708
       4 -> 20         0.00933
       4 -> 24        -0.00734
       4 -> 26         0.00618
       4 -> 29         0.00103
       4 -> 32        -0.00123
       4 -> 34         0.00295
       4 -> 36         0.00059
       4 -> 39        -0.00021
       4 -> 41         0.00011
       4 -> 43        -0.00015
       4 -> 45        -0.00054
       4 -> 47        -0.00164
       4 -> 51        -0.00014
       5 -> 12         0.02902
       5 -> 15         0.02744
       5 -> 19         0.00213
       5 -> 22         0.00350
       5 -> 25         0.01276
       5 -> 30        -0.00248
       5 -> 33        -0.00333
       5 -> 35         0.00198
       5 -> 40         0.00165
       5 -> 42         0.00070
       5 -> 49         0.00062
       5 -> 50        -0.00048
       5 -> 53        -0.00031
       6 -> 10        -0.04217
       6 -> 11        -0.06983
       6 -> 14        -0.03206
       6 -> 16        -0.04621
       6 -> 17        -0.10601
       6 -> 20        -0.03285
       6 -> 21         0.02727
       6 -> 24        -0.02386
       6 -> 26        -0.01239
       6 -> 29        -0.01078
       6 -> 32        -0.00015
       6 -> 34        -0.00286
       6 -> 36         0.00206
       6 -> 39         0.00022
       6 -> 41        -0.00090
       6 -> 43         0.00048
       6 -> 45         0.00051
       6 -> 47         0.00178
       6 -> 51         0.00077
       6 -> 54        -0.00031
       7 ->  9         0.68474
       7 -> 13         0.01943
       7 -> 18        -0.02667
       7 -> 23         0.00568
       7 -> 28        -0.00470
       7 -> 31        -0.00189
       7 -> 37         0.00019
       7 -> 44        -0.00092
       7 -> 48         0.00060
       7 -> 52         0.00100
       8 -> 12         0.00570
       8 -> 15         0.12458
       8 -> 19        -0.02694
       8 -> 22        -0.04506
       8 -> 25         0.00297
       8 -> 30        -0.01511
       8 -> 33         0.00512
       8 -> 35        -0.00639
       8 -> 40        -0.00261
       8 -> 42        -0.00036
       8 -> 49         0.00068
       8 -> 50         0.00037
       8 -> 53        -0.00098
       3 <- 10         0.00353
       3 <- 11         0.00929
       3 <- 14         0.00601
       3 <- 16         0.00154
       3 <- 17         0.01519
       3 <- 20        -0.00010
       3 <- 21        -0.00426
       3 <- 24         0.00386
       3 <- 26         0.00498
       3 <- 29         0.00047
       3 <- 32         0.00269
       3 <- 34        -0.00251
       3 <- 36        -0.00095
       3 <- 39         0.00101
       3 <- 41         0.00015
       3 <- 43         0.00059
       3 <- 45         0.00174
       3 <- 47         0.00138
       3 <- 51         0.00032
       3 <- 54         0.00034
       4 <- 10         0.01011
       4 <- 11        -0.00516
       4 <- 14         0.00649
       4 <- 16         0.00027
       4 <- 17        -0.00405
       4 <- 20         0.00582
       4 <- 21         0.00017
       4 <- 24        -0.00438
       4 <- 26         0.00434
       4 <- 29         0.00014
       4 <- 32        -0.00162
       4 <- 34         0.00239
       4 <- 36         0.00031
       4 <- 39        -0.00023
       4 <- 43        -0.00014
       4 <- 47        -0.00146
       5 <- 12         0.00901
       5 <- 15         0.01069
       5 <- 19         0.00125
       5 <- 22         0.00180
       5 <- 25         0.00735
       5 <- 30        -0.00143
       5 <- 33        -0.00238
       5 <- 35         0.00158
       5 <- 40         0.00138
       5 <- 42         0.00054
       5 <- 49         0.00052
       5 <- 50        -0.00044
       5 <- 53        -0.00027
       6 <- 10        -0.00894
       6 <- 11        -0.01593
       6 <- 14        -0.00974
       6 <- 16        -0.01680
       6 <- 17        -0.03890
       6 <- 20        -0.01494
       6 <- 21         0.01335
       6 <- 24        -0.01294
       6 <- 26        -0.00720
       6 <- 29        -0.00674
       6 <- 32         0.00026
       6 <- 34        -0.00264
       6 <- 36         0.00140
       6 <- 39         0.00040
       6 <- 41        -0.00059
       6 <- 43         0.00041
       6 <- 45         0.00010
       6 <- 47         0.00142
       6 <- 51         0.00057
       6 <- 54        -0.00022
       7 <-  9        -0.10397
       7 <- 13         0.01180
       7 <- 18        -0.01481
       7 <- 23         0.00685
       7 <- 28        -0.00579
       7 <- 31        -0.00038
       7 <- 37        -0.00017
       7 <- 44        -0.00039
       7 <- 52         0.00083
       8 <- 12         0.00024
       8 <- 15         0.02707
       8 <- 19        -0.00772
       8 <- 22        -0.01915
       8 <- 25         0.00093
       8 <- 30        -0.00957
       8 <- 33         0.00347
       8 <- 35        -0.00448
       8 <- 40        -0.00202
       8 <- 42        -0.00028
       8 <- 49         0.00046
       8 <- 50         0.00028
       8 <- 53        -0.00086

 Excited State   5:      Singlet-B2     7.5419 eV  164.39 nm  f=0.0271  <S**2>=0.000
       3 -> 12        -0.00039
       3 -> 15        -0.00158
       3 -> 19         0.00186
       3 -> 22         0.00055
       3 -> 25        -0.00031
       3 -> 30         0.00330
       3 -> 33         0.00020
       3 -> 35        -0.00107
       3 -> 40        -0.00085
       3 -> 49         0.00103
       3 -> 50        -0.00016
       4 -> 12         0.00190
       4 -> 15         0.00092
       4 -> 19         0.00073
       4 -> 22        -0.00145
       4 -> 25         0.00216
       4 -> 30        -0.00174
       4 -> 33         0.00048
       4 -> 35        -0.00065
       4 -> 40         0.00011
       4 -> 49         0.00014
       5 -> 10        -0.00040
       5 -> 11         0.00084
       5 -> 14         0.01114
       5 -> 16        -0.00541
       5 -> 17        -0.00069
       5 -> 20        -0.00381
       5 -> 21        -0.00397
       5 -> 24        -0.00061
       5 -> 26         0.00199
       5 -> 29         0.00148
       5 -> 32         0.00058
       5 -> 34        -0.00054
       5 -> 36        -0.00070
       5 -> 39         0.00071
       5 -> 41        -0.00054
       5 -> 43         0.00029
       5 -> 45         0.00093
       5 -> 47         0.00033
       5 -> 51        -0.00050
       6 -> 12        -0.00216
       6 -> 15        -0.00058
       6 -> 19        -0.00090
       6 -> 22         0.00086
       6 -> 25         0.00016
       6 -> 30         0.00132
       6 -> 33        -0.00049
       6 -> 35         0.00151
       6 -> 40         0.00137
       6 -> 42         0.00015
       6 -> 49        -0.00162
       6 -> 50         0.00017
       6 -> 53         0.00016
       7 -> 27         0.00061
       7 -> 38        -0.00066
       7 -> 46        -0.00269
       8 -> 10         0.04071
       8 -> 11         0.70332
       8 -> 14         0.01386
       8 -> 16         0.01716
       8 -> 17         0.05455
       8 -> 20        -0.01045
       8 -> 24         0.00280
       8 -> 26         0.00065
       8 -> 29         0.00428
       8 -> 32         0.00025
       8 -> 34        -0.00038
       8 -> 36        -0.00072
       8 -> 39        -0.00022
       8 -> 41        -0.00080
       8 -> 43         0.00040
       8 -> 45         0.00332
       8 -> 47         0.00061
       8 -> 51        -0.00153
       8 -> 54         0.00026
       3 <- 12         0.00032
       3 <- 15        -0.00054
       3 <- 19         0.00129
       3 <- 30         0.00164
       3 <- 33         0.00029
       3 <- 35        -0.00097
       3 <- 40        -0.00078
       3 <- 49         0.00100
       3 <- 50        -0.00011
       3 <- 53        -0.00048
       4 <- 12         0.00013
       4 <- 15         0.00098
       4 <- 22        -0.00125
       4 <- 25         0.00096
       4 <- 30        -0.00106

 The electronic state is 1-A1.
 Alpha  occ. eigenvalues --  -19.16340 -10.30761  -0.98518  -0.67442  -0.49003
 Alpha  occ. eigenvalues --   -0.43932  -0.36256  -0.28953
 Alpha virt. eigenvalues --   -0.11172   0.00113   0.03157   0.04155   0.06213
 Alpha virt. eigenvalues --    0.11848   0.15847   0.18874   0.19894   0.21740
 Alpha virt. eigenvalues --    0.23748   0.30134   0.40878   0.43281   0.50963

 Mulliken charges:
               1
     1  C   -0.023387
     2  H    0.154798
     3  H    0.154798
     4  O   -0.286208
 Sum of Mulliken charges =  -0.00000

 Dipole moment (field-independent basis, Debye):
    X=             -0.0000    Y=              0.0000    Z=             -3.2559  Tot=              3.2559
 Quadrupole moment (field-independent basis, Debye-Ang):
   XX=            -12.3141   YY=            -11.7675   ZZ=            -11.8819
   XY=              0.0000   XZ=              0.0000   YZ=             -0.0000

 Normal termination of Gaussian 16 at Fri Sep 17 10:52:51 2021.
