 Gaussian 16, Revision A.03,
 Gaussian 16:  ES64L-G16RevA.03 25-Dec-2016

 --------------------------------------------------------------------
 #p B3LYP/6-311+G** #p TD=(singlets,nstates=30)IOp(6/8=3) IOp(9/40=4)
 --------------------------------------------------------------------

 ------------------------------
 Scan Step 5, Bond Length 0.525
 ------------------------------
 Symbolic Z-matrix:
 Charge =  0 Multiplicity = 1

                         Standard orientation:
 ---------------------------------------------------------------------
 Center     Atomic      Atomic             Coordinates (Angstroms)
 Number     Number       Type             X           Y           Z
 ---------------------------------------------------------------------
      1          6           0        0.000000   -0.000000   -0.188581
      2          1           0        0.000000    0.937260   -0.779931
      3          1           0       -0.000000   -0.937260   -0.779931
      4          8           0        0.000000    0.000000    0.336419
 ---------------------------------------------------------------------

 SCF Done:  E(RB3LYP) =  -109.650024667     A.U. after   11 cycles

 Excitation energies and oscillator strengths:

 Excited State   1:      Singlet-B2     4.3158 eV  287.28 nm  f=0.1578  <S**2>=0.000
       3 -> 11         0.00067
       3 -> 15         0.00155
       3 -> 19         0.00071
       3 -> 22         0.00138
       3 -> 25         0.00166
       3 -> 31        -0.00038
       3 -> 38         0.00019
       3 -> 40         0.00063
       3 -> 43         0.00025
       3 -> 46         0.00010
       3 -> 53         0.00015
       4 ->  9        -0.00230
       4 -> 12         0.00144
       4 -> 13         0.00277
       4 -> 16         0.00112
       4 -> 17         0.00140
       4 -> 20         0.00197
       4 -> 21         0.00153
       4 -> 24         0.00097
       4 -> 26         0.00063
       4 -> 30         0.00166
       4 -> 32         0.00029
       4 -> 33         0.00091
       4 -> 37        -0.00047
       4 -> 42         0.00042
       4 -> 44        -0.00023
       4 -> 47        -0.00062
       4 -> 48        -0.00013
       4 -> 51        -0.00013
       4 -> 54        -0.00014
       5 -> 27         0.00219
       5 -> 35         0.00098
       5 -> 45         0.00062
       6 -> 11         0.01048
       6 -> 15        -0.00109
       6 -> 19         0.00307
       6 -> 22         0.00037
       6 -> 25        -0.00309
       6 -> 29        -0.00116
       6 -> 31         0.00082
       6 -> 40        -0.00012
       6 -> 43        -0.00019
       6 -> 46        -0.00014
       6 -> 50         0.00014
       7 -> 11         0.00762
       7 -> 15         0.00578
       7 -> 19         0.00389
       7 -> 22         0.00079
       7 -> 25         0.00300
       7 -> 29        -0.00070
       7 -> 31         0.00111
       7 -> 38        -0.00063
       7 -> 43        -0.00031
       7 -> 46         0.00049
       7 -> 50         0.00038
       7 -> 53        -0.00017
       8 ->  9         0.70384
       8 -> 12        -0.00831
       8 -> 13         0.06849
       8 -> 16        -0.00886
       8 -> 17        -0.02444
       8 -> 20         0.00660
       8 -> 21         0.01213
       8 -> 24        -0.00086
       8 -> 26         0.00129
       8 -> 30        -0.00361
       8 -> 32        -0.00141
       8 -> 33        -0.00158
       8 -> 37        -0.00085
       8 -> 39        -0.00032
       8 -> 42         0.00072
       8 -> 44         0.00064
       8 -> 47         0.00047
       8 -> 48         0.00025
       3 <- 11         0.00036
       3 <- 15         0.00114
       3 <- 19         0.00040
       3 <- 22         0.00118
       3 <- 25         0.00129
       3 <- 29        -0.00010
       3 <- 31        -0.00039
       3 <- 38         0.00021
       3 <- 40         0.00061
       3 <- 43         0.00026
       3 <- 46         0.00013
       3 <- 53         0.00016
       4 <-  9        -0.00090
       4 <- 13         0.00225
       4 <- 16         0.00107
       4 <- 17        -0.00013
       4 <- 20         0.00137
       4 <- 21         0.00128
       4 <- 24         0.00047
       4 <- 26         0.00116
       4 <- 30         0.00131
       4 <- 32         0.00018
       4 <- 33         0.00037
       4 <- 37        -0.00031
       4 <- 39         0.00015
       4 <- 42         0.00033
       4 <- 44        -0.00020
       4 <- 47        -0.00058
       5 <- 27         0.00191
       5 <- 35         0.00081
       5 <- 45         0.00052
       6 <- 11         0.00365
       6 <- 15        -0.00198
       6 <- 19         0.00140
       6 <- 22        -0.00027
       6 <- 25        -0.00247
       6 <- 29        -0.00096
       6 <- 31         0.00076
       6 <- 40        -0.00013
       6 <- 43        -0.00015
       6 <- 50         0.00011
       7 <- 11         0.00165
       7 <- 15         0.00304
       7 <- 19         0.00095
       7 <- 22         0.00049
       7 <- 25         0.00207
       7 <- 29        -0.00150
       7 <- 31         0.00098
       7 <- 38        -0.00039
       7 <- 43        -0.00020
       7 <- 46         0.00051
       7 <- 50         0.00049
       8 <-  9        -0.01627
       8 <- 12        -0.00821
       8 <- 13         0.02838
       8 <- 16         0.00738
       8 <- 17        -0.00193
       8 <- 20         0.00195
       8 <- 21         0.00675
       8 <- 24         0.00245
       8 <- 26         0.00114
       8 <- 30        -0.00250
       8 <- 32        -0.00166
       8 <- 33        -0.00102
       8 <- 37        -0.00085
       8 <- 39        -0.00036
       8 <- 42         0.00070
       8 <- 44         0.00032
       8 <- 47         0.00043
       8 <- 48         0.00015
 This state for optimization and/or second-order correction.
 Total Energy, E(TD-HF/TD-DFT) =  -109.491421202
 Copying the excited state density for this state as the 1-particle RhoCI density.

 Excited State   2:      Singlet-A2     4.7189 eV  262.74 nm  f=0.0000  <S**2>=0.000
       3 -> 27        -0.00216
       3 -> 35        -0.00101
       3 -> 45        -0.00028
       4 -> 10        -0.00077
       4 -> 14        -0.00102
       4 -> 18        -0.00165
       4 -> 23        -0.00028
       4 -> 28        -0.00176
       4 -> 34         0.00029
       4 -> 36        -0.00091
       4 -> 49        -0.00016
       4 -> 52        -0.00019
       5 -> 11         0.00015
       5 -> 15        -0.00021
       5 -> 19         0.00028
       5 -> 22        -0.00059
       5 -> 25         0.00022
       5 -> 29         0.00039
       5 -> 38        -0.00033
       5 -> 40        -0.00013
       5 -> 43        -0.00035
       5 -> 46        -0.00023
       5 -> 50         0.00015
       6 -> 27         0.00324
       6 -> 35        -0.00091
       6 -> 45        -0.00024
       7 -> 27         0.00116
       7 -> 45        -0.00016
       8 -> 10         0.70675
       8 -> 14         0.00317
       8 -> 18         0.02340
       8 -> 23        -0.00339
       8 -> 28        -0.00055
       8 -> 34         0.00364
       8 -> 36        -0.00116
       8 -> 41         0.00080
       8 -> 49         0.00016
       8 -> 52         0.00024
       3 <- 27        -0.00183
       3 <- 35        -0.00088
       3 <- 45        -0.00027
       4 <- 10        -0.00023
       4 <- 14         0.00010
       4 <- 18        -0.00076
       4 <- 23        -0.00010
       4 <- 28        -0.00053
       4 <- 34         0.00058
       4 <- 36        -0.00056
       5 <- 11         0.00037
       5 <- 15        -0.00041
       5 <- 19         0.00085
       5 <- 22        -0.00070
       5 <- 25         0.00050
       5 <- 29         0.00110
       5 <- 38        -0.00053
       5 <- 43        -0.00039
       5 <- 46        -0.00027
       5 <- 53        -0.00016
       6 <- 27         0.00322
       6 <- 35        -0.00105
       6 <- 45        -0.00024
       7 <- 27         0.00110
       7 <- 45        -0.00020
       8 <- 10         0.00300
       8 <- 14         0.00066
       8 <- 18        -0.00777
       8 <- 28        -0.00103
       8 <- 34         0.00344
       8 <- 36        -0.00097
       8 <- 41         0.00044
       8 <- 52         0.00011

 Excited State   3:      Singlet-B2     5.4903 eV  225.83 nm  f=0.0399  <S**2>=0.000
       3 -> 11        -0.00032
       3 -> 15         0.00038
       3 -> 19        -0.00062
       3 -> 22         0.00015
       3 -> 31         0.00014
       3 -> 38        -0.00015
       3 -> 40        -0.00029
       3 -> 43        -0.00015
       3 -> 53        -0.00019
       4 ->  9         0.00055
       4 -> 13         0.00073
       4 -> 16         0.00136
       4 -> 17        -0.00082
       4 -> 20        -0.00050
       4 -> 21         0.00075
       4 -> 24         0.00087
       4 -> 30        -0.00190
       4 -> 32        -0.00013
       4 -> 37         0.00051
       4 -> 39        -0.00082
       4 -> 42        -0.00031
       4 -> 47         0.00033
       5 -> 27        -0.00098
       5 -> 35        -0.00103
       5 -> 45        -0.00054
       6 -> 11         0.00105
       6 -> 15        -0.00456
       6 -> 19         0.00193
       6 -> 22         0.00033
       6 -> 25        -0.00189
       6 -> 29        -0.00249
       6 -> 31        -0.00065
       6 -> 38        -0.00029
       6 -> 40         0.00033
       6 -> 43        -0.00028
       6 -> 50         0.00014
       6 -> 53        -0.00011
       7 -> 11        -0.00097
       7 -> 15        -0.00306
       7 -> 19        -0.00153
       7 -> 22        -0.00062
       7 -> 25        -0.00240
       7 -> 29        -0.00060
       7 -> 31        -0.00034
       7 -> 38         0.00060
       7 -> 40        -0.00025
       7 -> 43         0.00015
       7 -> 46        -0.00059
       7 -> 50        -0.00027
       7 -> 53         0.00023
       8 ->  9         0.00465
       8 -> 12         0.70524
       8 -> 13         0.04583
       8 -> 16         0.02149
       8 -> 17        -0.00106
       8 -> 20         0.01558
       8 -> 21         0.00505
       8 -> 24        -0.00108
       8 -> 26        -0.00199
       8 -> 30        -0.00339
       8 -> 32         0.00037
       8 -> 33         0.00036
       8 -> 37        -0.00095
       8 -> 39         0.00119
       8 -> 42         0.00099
       8 -> 44        -0.00018
       8 -> 47        -0.00012
       8 -> 51        -0.00011
       8 -> 54        -0.00011
       3 <- 11        -0.00015
       3 <- 15         0.00022
       3 <- 19        -0.00023
       3 <- 29         0.00014
       3 <- 31         0.00018
       3 <- 38        -0.00020
       3 <- 40        -0.00023
       3 <- 43        -0.00016
       3 <- 53        -0.00023
       4 <-  9        -0.00087
       4 <- 12        -0.00021
       4 <- 13         0.00083
       4 <- 16         0.00065
       4 <- 17         0.00030
       4 <- 20        -0.00031
       4 <- 21         0.00054
       4 <- 24         0.00088
       4 <- 26        -0.00011
       4 <- 30        -0.00134
       4 <- 32        -0.00044
       4 <- 33         0.00026
       4 <- 37         0.00032
       4 <- 39        -0.00057
       4 <- 42        -0.00034
       4 <- 44         0.00011
       4 <- 47         0.00031
       5 <- 27        -0.00065
       5 <- 35        -0.00092
       5 <- 45        -0.00049
       6 <- 11         0.00104
       6 <- 15        -0.00095
       6 <- 22         0.00047
       6 <- 25        -0.00172
       6 <- 29        -0.00185
       6 <- 31        -0.00078
       6 <- 38        -0.00035
       6 <- 40         0.00025
       6 <- 43        -0.00024
       6 <- 53        -0.00011
       7 <- 11         0.00033
       7 <- 15        -0.00111
       7 <- 19        -0.00050
       7 <- 22        -0.00049
       7 <- 25        -0.00143
       7 <- 31        -0.00020
       7 <- 38         0.00030
       7 <- 40        -0.00015
       7 <- 46        -0.00051
       7 <- 50        -0.00033
       7 <- 53         0.00015
       8 <-  9        -0.00751
       8 <- 12         0.00052
       8 <- 13         0.01314
       8 <- 16         0.00424
       8 <- 17        -0.00272
       8 <- 20        -0.00327
       8 <- 21         0.00309
       8 <- 24         0.00046
       8 <- 30        -0.00259
       8 <- 32         0.00023
       8 <- 33         0.00043
       8 <- 37        -0.00083
       8 <- 39         0.00116
       8 <- 42         0.00085
       8 <- 44        -0.00012
       8 <- 47        -0.00012

 Excited State   4:      Singlet-A1     5.7951 eV  213.95 nm  f=0.0005  <S**2>=0.000
       3 ->  9         0.00198
       3 -> 16        -0.00159
       3 -> 17        -0.00188
       3 -> 21         0.00110
       3 -> 24        -0.00155
       3 -> 26         0.00036
       3 -> 30         0.00069
       3 -> 32         0.00032
       3 -> 33        -0.00100
       3 -> 37         0.00069
       3 -> 39         0.00033
       3 -> 44        -0.00022
       3 -> 51        -0.00010
       3 -> 54         0.00019
       4 -> 11        -0.00495
       4 -> 15        -0.00405
       4 -> 19        -0.00477
       4 -> 22        -0.00276
       4 -> 25        -0.00306
       4 -> 29        -0.00146
       4 -> 31        -0.00011
       4 -> 38        -0.00068
       4 -> 40         0.00013
       4 -> 43         0.00013
       4 -> 46        -0.00013
       5 -> 10        -0.00160
       5 -> 14        -0.00359
       5 -> 18         0.00071
       5 -> 23         0.00384
       5 -> 28         0.00042
       5 -> 34        -0.00050
       5 -> 36        -0.00050
       6 ->  9        -0.00852
       6 -> 12        -0.00986
       6 -> 13         0.00233
       6 -> 16         0.00831
       6 -> 17         0.00180
       6 -> 20        -0.00388
       6 -> 21        -0.00393
       6 -> 24         0.00407
       6 -> 26         0.00319
       6 -> 30         0.00036
       6 -> 32        -0.00323
       6 -> 33        -0.00252
       6 -> 37        -0.00217
       6 -> 39         0.00108
       6 -> 42         0.00046
       6 -> 44        -0.00105
       6 -> 47         0.00023
       6 -> 48         0.00040
       6 -> 51         0.00020
       7 ->  9         0.01909
       7 -> 12        -0.01094
       7 -> 13        -0.00414
       7 -> 16         0.00389
       7 -> 17        -0.01333
       7 -> 20        -0.00213
       7 -> 21        -0.00269
       7 -> 24        -0.00189
       7 -> 26         0.00384
       7 -> 30        -0.00126
       7 -> 32         0.00090
       7 -> 33        -0.00058
       7 -> 37        -0.00087
       7 -> 44         0.00014
       7 -> 54        -0.00016
       8 -> 11         0.70408
       8 -> 15         0.05739
       8 -> 19        -0.02560
       8 -> 22        -0.00185
       8 -> 25         0.01145
       8 -> 29        -0.00137
       8 -> 31         0.00240
       8 -> 38        -0.00371
       8 -> 40         0.00154
       8 -> 43         0.00184
       8 -> 46        -0.00127
       8 -> 50         0.00022
       3 <-  9         0.00134
       3 <- 16        -0.00112
       3 <- 17        -0.00121
       3 <- 21         0.00086
       3 <- 24        -0.00116
       3 <- 26         0.00029
       3 <- 30         0.00058
       3 <- 32         0.00026
       3 <- 33        -0.00078
       3 <- 37         0.00058
       3 <- 39         0.00028
       3 <- 44        -0.00018
       3 <- 54         0.00017
       4 <- 11        -0.00240
       4 <- 15        -0.00182
       4 <- 19        -0.00298
       4 <- 22        -0.00192
       4 <- 25        -0.00186
       4 <- 29        -0.00108
       4 <- 38        -0.00057
       4 <- 40         0.00014
       4 <- 43         0.00013
       4 <- 46        -0.00010
       5 <- 10        -0.00103
       5 <- 14        -0.00237
       5 <- 18         0.00048
       5 <- 23         0.00285
       5 <- 28         0.00034
       5 <- 34        -0.00042
       5 <- 36        -0.00044
       6 <-  9        -0.00769
       6 <- 12        -0.00473
       6 <- 13         0.00243
       6 <- 16         0.00569
       6 <- 17         0.00060
       6 <- 20        -0.00172
       6 <- 21        -0.00366
       6 <- 24         0.00283
       6 <- 26         0.00234
       6 <- 32        -0.00240
       6 <- 33        -0.00199
       6 <- 37        -0.00196
       6 <- 39         0.00071
       6 <- 42         0.00041
       6 <- 44        -0.00098
       6 <- 47         0.00018
       6 <- 48         0.00036
       6 <- 51         0.00018
       7 <-  9         0.00404
       7 <- 12        -0.00375
       7 <- 13        -0.00099
       7 <- 16         0.00248
       7 <- 17        -0.00607
       7 <- 20        -0.00070
       7 <- 21        -0.00182
       7 <- 24        -0.00105
       7 <- 26         0.00265
       7 <- 30        -0.00095
       7 <- 32         0.00065
       7 <- 33        -0.00041
       7 <- 37        -0.00071
       7 <- 39        -0.00016
       7 <- 44         0.00010
       7 <- 54        -0.00014
       8 <- 11        -0.01722
       8 <- 15         0.00449
       8 <- 19        -0.01765
       8 <- 22        -0.00480
       8 <- 25         0.00682
       8 <- 29        -0.00129
       8 <- 31         0.00220
       8 <- 38        -0.00306
       8 <- 40         0.00101
       8 <- 43         0.00152
       8 <- 46        -0.00115
       8 <- 50         0.00024

 Excited State   5:      Singlet-A2     8.6166 eV  143.89 nm  f=0.0000  <S**2>=0.000
       3 -> 27         0.00130
       3 -> 35         0.00058
       4 -> 10        -0.00118
       4 -> 14        -0.00300
       4 -> 18         0.00129
       4 -> 23         0.00203
       4 -> 34         0.00016
       4 -> 36         0.00090
       4 -> 41        -0.00038
       5 -> 15         0.00014
       5 -> 19        -0.00029
       5 -> 22         0.00051
       5 -> 25        -0.00048
       5 -> 29        -0.00017
       5 -> 38         0.00019
       5 -> 43         0.00027
       5 -> 46         0.00015
       6 -> 27        -0.00151
       6 -> 35         0.00045
       7 -> 27        -0.00083
       7 -> 35        -0.00015
       8 -> 10        -0.00130
       8 -> 14         0.70451
       8 -> 18        -0.05896
       8 -> 23        -0.01383
       8 -> 28        -0.00051
       8 -> 34        -0.00170
       8 -> 36         0.00188
       8 -> 41        -0.00027
       8 -> 52        -0.00017
       3 <- 27         0.00097
       3 <- 35         0.00043
       4 <- 10         0.00020
       4 <- 18         0.00048
       4 <- 23         0.00014
       4 <- 28         0.00023
       4 <- 34        -0.00029
       4 <- 36         0.00036
       5 <- 11         0.00043
       5 <- 19         0.00021
       5 <- 22         0.00050
       5 <- 25        -0.00068
       5 <- 31        -0.00023
       5 <- 38         0.00038
       5 <- 40        -0.00011
       5 <- 43         0.00026
       6 <- 27        -0.00145
       6 <- 35         0.00045
       7 <- 27        -0.00040
       7 <- 35        -0.00025
       7 <- 45        -0.00011
       8 <- 10         0.00118
       8 <- 14         0.00201
       8 <- 18         0.00368
       8 <- 23         0.00083
       8 <- 34        -0.00190
       8 <- 36         0.00067
       8 <- 41        -0.00019

 Excited State   6:      Singlet-A1     8.7476 eV  141.74 nm  f=0.0425  <S**2>=0.000
       3 ->  9        -0.00055
       3 -> 12         0.00015
       3 -> 13        -0.00055
       3 -> 16         0.00097
       3 -> 17         0.00054
       3 -> 20        -0.00020
       3 -> 21        -0.00062
       3 -> 24         0.00093
       3 -> 26        -0.00022
       3 -> 30        -0.00085
       3 -> 32        -0.00077
       3 -> 33         0.00014
       3 -> 39        -0.00015
       3 -> 42        -0.00028
       3 -> 47         0.00026
       3 -> 48        -0.00028
       3 -> 51        -0.00025
       3 -> 54         0.00011
       4 -> 11        -0.00083
       4 -> 15        -0.00036
       4 -> 19        -0.00025
       4 -> 22         0.00048

 The electronic state is 1-A1.
 Alpha  occ. eigenvalues --  -19.45558 -10.68918  -1.17935  -1.01087  -0.98791
 Alpha  occ. eigenvalues --   -0.56660  -0.45322  -0.19459
 Alpha virt. eigenvalues --   -0.00452   0.02134   0.04439   0.04653   0.13789
 Alpha virt. eigenvalues --    0.16759   0.16776   0.18442   0.21120   0.22410
 Alpha virt. eigenvalues --    0.29571   0.36790   0.50375   0.56930   0.63868

 Mulliken charges:
               1
     1  C    0.123051
     2  H   -0.144512
     3  H   -0.144512
     4  O    0.165972
 Sum of Mulliken charges =  -0.00000

 Dipole moment (field-independent basis, Debye):
    X=              0.0000    Y=              0.0000    Z=              1.7928  Tot=              1.7928
 Quadrupole moment (field-independent basis, Debye-Ang):
   XX=             -9.8970   YY=            -14.6131   ZZ=            -13.8324
   XY=             -0.0000   XZ=             -0.0000   YZ=              0.0000

 Normal termination of Gaussian 16 at Fri Sep 17 10:52:15 2021.
