 Gaussian 16, Revision A.03,
 Gaussian 16:  ES64L-G16RevA.03 25-Dec-2016

 --------------------------------------------------------------------
 #p B3LYP/6-311+G** #p TD=(singlets,nstates=30)IOp(6/8=3) IOp(9/40=4)
 --------------------------------------------------------------------

 --------------------------------
 Scan Step 233, Bond Length 1.665
 --------------------------------
 Symbolic Z-matrix:
 Charge =  0 Multiplicity = 1

                         Standard orientation:
 ---------------------------------------------------------------------
 Center     Atomic      Atomic             Coordinates (Angstroms)
 Number     Number       Type             X           Y           Z
 ---------------------------------------------------------------------
      1          6           0        0.000000   -0.000000   -0.758581
      2          1           0        0.000000    0.937260   -1.349931
      3          1           0       -0.000000   -0.937260   -1.349931
      4          8           0        0.000000    0.000000    0.906419
 ---------------------------------------------------------------------

 SCF Done:  E(RB3LYP) =  -114.403773963     A.U. after   10 cycles

 Excitation energies and oscillator strengths:

 Excited State   1:      Singlet-A2     1.7557 eV  706.19 nm  f=0.0000  <S**2>=0.000
       3 -> 27         0.00103
       3 -> 38         0.00073
       3 -> 46         0.00333
       4 -> 27         0.00059
       4 -> 46        -0.00121
       5 ->  9         0.00544
       5 -> 13         0.00105
       5 -> 18         0.00250
       5 -> 23         0.00159
       5 -> 28         0.00212
       5 -> 31        -0.00010
       5 -> 37         0.00116
       5 -> 44         0.00029
       5 -> 52         0.00029
       6 -> 27        -0.00062
       6 -> 38        -0.00071
       6 -> 46         0.00122
       7 -> 12        -0.00101
       7 -> 16         0.00494
       7 -> 19        -0.00422
       7 -> 22        -0.00092
       7 -> 25         0.00083
       7 -> 30        -0.00165
       7 -> 33         0.00034
       7 -> 49         0.00012
       7 -> 50         0.00013
       7 -> 53         0.00043
       8 ->  9         0.70909
       8 -> 13        -0.01099
       8 -> 18         0.02143
       8 -> 23        -0.00258
       8 -> 28         0.01090
       8 -> 31         0.00131
       8 -> 37         0.00059
       8 -> 48        -0.00031
       8 -> 52         0.00192
       3 <- 27         0.00042
       3 <- 38         0.00047
       3 <- 46         0.00338
       4 <- 27         0.00106
       4 <- 38         0.00023
       4 <- 46        -0.00097
       5 <- 13        -0.00046
       5 <- 18        -0.00059
       5 <- 23         0.00024
       5 <- 28        -0.00041
       5 <- 31         0.00031
       5 <- 37         0.00066
       6 <- 38        -0.00057
       6 <- 46         0.00093
       7 <- 12         0.00098
       7 <- 16        -0.01028
       7 <- 19         0.00429
       7 <- 22         0.00662
       7 <- 25         0.00058
       7 <- 30         0.00541
       7 <- 33        -0.00044
       7 <- 36         0.00058
       7 <- 40        -0.00037
       7 <- 42         0.00016
       7 <- 49        -0.00044
       7 <- 53         0.00146
       8 <-  9        -0.05800
       8 <- 13         0.00019
       8 <- 18        -0.00695
       8 <- 28        -0.00252
       8 <- 31        -0.00069
       8 <- 37        -0.00037
       8 <- 48         0.00011
       8 <- 52         0.00049
 This state for optimization and/or second-order correction.
 Total Energy, E(TD-HF/TD-DFT) =  -114.339253833
 Copying the excited state density for this state as the 1-particle RhoCI density.

 Excited State   2:      Singlet-A1     4.5562 eV  272.12 nm  f=0.0600  <S**2>=0.000
       3 -> 10        -0.01793
       3 -> 11        -0.00934
       3 -> 14         0.00770
       3 -> 15         0.00325
       3 -> 17        -0.00341
       3 -> 20        -0.00398
       3 -> 21        -0.00053
       3 -> 24         0.00181
       3 -> 26         0.00309
       3 -> 29        -0.00129
       3 -> 32         0.00276
       3 -> 34         0.00189
       3 -> 35        -0.00119
       3 -> 39         0.00070
       3 -> 43         0.00048
       3 -> 45         0.00037
       3 -> 47         0.00229
       3 -> 51         0.00121
       3 -> 54         0.00011
       4 -> 10        -0.00757
       4 -> 11         0.01301
       4 -> 14         0.00410
       4 -> 15        -0.00951
       4 -> 17         0.00291
       4 -> 20         0.00423
       4 -> 21         0.00040
       4 -> 24        -0.00462
       4 -> 26         0.00459
       4 -> 29         0.00097
       4 -> 32        -0.00136
       4 -> 34        -0.00138
       4 -> 35         0.00041
       4 -> 41         0.00012
       4 -> 43        -0.00050
       4 -> 45        -0.00083
       4 -> 47        -0.00108
       4 -> 51        -0.00033
       4 -> 54         0.00013
       5 -> 12         0.01480
       5 -> 16         0.00804
       5 -> 19         0.00142
       5 -> 22         0.00752
       5 -> 25         0.00716
       5 -> 33        -0.00288
       5 -> 36         0.00278
       5 -> 40        -0.00139
       5 -> 42         0.00072
       5 -> 49         0.00038
       5 -> 50        -0.00073
       5 -> 53        -0.00010
       6 -> 10         0.18896
       6 -> 11         0.08373
       6 -> 14        -0.08348
       6 -> 15        -0.04672
       6 -> 17        -0.01904
       6 -> 20        -0.00762
       6 -> 21         0.01096
       6 -> 24        -0.01211
       6 -> 26        -0.00566
       6 -> 29        -0.00719
       6 -> 32         0.00148
       6 -> 34         0.00142
       6 -> 35        -0.00033
       6 -> 39         0.00098
       6 -> 41        -0.00031
       6 -> 43         0.00085
       6 -> 45         0.00082
       6 -> 47         0.00109
       6 -> 51         0.00078
       6 -> 54        -0.00077
       7 ->  9         0.68210
       7 -> 13        -0.00211
       7 -> 18        -0.01599
       7 -> 23        -0.00090
       7 -> 28        -0.00053
       7 -> 31        -0.00314
       7 -> 37         0.00105
       7 -> 44        -0.00103
       7 -> 48         0.00031
       7 -> 52         0.00105
       8 -> 12        -0.00781
       8 -> 16         0.05876
       8 -> 19        -0.02276
       8 -> 22        -0.02209
       8 -> 25         0.00034
       8 -> 30        -0.01089
       8 -> 33         0.00178
       8 -> 36        -0.00198
       8 -> 40         0.00096
       8 -> 42        -0.00036
       8 -> 49         0.00047
       8 -> 50         0.00021
       8 -> 53        -0.00064
       3 <- 10        -0.01264
       3 <- 11        -0.00699
       3 <- 14         0.00591
       3 <- 15         0.00204
       3 <- 17        -0.00181
       3 <- 20        -0.00303
       3 <- 21        -0.00094
       3 <- 24         0.00104
       3 <- 26         0.00173
       3 <- 29        -0.00078
       3 <- 32         0.00251
       3 <- 34         0.00115
       3 <- 35        -0.00104
       3 <- 39         0.00065
       3 <- 43         0.00057
       3 <- 45         0.00056
       3 <- 47         0.00235
       3 <- 51         0.00119
       3 <- 54         0.00023
       4 <- 10        -0.00347
       4 <- 11         0.00849
       4 <- 14         0.00228
       4 <- 15        -0.00587
       4 <- 17         0.00156
       4 <- 20         0.00389
       4 <- 21         0.00026
       4 <- 24        -0.00326
       4 <- 26         0.00374
       4 <- 29         0.00022
       4 <- 32        -0.00163
       4 <- 34        -0.00119
       4 <- 35         0.00067
       4 <- 43        -0.00048
       4 <- 45        -0.00087
       4 <- 47        -0.00070
       4 <- 51        -0.00018
       5 <- 12         0.00726
       5 <- 16         0.00443
       5 <- 19         0.00102
       5 <- 22         0.00487
       5 <- 25         0.00507
       5 <- 30         0.00015
       5 <- 33        -0.00228
       5 <- 36         0.00230
       5 <- 40        -0.00122
       5 <- 42         0.00060
       5 <- 49         0.00034
       5 <- 50        -0.00067
       6 <- 10         0.05920
       6 <- 11         0.02864
       6 <- 14        -0.03455
       6 <- 15        -0.02121
       6 <- 17        -0.00986
       6 <- 20        -0.00544
       6 <- 21         0.00668
       6 <- 24        -0.00756
       6 <- 26        -0.00326
       6 <- 29        -0.00500
       6 <- 32         0.00186
       6 <- 34         0.00169
       6 <- 35        -0.00068
       6 <- 39         0.00100
       6 <- 41        -0.00023
       6 <- 43         0.00072
       6 <- 45         0.00069
       6 <- 47         0.00066
       6 <- 51         0.00062
       6 <- 54        -0.00067
       7 <-  9        -0.12742
       7 <- 13         0.00626
       7 <- 18        -0.01325
       7 <- 23         0.00267
       7 <- 28        -0.00324
       7 <- 31        -0.00150
       7 <- 37         0.00043
       7 <- 44        -0.00067
       7 <- 48        -0.00025
       7 <- 52         0.00094
       8 <- 12        -0.00219
       8 <- 16         0.02311
       8 <- 19        -0.01070
       8 <- 22        -0.01271
       8 <- 30        -0.00811
       8 <- 33         0.00135
       8 <- 36        -0.00154
       8 <- 40         0.00077
       8 <- 42        -0.00029
       8 <- 49         0.00030
       8 <- 50         0.00017
       8 <- 53        -0.00059

 Excited State   3:      Singlet-B1     4.9495 eV  250.50 nm  f=0.0012  <S**2>=0.000
       3 ->  9        -0.02728
       3 -> 13         0.00143
       3 -> 18        -0.00432
       3 -> 23         0.00158
       3 -> 28        -0.00082
       3 -> 31        -0.00049
       3 -> 44         0.00024
       3 -> 48         0.00098
       3 -> 52         0.00091
       4 ->  9         0.01262
       4 -> 13        -0.00259
       4 -> 18         0.00018
       4 -> 23        -0.00233
       4 -> 28         0.00028
       4 -> 31        -0.00144
       4 -> 37        -0.00038
       4 -> 44         0.00012
       4 -> 48        -0.00097
       4 -> 52        -0.00051
       5 -> 38         0.00200
       5 -> 46         0.00075
       6 ->  9         0.70298
       6 -> 13        -0.01907
       6 -> 18         0.01599
       6 -> 23        -0.01074
       6 -> 28         0.00394
       6 -> 31         0.00303
       6 -> 37        -0.00203
       6 -> 44        -0.00259
       6 -> 48         0.00394
       6 -> 52         0.00134
       7 -> 10         0.07020
       7 -> 11         0.02629
       7 -> 14        -0.02015
       7 -> 15        -0.00620
       7 -> 17        -0.00896
       7 -> 20         0.00319
       7 -> 21         0.00058
       7 -> 24        -0.00099
       7 -> 26        -0.00181
       7 -> 29        -0.00385
       7 -> 32        -0.00041
       7 -> 34         0.00091
       7 -> 35         0.00170
       7 -> 39         0.00016
       7 -> 41        -0.00041
       7 -> 43         0.00051
       7 -> 47         0.00404
       7 -> 51         0.00120
       7 -> 54         0.00031
       8 -> 27         0.00034
       8 -> 46         0.00503
       3 <-  9        -0.00920
       3 <- 13        -0.00075
       3 <- 18        -0.00278
       3 <- 23        -0.00060
       3 <- 28        -0.00050
       3 <- 31        -0.00070
       3 <- 37         0.00011
       3 <- 44        -0.00021
       3 <- 48         0.00114
       3 <- 52         0.00074
       4 <-  9         0.00668
       4 <- 13        -0.00036
       4 <- 18         0.00179
       4 <- 23        -0.00070
       4 <- 28         0.00152
       4 <- 31        -0.00096
       4 <- 37        -0.00023
       4 <- 48        -0.00084
       4 <- 52        -0.00029
       5 <- 27        -0.00049
       5 <- 38         0.00165
       5 <- 46         0.00066
       6 <-  9        -0.02761
       6 <- 13         0.00175
       6 <- 18        -0.00351
       6 <- 23        -0.00023
       6 <- 28        -0.00352
       6 <- 31         0.00098
       6 <- 37        -0.00174
       6 <- 44        -0.00129
       6 <- 48         0.00352
       6 <- 52         0.00040
       7 <- 10        -0.02438
       7 <- 11        -0.01170
       7 <- 14         0.01509
       7 <- 15         0.01071
       7 <- 17         0.00191
       7 <- 20         0.00454
       7 <- 21        -0.00398
       7 <- 24         0.00439
       7 <- 26         0.00170
       7 <- 29         0.00135
       7 <- 32         0.00013
       7 <- 34         0.00101
       7 <- 35         0.00238
       7 <- 39         0.00049
       7 <- 43         0.00035
       7 <- 45        -0.00018
       7 <- 47         0.00372
       7 <- 51         0.00113
       7 <- 54         0.00103
       8 <- 27         0.00082
       8 <- 38         0.00021
       8 <- 46         0.00470

 Excited State   4:      Singlet-B2     5.4119 eV  229.09 nm  f=0.0087  <S**2>=0.000
       3 -> 12        -0.00148
       3 -> 16         0.00196
       3 -> 19        -0.00462
       3 -> 22         0.00070
       3 -> 25         0.00063
       3 -> 30        -0.00332
       3 -> 33        -0.00013
       3 -> 36         0.00209
       3 -> 40        -0.00179
       3 -> 42         0.00034
       3 -> 49        -0.00312
       3 -> 50         0.00022
       3 -> 53         0.00031
       4 -> 12         0.00046
       4 -> 16        -0.00240
       4 -> 19         0.00034
       4 -> 22         0.00273
       4 -> 25        -0.00147
       4 -> 30         0.00140
       4 -> 33        -0.00046
       4 -> 36         0.00053
       4 -> 40         0.00047
       4 -> 49         0.00055
       4 -> 50        -0.00012
       5 -> 10         0.00990
       5 -> 11         0.00438
       5 -> 14        -0.00917
       5 -> 15         0.00427
       5 -> 20         0.00216
       5 -> 21         0.00533
       5 -> 24         0.00181
       5 -> 26        -0.00142
       5 -> 29        -0.00198
       5 -> 32        -0.00191
       5 -> 34        -0.00096
       5 -> 35        -0.00028
       5 -> 39        -0.00100
       5 -> 41         0.00065
       5 -> 45         0.00012
       5 -> 47        -0.00075
       5 -> 51         0.00046
       5 -> 54        -0.00024
       6 -> 12         0.00299
       6 -> 16        -0.00207
       6 -> 19         0.00349
       6 -> 22        -0.00035
       6 -> 25        -0.00093
       6 -> 30        -0.00041
       6 -> 33         0.00019
       6 -> 36        -0.00195
       6 -> 40         0.00160
       6 -> 42        -0.00052
       6 -> 49         0.00163
       6 -> 53        -0.00040
       7 -> 27        -0.00068
       7 -> 38         0.00070
       7 -> 46         0.00374
       8 -> 10         0.67128
       8 -> 11         0.18619
       8 -> 14        -0.11218
       8 -> 15        -0.04681
       8 -> 17        -0.01536
       8 -> 20         0.00036
       8 -> 21         0.00753
       8 -> 24        -0.00691
       8 -> 26        -0.00553
       8 -> 29        -0.01091
       8 -> 32        -0.00358
       8 -> 34        -0.00194
       8 -> 35         0.00013
       8 -> 39        -0.00073
       8 -> 43        -0.00027
       8 -> 45         0.00142
       8 -> 47        -0.00455
       8 -> 51         0.00215
       8 -> 54        -0.00196
       3 <- 12        -0.00054
       3 <- 16         0.00057
       3 <- 19        -0.00219
       3 <- 22         0.00094
       3 <- 25         0.00057
       3 <- 30        -0.00132
       3 <- 36         0.00157
       3 <- 40        -0.00158
       3 <- 42         0.00028
       3 <- 49        -0.00320
       3 <- 50         0.00019
       3 <- 53         0.00086
       4 <- 16        -0.00220
       4 <- 22         0.00263
       4 <- 25        -0.00092
       4 <- 30         0.00134
       4 <- 33        -0.00052
       4 <- 36         0.00075
       4 <- 40         0.00017
       4 <- 49         0.00041
       5 <- 10        -0.00036
       5 <- 11        -0.00140
       5 <- 14        -0.00104
       5 <- 15         0.00362
       5 <- 17         0.00021
       5 <- 20         0.00067
       5 <- 21         0.00207
       5 <- 24         0.00232
       5 <- 26        -0.00039
       5 <- 29        -0.00047
       5 <- 32        -0.00017
       5 <- 34        -0.00020
       5 <- 39        -0.00036
       5 <- 41         0.00067
       5 <- 43         0.00011
       5 <- 45         0.00039
       5 <- 47        -0.00066
       5 <- 51         0.00025
       6 <- 12        -0.00014
       6 <- 16         0.00622
       6 <- 19        -0.00287
       6 <- 22        -0.00449
       6 <- 25        -0.00071
       6 <- 30        -0.00523
       6 <- 33         0.00050
       6 <- 36        -0.00192
       6 <- 40         0.00162
       6 <- 42        -0.00059
       6 <- 49         0.00187
       6 <- 53        -0.00119
       7 <- 27        -0.00066
       7 <- 38         0.00055
       7 <- 46         0.00312
       8 <- 10        -0.02224
       8 <- 11        -0.01106
       8 <- 14         0.01117
       8 <- 15         0.00349
       8 <- 17         0.00067
       8 <- 20        -0.00268
       8 <- 21        -0.00213
       8 <- 24         0.00154
       8 <- 26         0.00185
       8 <- 29        -0.00054
       8 <- 32         0.00278
       8 <- 34         0.00127
       8 <- 35        -0.00043
       8 <- 39         0.00151
       8 <- 41         0.00047
       8 <- 43         0.00043
       8 <- 45         0.00215
       8 <- 47        -0.00350
       8 <- 51         0.00138
       8 <- 54        -0.00051

 Excited State   5:      Singlet-B1     6.4605 eV  191.91 nm  f=0.0076  <S**2>=0.000
       3 ->  9        -0.01427
       3 -> 13         0.00087
       3 -> 18        -0.00312
       3 -> 23         0.00101
       3 -> 28        -0.00340
       3 -> 31        -0.00159
       3 -> 44         0.00050
       3 -> 48        -0.00223
       4 ->  9        -0.03493
       4 -> 13         0.00639
       4 -> 18         0.00149
       4 -> 23         0.00465
       4 -> 28         0.00201
       4 -> 31        -0.00022
       4 -> 37         0.00036
       4 -> 44        -0.00046
       4 -> 48         0.00054
       4 -> 52         0.00011
       5 -> 27        -0.00736
       5 -> 38        -0.00310
       5 -> 46         0.00055
       6 ->  9        -0.07515
       6 -> 13        -0.00338
       6 -> 18         0.00230
       6 -> 23        -0.00115
       6 -> 28         0.00332
       6 -> 31        -0.00363
       6 -> 37         0.00187
       6 -> 48         0.00092
       6 -> 52        -0.00050
       7 -> 10         0.67515
       7 -> 11         0.15900
       7 -> 14        -0.09984
       7 -> 15        -0.05026
       7 -> 17        -0.00951
       7 -> 20        -0.00504
       7 -> 21         0.00356
       7 -> 24        -0.00963
       7 -> 26        -0.00762
       7 -> 29        -0.00657
       7 -> 32        -0.00158
       7 -> 34        -0.00397
       7 -> 35        -0.00198
       7 -> 39        -0.00068
       7 -> 43         0.00059
       7 -> 45         0.00083
       7 -> 47         0.00204
       7 -> 51         0.00104
       7 -> 54        -0.00131
       8 -> 27         0.00119
       8 -> 38         0.00033
       8 -> 46         0.00237
       3 <-  9        -0.00300
       3 <- 13         0.00066
       3 <- 18        -0.00127
       3 <- 23         0.00063
       3 <- 28        -0.00209
       3 <- 31        -0.00031
       3 <- 37        -0.00021
       3 <- 44         0.00022
       3 <- 48        -0.00242
       3 <- 52         0.00043
       4 <-  9        -0.01076
       4 <- 13         0.00236
       4 <- 18         0.00055
       4 <- 23         0.00225
       4 <- 28         0.00179
       4 <- 31        -0.00035
       4 <- 37         0.00043
       4 <- 44        -0.00069
       4 <- 48         0.00013
       5 <- 27        -0.00483
       5 <- 38        -0.00234
       5 <- 46         0.00050
       6 <-  9        -0.02393
       6 <- 18        -0.00359
       6 <- 23         0.00019
       6 <- 28        -0.00065

 The electronic state is 1-A1.
 Alpha  occ. eigenvalues --  -19.17405 -10.33079  -0.91608  -0.70231  -0.48931
 Alpha  occ. eigenvalues --   -0.40828  -0.32300  -0.28907
 Alpha virt. eigenvalues --   -0.15374  -0.02628   0.00644   0.04076   0.06114
 Alpha virt. eigenvalues --    0.07835   0.12455   0.14098   0.18896   0.21291
 Alpha virt. eigenvalues --    0.23984   0.30246   0.38861   0.40617   0.50879

 Mulliken charges:
               1
     1  C   -0.072367
     2  H    0.184091
     3  H    0.184091
     4  O   -0.295815
 Sum of Mulliken charges =  -0.00000

 Dipole moment (field-independent basis, Debye):
    X=             -0.0000    Y=              0.0000    Z=             -3.8865  Tot=              3.8865
 Quadrupole moment (field-independent basis, Debye-Ang):
   XX=            -12.8380   YY=            -11.9317   ZZ=            -11.1213
   XY=              0.0000   XZ=              0.0000   YZ=             -0.0000

 Normal termination of Gaussian 16 at Fri Sep 17 10:53:04 2021.
