 Gaussian 16, Revision C.01,
 Gaussian 16:  ES64L-G16RevC.01  3-Jul-2019

 ----------------------------------------
 #P wB97XD/6-311+G* NoSymm #P Field=Z+214
 ----------------------------------------

 -------
 TitleMe
 -------
 Symbolic Z-matrix:
 Charge =  1 Multiplicity = 1

                          Input orientation:
 ---------------------------------------------------------------------
 Center     Atomic      Atomic             Coordinates (Angstroms)
 Number     Number       Type             X           Y           Z
 ---------------------------------------------------------------------
      1          6           0        0.029500    1.339700    0.068200
      2          6           0        1.434800    1.286700    0.006400
      3          6           0        2.111800    0.051100   -0.005400
      4          6           0        1.445100   -1.137200    0.031200
      5          6           0       -0.687900    0.168200    0.110000
      6          1           0       -0.471300    2.298400    0.078100
      7          1           0        2.027300    2.196500   -0.032200
      8          1           0        1.989700   -2.076400    0.023200
      9          1           0       -1.771600    0.180400    0.158200
     10          7           0        3.586400    0.051000   -0.067500
     11          8           0        4.147100   -1.059700   -0.088100
     12          8           0        4.145000    1.163900   -0.090100
     13          6           0       -0.023600   -1.145800    0.083500
     14          1           0       -0.436700   -1.872500    0.788900
     15         35           0       -0.535900   -1.869700   -1.740800
 ---------------------------------------------------------------------

 SCF Done:  E(RwB97XD) =  -3010.55121482     A.U. after   18 cycles

 Alpha  occ. eigenvalues -- -483.28098 -62.83065 -56.62816 -56.62163 -56.62162
 Alpha  occ. eigenvalues --  -19.44912 -19.44857 -14.84406 -10.56642 -10.56193
 Alpha  occ. eigenvalues --  -10.56064 -10.55827 -10.55658 -10.51965  -8.98830
 Alpha  occ. eigenvalues --   -6.81661  -6.79541  -6.79532  -2.91528  -2.90967
 Alpha  occ. eigenvalues --   -2.90958  -2.89264  -2.89264  -1.48669  -1.31651
 Alpha  occ. eigenvalues --   -1.21371  -1.12530  -1.10497  -1.01683  -0.99970
 Alpha  occ. eigenvalues --   -0.94110  -0.89819  -0.84286  -0.79789  -0.79504
 Alpha  occ. eigenvalues --   -0.78954  -0.77329  -0.75086  -0.74832  -0.70609
 Alpha  occ. eigenvalues --   -0.68170  -0.66441  -0.61755  -0.58499  -0.56086
 Alpha  occ. eigenvalues --   -0.55191  -0.54645  -0.52520  -0.51901
 Alpha virt. eigenvalues --   -0.28079  -0.20388  -0.14675  -0.13458  -0.11100
 Alpha virt. eigenvalues --   -0.09830  -0.09367  -0.06409  -0.05489  -0.04829
 Alpha virt. eigenvalues --   -0.02728  -0.01448  -0.00522   0.00603   0.00888

 Mulliken charges:
               1
     1  C   -0.542146
     2  C    0.433113
     3  C   -0.688579
     4  C    0.254219
     5  C   -0.069991
     6  H    0.330636
     7  H    0.367957
     8  H    0.370637
     9  H    0.345715
    10  N   -0.114097
    11  O    0.034229
    12  O    0.031902
    13  C   -0.454251
    14  H    0.328272
    15  Br   0.372383
 Sum of Mulliken charges =   1.00000

 Dipole moment (field-independent basis, Debye):
    X=             -1.3563    Y=             -1.4247    Z=             -3.7711  Tot=              4.2533
 Quadrupole moment (field-independent basis, Debye-Ang):
   XX=            -72.0223   YY=            -50.9060   ZZ=            -59.0050
   XY=              1.9205   XZ=             -0.6235   YZ=              4.8291

 Normal termination of Gaussian 16 at Wed May  1 15:27:47 2024.
