 Gaussian 16, Revision C.01,
 Gaussian 16:  ES64L-G16RevC.01  3-Jul-2019

 --------------------------------------
 #P wB97XD/6-311+G* NoSymm #P Field=X+0
 --------------------------------------

 -------
 TitleMe
 -------
 Symbolic Z-matrix:
 Charge =  1 Multiplicity = 1

                          Input orientation:
 ---------------------------------------------------------------------
 Center     Atomic      Atomic             Coordinates (Angstroms)
 Number     Number       Type             X           Y           Z
 ---------------------------------------------------------------------
      1          6           0        0.029500    1.339700    0.068200
      2          6           0        1.434800    1.286700    0.006400
      3          6           0        2.111800    0.051100   -0.005400
      4          6           0        1.445100   -1.137200    0.031200
      5          6           0       -0.687900    0.168200    0.110000
      6          1           0       -0.471300    2.298400    0.078100
      7          1           0        2.027300    2.196500   -0.032200
      8          1           0        1.989700   -2.076400    0.023200
      9          1           0       -1.771600    0.180400    0.158200
     10          7           0        3.586400    0.051000   -0.067500
     11          8           0        4.147100   -1.059700   -0.088100
     12          8           0        4.145000    1.163900   -0.090100
     13          6           0       -0.023600   -1.145800    0.083500
     14          1           0       -0.436700   -1.872500    0.788900
     15         35           0       -0.535900   -1.869700   -1.740800
 ---------------------------------------------------------------------

 SCF Done:  E(RwB97XD) =  -3010.53534310     A.U. after   18 cycles

 Alpha  occ. eigenvalues -- -483.31077 -62.86103 -56.65793 -56.65225 -56.65223
 Alpha  occ. eigenvalues --  -19.45662 -19.45589 -14.85166 -10.58095 -10.57294
 Alpha  occ. eigenvalues --  -10.56966 -10.56773 -10.56520 -10.52725  -9.01911
 Alpha  occ. eigenvalues --   -6.84580  -6.82720  -6.82706  -2.94487  -2.93993
 Alpha  occ. eigenvalues --   -2.93979  -2.92491  -2.92491  -1.49427  -1.32402
 Alpha  occ. eigenvalues --   -1.22417  -1.13846  -1.11526  -1.04210  -1.00814
 Alpha  occ. eigenvalues --   -0.95232  -0.90721  -0.85053  -0.80530  -0.80415
 Alpha  occ. eigenvalues --   -0.79767  -0.78071  -0.75875  -0.75687  -0.72069
 Alpha  occ. eigenvalues --   -0.69115  -0.67321  -0.63456  -0.59921  -0.56937
 Alpha  occ. eigenvalues --   -0.56237  -0.55925  -0.55400  -0.55035
 Alpha virt. eigenvalues --   -0.29400  -0.21087  -0.15428  -0.13151  -0.08511
 Alpha virt. eigenvalues --   -0.05940  -0.05447  -0.04607  -0.04463  -0.02975
 Alpha virt. eigenvalues --   -0.02290  -0.02145  -0.01223  -0.00850   0.00539

 Mulliken charges:
               1
     1  C   -0.577368
     2  C    0.517197
     3  C   -0.716625
     4  C    0.287009
     5  C    0.004016
     6  H    0.333902
     7  H    0.366285
     8  H    0.373729
     9  H    0.350796
    10  N   -0.107031
    11  O    0.031067
    12  O    0.027908
    13  C   -0.469971
    14  H    0.403958
    15  Br   0.175127
 Sum of Mulliken charges =   1.00000

 Dipole moment (field-independent basis, Debye):
    X=             -0.8288    Y=             -0.5866    Z=             -0.0199  Tot=              1.0155
 Quadrupole moment (field-independent basis, Debye-Ang):
   XX=            -71.2490   YY=            -51.9898   ZZ=            -62.6194
   XY=              1.2997   XZ=              1.1110   YZ=              1.6616

 Normal termination of Gaussian 16 at Wed May  1 14:45:41 2024.
