 Gaussian 16, Revision C.01,
 Gaussian 16:  ES64L-G16RevC.01  3-Jul-2019

 ---------------------------------------
 #P wB97XD/6-311+G* NoSymm #P Field=Y-48
 ---------------------------------------

 -------
 TitleMe
 -------
 Symbolic Z-matrix:
 Charge =  1 Multiplicity = 1

                          Input orientation:
 ---------------------------------------------------------------------
 Center     Atomic      Atomic             Coordinates (Angstroms)
 Number     Number       Type             X           Y           Z
 ---------------------------------------------------------------------
      1          6           0        0.029500    1.339700    0.068200
      2          6           0        1.434800    1.286700    0.006400
      3          6           0        2.111800    0.051100   -0.005400
      4          6           0        1.445100   -1.137200    0.031200
      5          6           0       -0.687900    0.168200    0.110000
      6          1           0       -0.471300    2.298400    0.078100
      7          1           0        2.027300    2.196500   -0.032200
      8          1           0        1.989700   -2.076400    0.023200
      9          1           0       -1.771600    0.180400    0.158200
     10          7           0        3.586400    0.051000   -0.067500
     11          8           0        4.147100   -1.059700   -0.088100
     12          8           0        4.145000    1.163900   -0.090100
     13          6           0       -0.023600   -1.145800    0.083500
     14          1           0       -0.436700   -1.872500    0.788900
     15         35           0       -0.535900   -1.869700   -1.740800
 ---------------------------------------------------------------------

 SCF Done:  E(RwB97XD) =  -3010.53553752     A.U. after   18 cycles

 Alpha  occ. eigenvalues -- -483.31845 -62.86881 -56.66560 -56.66006 -56.66004
 Alpha  occ. eigenvalues --  -19.45845 -19.45685 -14.85296 -10.58763 -10.57272
 Alpha  occ. eigenvalues --  -10.57207 -10.57095 -10.56568 -10.52539  -9.02695
 Alpha  occ. eigenvalues --   -6.85335  -6.83520  -6.83508  -2.95249  -2.94765
 Alpha  occ. eigenvalues --   -2.94754  -2.93302  -2.93302  -1.49560  -1.32532
 Alpha  occ. eigenvalues --   -1.22666  -1.14225  -1.11621  -1.04816  -1.00947
 Alpha  occ. eigenvalues --   -0.95479  -0.90888  -0.85172  -0.80683  -0.80556
 Alpha  occ. eigenvalues --   -0.79920  -0.78366  -0.76009  -0.75786  -0.72393
 Alpha  occ. eigenvalues --   -0.69239  -0.67382  -0.63666  -0.60340  -0.57345
 Alpha  occ. eigenvalues --   -0.56880  -0.56075  -0.55670  -0.55472
 Alpha virt. eigenvalues --   -0.29688  -0.21263  -0.15880  -0.13416  -0.09570
 Alpha virt. eigenvalues --   -0.06200  -0.05718  -0.05466  -0.04611  -0.03325
 Alpha virt. eigenvalues --   -0.02868  -0.02158  -0.02005  -0.01535  -0.00754

 Mulliken charges:
               1
     1  C   -0.567901
     2  C    0.493894
     3  C   -0.691654
     4  C    0.273973
     5  C    0.018372
     6  H    0.353577
     7  H    0.383565
     8  H    0.357563
     9  H    0.352208
    10  N   -0.107977
    11  O    0.006763
    12  O    0.055549
    13  C   -0.462670
    14  H    0.391628
    15  Br   0.143110
 Sum of Mulliken charges =   1.00000

 Dipole moment (field-independent basis, Debye):
    X=             -0.6642    Y=              0.7923    Z=              0.1595  Tot=              1.0461
 Quadrupole moment (field-independent basis, Debye-Ang):
   XX=            -70.9814   YY=            -52.6336   ZZ=            -63.0241
   XY=              2.8412   XZ=              0.9565   YZ=              1.0308

 Normal termination of Gaussian 16 at Wed May  1 15:04:34 2024.
