 Gaussian 16, Revision C.01,
 Gaussian 16:  ES64L-G16RevC.01  3-Jul-2019

 ----------------------------------------
 #P wB97XD/6-311+G* NoSymm #P Field=X-107
 ----------------------------------------

 -------
 TitleMe
 -------
 Symbolic Z-matrix:
 Charge =  1 Multiplicity = 1

                          Input orientation:
 ---------------------------------------------------------------------
 Center     Atomic      Atomic             Coordinates (Angstroms)
 Number     Number       Type             X           Y           Z
 ---------------------------------------------------------------------
      1          6           0        0.519300    1.233000   -0.031900
      2          6           0        1.944500    1.269200   -0.036700
      3          6           0        2.620400    0.092800   -0.025000
      4          6           0       -0.196000    0.030100    0.001000
      5          1           0       -0.020700    2.174200   -0.043400
      6          1           0        2.482800    2.208900   -0.036100
      7          1           0       -1.277700    0.039900    0.011700
      8          7           0        4.092100    0.095900    0.036600
      9          8           0        4.639300   -1.021700    0.144600
     10          8           0        4.664900    1.198400   -0.023300
     11          6           0        0.494300   -1.167100    0.021000
     12          1           0       -0.032500   -2.114900    0.054500
     13          6           0        1.962900   -1.216500   -0.021100
     14          1           0        2.443600   -1.963100    0.615100
     15         35           0        2.173000   -1.949100   -1.906200
 ---------------------------------------------------------------------

 SCF Done:  E(RwB97XD) =  -3010.55004646     A.U. after   24 cycles

 Alpha  occ. eigenvalues -- -483.27416 -62.82424 -56.62128 -56.61548 -56.61533
 Alpha  occ. eigenvalues --  -19.39578 -19.39520 -14.79126 -10.55366 -10.54278
 Alpha  occ. eigenvalues --  -10.54159 -10.53997 -10.50347 -10.49283  -8.98219
 Alpha  occ. eigenvalues --   -6.80924  -6.79024  -6.78976  -2.90821  -2.90326
 Alpha  occ. eigenvalues --   -2.90288  -2.88768  -2.88767  -1.43284  -1.26165
 Alpha  occ. eigenvalues --   -1.18842  -1.09410  -1.08569  -1.00981  -0.96035
 Alpha  occ. eigenvalues --   -0.91950  -0.86889  -0.80741  -0.76631  -0.75447
 Alpha  occ. eigenvalues --   -0.74935  -0.73765  -0.71942  -0.69734  -0.68323
 Alpha  occ. eigenvalues --   -0.65551  -0.64089  -0.60111  -0.56033  -0.52340
 Alpha  occ. eigenvalues --   -0.51596  -0.50454  -0.49107  -0.48851
 Alpha virt. eigenvalues --   -0.26508  -0.15768  -0.11790  -0.09471  -0.08555
 Alpha virt. eigenvalues --   -0.06234  -0.04513  -0.03115  -0.02219  -0.00954
 Alpha virt. eigenvalues --    0.00043   0.00740   0.01638   0.02602   0.03896

 Mulliken charges:
               1
     1  C   -0.100397
     2  C    0.168652
     3  C   -0.012584
     4  C   -0.323443
     5  H    0.317287
     6  H    0.363793
     7  H    0.277069
     8  N   -0.242618
     9  O    0.129831
    10  O    0.121256
    11  C   -0.256609
    12  H    0.329787
    13  C   -0.405107
    14  H    0.424645
    15  Br   0.208437
 Sum of Mulliken charges =   1.00000

 Dipole moment (field-independent basis, Debye):
    X=              5.8464    Y=             -1.0645    Z=             -0.9073  Tot=              6.0114
 Quadrupole moment (field-independent basis, Debye-Ang):
   XX=            -56.0703   YY=            -50.9693   ZZ=            -61.8587
   XY=             -3.6965   XZ=             -3.4143   YZ=              2.8306

 Normal termination of Gaussian 16 at Thu May  2 14:23:30 2024.
