 Gaussian 16, Revision C.01,
 Gaussian 16:  ES64L-G16RevC.01  3-Jul-2019

 ---------------------------------------
 #P wB97XD/6-311+G* NoSymm #P Field=Z+19
 ---------------------------------------

 -------
 TitleMe
 -------
 Symbolic Z-matrix:
 Charge =  1 Multiplicity = 1

                          Input orientation:
 ---------------------------------------------------------------------
 Center     Atomic      Atomic             Coordinates (Angstroms)
 Number     Number       Type             X           Y           Z
 ---------------------------------------------------------------------
      1          6           0        0.029500    1.339700    0.068200
      2          6           0        1.434800    1.286700    0.006400
      3          6           0        2.111800    0.051100   -0.005400
      4          6           0        1.445100   -1.137200    0.031200
      5          6           0       -0.687900    0.168200    0.110000
      6          1           0       -0.471300    2.298400    0.078100
      7          1           0        2.027300    2.196500   -0.032200
      8          1           0        1.989700   -2.076400    0.023200
      9          1           0       -1.771600    0.180400    0.158200
     10          7           0        3.586400    0.051000   -0.067500
     11          8           0        4.147100   -1.059700   -0.088100
     12          8           0        4.145000    1.163900   -0.090100
     13          6           0       -0.023600   -1.145800    0.083500
     14          1           0       -0.436700   -1.872500    0.788900
     15         35           0       -0.535900   -1.869700   -1.740800
 ---------------------------------------------------------------------

 SCF Done:  E(RwB97XD) =  -3010.53548096     A.U. after   18 cycles

 Alpha  occ. eigenvalues -- -483.30786 -62.85808 -56.65504 -56.64928 -56.64925
 Alpha  occ. eigenvalues --  -19.45586 -19.45515 -14.85090 -10.57948 -10.57188
 Alpha  occ. eigenvalues --  -10.56875 -10.56680 -10.56433 -10.52647  -9.01612
 Alpha  occ. eigenvalues --   -6.84297  -6.82413  -6.82398  -2.94200  -2.93700
 Alpha  occ. eigenvalues --   -2.93686  -2.92180  -2.92179  -1.49352  -1.32328
 Alpha  occ. eigenvalues --   -1.22312  -1.13709  -1.11426  -1.03972  -1.00730
 Alpha  occ. eigenvalues --   -0.95124  -0.90632  -0.84977  -0.80453  -0.80328
 Alpha  occ. eigenvalues --   -0.79688  -0.77994  -0.75796  -0.75601  -0.71919
 Alpha  occ. eigenvalues --   -0.69023  -0.67232  -0.63299  -0.59756  -0.56837
 Alpha  occ. eigenvalues --   -0.55960  -0.55804  -0.55316  -0.54775
 Alpha virt. eigenvalues --   -0.29267  -0.21011  -0.15251  -0.13033  -0.08598
 Alpha virt. eigenvalues --   -0.06008  -0.05530  -0.04783  -0.03985  -0.02940
 Alpha virt. eigenvalues --   -0.02152  -0.02108  -0.00843  -0.00575   0.00940

 Mulliken charges:
               1
     1  C   -0.573782
     2  C    0.510605
     3  C   -0.714419
     4  C    0.284265
     5  C   -0.002142
     6  H    0.333319
     7  H    0.366186
     8  H    0.373235
     9  H    0.350099
    10  N   -0.107377
    11  O    0.031059
    12  O    0.027983
    13  C   -0.469014
    14  H    0.397316
    15  Br   0.192667
 Sum of Mulliken charges =   1.00000

 Dipole moment (field-independent basis, Debye):
    X=             -0.8750    Y=             -0.6584    Z=             -0.3490  Tot=              1.1494
 Quadrupole moment (field-independent basis, Debye-Ang):
   XX=            -71.3143   YY=            -51.8919   ZZ=            -62.2686
   XY=              1.3523   XZ=              0.9593   YZ=              1.9422

 Normal termination of Gaussian 16 at Wed May  1 15:24:57 2024.
