 Gaussian 16, Revision C.01,
 Gaussian 16:  ES64L-G16RevC.01  3-Jul-2019

 ----------------------------------------
 #P wB97XD/6-311+G* NoSymm #P Field=X+107
 ----------------------------------------

 -------
 TitleMe
 -------
 Symbolic Z-matrix:
 Charge =  1 Multiplicity = 1

                          Input orientation:
 ---------------------------------------------------------------------
 Center     Atomic      Atomic             Coordinates (Angstroms)
 Number     Number       Type             X           Y           Z
 ---------------------------------------------------------------------
      1          6           0        0.029500    1.339700    0.068200
      2          6           0        1.434800    1.286700    0.006400
      3          6           0        2.111800    0.051100   -0.005400
      4          6           0        1.445100   -1.137200    0.031200
      5          6           0       -0.687900    0.168200    0.110000
      6          1           0       -0.471300    2.298400    0.078100
      7          1           0        2.027300    2.196500   -0.032200
      8          1           0        1.989700   -2.076400    0.023200
      9          1           0       -1.771600    0.180400    0.158200
     10          7           0        3.586400    0.051000   -0.067500
     11          8           0        4.147100   -1.059700   -0.088100
     12          8           0        4.145000    1.163900   -0.090100
     13          6           0       -0.023600   -1.145800    0.083500
     14          1           0       -0.436700   -1.872500    0.788900
     15         35           0       -0.535900   -1.869700   -1.740800
 ---------------------------------------------------------------------

 SCF Done:  E(RwB97XD) =  -3010.54558597     A.U. after   19 cycles

 Alpha  occ. eigenvalues -- -483.31857 -62.86865 -56.66572 -56.65982 -56.65977
 Alpha  occ. eigenvalues --  -19.51182 -19.51102 -14.90522 -10.59621 -10.59070
 Alpha  occ. eigenvalues --  -10.59023 -10.58987 -10.57677 -10.53813  -9.02659
 Alpha  occ. eigenvalues --   -6.85374  -6.83445  -6.83422  -2.95270  -2.94760
 Alpha  occ. eigenvalues --   -2.94740  -2.93197  -2.93197  -1.54918  -1.37956
 Alpha  occ. eigenvalues --   -1.24304  -1.15915  -1.13137  -1.05511  -1.03675
 Alpha  occ. eigenvalues --   -0.96819  -0.92909  -0.88758  -0.84927  -0.83615
 Alpha  occ. eigenvalues --   -0.83420  -0.80184  -0.79428  -0.77254  -0.73636
 Alpha  occ. eigenvalues --   -0.70346  -0.68812  -0.65145  -0.62457  -0.62020
 Alpha  occ. eigenvalues --   -0.61180  -0.61005  -0.56737  -0.55948
 Alpha virt. eigenvalues --   -0.30778  -0.25422  -0.16800  -0.15263  -0.10882
 Alpha virt. eigenvalues --   -0.08256  -0.07817  -0.06552  -0.06378  -0.04713
 Alpha virt. eigenvalues --   -0.03492  -0.03183  -0.02794  -0.01193  -0.00845

 Mulliken charges:
               1
     1  C   -0.603649
     2  C    0.552185
     3  C   -0.741925
     4  C    0.230518
     5  C    0.039465
     6  H    0.356125
     7  H    0.346715
     8  H    0.358136
     9  H    0.397100
    10  N   -0.103767
    11  O   -0.016863
    12  O   -0.020090
    13  C   -0.450673
    14  H    0.421726
    15  Br   0.234996
 Sum of Mulliken charges =   1.00000

 Dipole moment (field-independent basis, Debye):
    X=             -4.0507    Y=             -0.9576    Z=             -0.2877  Tot=              4.1723
 Quadrupole moment (field-independent basis, Debye-Ang):
   XX=            -78.9538   YY=            -51.6626   ZZ=            -61.8519
   XY=              1.7914   XZ=              1.9355   YZ=              2.4153

 Normal termination of Gaussian 16 at Wed May  1 14:46:33 2024.
