 Gaussian 16, Revision A.03,
 Gaussian 16:  ES64L-G16RevA.03 25-Dec-2016

 --------------------------------------------------------------------
 #p B3LYP/6-311+G** #p TD=(singlets,nstates=30)IOp(6/8=3) IOp(9/40=4)
 --------------------------------------------------------------------

 ------------------------------
 Scan Step 12, Bond Length 0.56
 ------------------------------
 Symbolic Z-matrix:
 Charge =  0 Multiplicity = 1

                         Standard orientation:
 ---------------------------------------------------------------------
 Center     Atomic      Atomic             Coordinates (Angstroms)
 Number     Number       Type             X           Y           Z
 ---------------------------------------------------------------------
      1          6           0        0.000000    0.000000   -0.206081
      2          1           0        0.000000    0.937260   -0.797431
      3          1           0       -0.000000   -0.937260   -0.797431
      4          8           0        0.000000   -0.000000    0.353919
 ---------------------------------------------------------------------

 SCF Done:  E(RB3LYP) =  -110.655431223     A.U. after   10 cycles

 Excitation energies and oscillator strengths:

 Excited State   1:      Singlet-B2     4.3923 eV  282.28 nm  f=0.1489  <S**2>=0.000
       3 -> 11         0.00074
       3 -> 15         0.00122
       3 -> 19         0.00074
       3 -> 22         0.00106
       3 -> 25         0.00140
       3 -> 31        -0.00032
       3 -> 40         0.00050
       3 -> 43         0.00025
       3 -> 54         0.00016
       4 ->  9        -0.00245
       4 -> 12         0.00173
       4 -> 13         0.00292
       4 -> 16         0.00122
       4 -> 17         0.00175
       4 -> 20         0.00206
       4 -> 21         0.00154
       4 -> 24         0.00112
       4 -> 26        -0.00071
       4 -> 30         0.00151
       4 -> 32         0.00080
       4 -> 33        -0.00071
       4 -> 38        -0.00051
       4 -> 42         0.00044
       4 -> 44        -0.00024
       4 -> 47        -0.00068
       4 -> 49        -0.00011
       4 -> 51        -0.00010
       4 -> 53        -0.00014
       5 -> 28         0.00214
       5 -> 35         0.00096
       5 -> 45         0.00067
       6 -> 11        -0.00840
       6 -> 15         0.00224
       6 -> 19        -0.00174
       6 -> 22        -0.00013
       6 -> 25         0.00379
       6 -> 29         0.00100
       6 -> 31        -0.00073
       6 -> 40         0.00015
       6 -> 43         0.00018
       6 -> 46         0.00024
       7 -> 11         0.00853
       7 -> 15         0.00493
       7 -> 19         0.00391
       7 -> 22         0.00070
       7 -> 25         0.00215
       7 -> 29        -0.00098
       7 -> 31         0.00103
       7 -> 37        -0.00062
       7 -> 43        -0.00033
       7 -> 46         0.00047
       7 -> 50         0.00041
       7 -> 54        -0.00015
       8 ->  9         0.70426
       8 -> 12        -0.00579
       8 -> 13         0.06359
       8 -> 16        -0.00596
       8 -> 17        -0.02386
       8 -> 20         0.00597
       8 -> 21         0.01158
       8 -> 24        -0.00054
       8 -> 26        -0.00106
       8 -> 30        -0.00353
       8 -> 32        -0.00196
       8 -> 33         0.00071
       8 -> 38        -0.00096
       8 -> 39        -0.00024
       8 -> 42         0.00074
       8 -> 44         0.00055
       8 -> 47         0.00055
       8 -> 49         0.00026
       3 <- 11         0.00038
       3 <- 15         0.00083
       3 <- 19         0.00045
       3 <- 22         0.00090
       3 <- 25         0.00107
       3 <- 31        -0.00034
       3 <- 37         0.00012
       3 <- 40         0.00049
       3 <- 43         0.00025
       3 <- 54         0.00017
       4 <-  9        -0.00096
       4 <- 12        -0.00012
       4 <- 13         0.00239
       4 <- 16         0.00132
       4 <- 20         0.00137
       4 <- 21         0.00128
       4 <- 24         0.00065
       4 <- 26        -0.00125
       4 <- 30         0.00117
       4 <- 32         0.00040
       4 <- 33        -0.00024
       4 <- 38        -0.00034
       4 <- 39         0.00014
       4 <- 42         0.00034
       4 <- 44        -0.00021
       4 <- 47        -0.00062
       5 <- 28         0.00185
       5 <- 35         0.00079
       5 <- 45         0.00056
       6 <- 11        -0.00271
       6 <- 15         0.00260
       6 <- 19        -0.00067
       6 <- 22         0.00043
       6 <- 25         0.00296
       6 <- 29         0.00066
       6 <- 31        -0.00066
       6 <- 40         0.00015
       6 <- 43         0.00014
       6 <- 46         0.00020
       7 <- 11         0.00209
       7 <- 15         0.00243
       7 <- 19         0.00100
       7 <- 22         0.00037
       7 <- 25         0.00134
       7 <- 29        -0.00167
       7 <- 31         0.00090
       7 <- 37        -0.00038
       7 <- 43        -0.00021
       7 <- 46         0.00050
       7 <- 50         0.00050
       8 <-  9        -0.01390
       8 <- 12        -0.00755
       8 <- 13         0.02618
       8 <- 16         0.00765
       8 <- 17        -0.00040
       8 <- 20         0.00153
       8 <- 21         0.00625
       8 <- 24         0.00268
       8 <- 26        -0.00087
       8 <- 30        -0.00242
       8 <- 32        -0.00191
       8 <- 33         0.00010
       8 <- 38        -0.00094
       8 <- 39        -0.00027
       8 <- 42         0.00069
       8 <- 44         0.00024
       8 <- 47         0.00049
       8 <- 49         0.00016
 This state for optimization and/or second-order correction.
 Total Energy, E(TD-HF/TD-DFT) =  -110.494016622
 Copying the excited state density for this state as the 1-particle RhoCI density.

 Excited State   2:      Singlet-A2     4.7819 eV  259.28 nm  f=0.0000  <S**2>=0.000
       3 -> 28        -0.00201
       3 -> 35        -0.00102
       3 -> 45        -0.00030
       4 -> 10        -0.00077
       4 -> 14        -0.00083
       4 -> 18        -0.00208
       4 -> 23        -0.00055
       4 -> 27        -0.00189
       4 -> 34         0.00027
       4 -> 36        -0.00100
       4 -> 48        -0.00015
       4 -> 52        -0.00020
       5 -> 11         0.00018
       5 -> 15        -0.00020
       5 -> 19         0.00030
       5 -> 22        -0.00065
       5 -> 25         0.00023
       5 -> 29         0.00036
       5 -> 37        -0.00032
       5 -> 40        -0.00015
       5 -> 43        -0.00035
       5 -> 46        -0.00025
       5 -> 50         0.00016
       6 -> 28        -0.00318
       6 -> 35         0.00076
       6 -> 45         0.00019
       7 -> 28         0.00139
       7 -> 35        -0.00019
       7 -> 45        -0.00024
       8 -> 10         0.70670
       8 -> 14        -0.00201
       8 -> 18         0.02485
       8 -> 23        -0.00359
       8 -> 34         0.00352
       8 -> 36        -0.00138
       8 -> 41         0.00065
       8 -> 48         0.00015
       8 -> 52         0.00026
       3 <- 28        -0.00169
       3 <- 35        -0.00088
       3 <- 45        -0.00029
       4 <- 10        -0.00022
       4 <- 14         0.00023
       4 <- 18        -0.00080
       4 <- 23        -0.00013
       4 <- 27        -0.00050
       4 <- 34         0.00062
       4 <- 36        -0.00061
       5 <- 11         0.00042
       5 <- 15        -0.00044
       5 <- 19         0.00098
       5 <- 22        -0.00079
       5 <- 25         0.00063
       5 <- 29         0.00117
       5 <- 31         0.00011
       5 <- 37        -0.00055
       5 <- 40        -0.00011
       5 <- 43        -0.00039
       5 <- 46        -0.00029
       5 <- 54        -0.00017
       6 <- 28        -0.00312
       6 <- 35         0.00090
       6 <- 45         0.00018
       7 <- 28         0.00139
       7 <- 35        -0.00030
       7 <- 45        -0.00028
       8 <- 10         0.00291
       8 <- 14         0.00178
       8 <- 18        -0.00758
       8 <- 23        -0.00012
       8 <- 27        -0.00088
       8 <- 34         0.00333
       8 <- 36        -0.00112
       8 <- 41         0.00037
       8 <- 52         0.00011

 Excited State   3:      Singlet-B2     5.5044 eV  225.25 nm  f=0.0390  <S**2>=0.000
       3 -> 11        -0.00026
       3 -> 15         0.00040
       3 -> 19        -0.00051
       3 -> 22         0.00023
       3 -> 29        -0.00011
       3 -> 31         0.00013
       3 -> 37        -0.00015
       3 -> 40        -0.00023
       3 -> 43        -0.00017
       3 -> 54        -0.00019
       4 ->  9         0.00076
       4 -> 12         0.00011
       4 -> 13         0.00083
       4 -> 16         0.00160
       4 -> 17        -0.00080
       4 -> 20        -0.00056
       4 -> 21         0.00087
       4 -> 24         0.00089
       4 -> 30        -0.00200
       4 -> 32        -0.00012
       4 -> 38         0.00046
       4 -> 39        -0.00087
       4 -> 42        -0.00030
       4 -> 47         0.00038
       5 -> 28        -0.00099
       5 -> 35        -0.00108
       5 -> 45        -0.00057
       6 -> 11        -0.00092
       6 -> 15         0.00415
       6 -> 19        -0.00200
       6 -> 22        -0.00030
       6 -> 25         0.00169
       6 -> 29         0.00230
       6 -> 31         0.00056
       6 -> 37         0.00043
       6 -> 40        -0.00038
       6 -> 43         0.00028
       6 -> 46        -0.00018
       6 -> 50        -0.00019
       6 -> 54         0.00013
       7 -> 11        -0.00103
       7 -> 15        -0.00369
       7 -> 19        -0.00120
       7 -> 22        -0.00024
       7 -> 25        -0.00276
       7 -> 29        -0.00093
       7 -> 31        -0.00043
       7 -> 37         0.00055
       7 -> 40        -0.00016
       7 -> 43         0.00010
       7 -> 46        -0.00058
       7 -> 50        -0.00026
       7 -> 54         0.00019
       8 ->  9         0.00273
       8 -> 12         0.70537
       8 -> 13         0.04233
       8 -> 16         0.02408
       8 -> 17         0.00208
       8 -> 20         0.01559
       8 -> 21         0.00530
       8 -> 24        -0.00102
       8 -> 26         0.00204
       8 -> 30        -0.00319
       8 -> 32         0.00041
       8 -> 33        -0.00030
       8 -> 38        -0.00085
       8 -> 39         0.00129
       8 -> 42         0.00095
       8 -> 44        -0.00018
       8 -> 47        -0.00019
       8 -> 51        -0.00012
       8 -> 53        -0.00012
       3 <- 15         0.00030
       3 <- 19        -0.00019
       3 <- 25         0.00017
       3 <- 31         0.00015
       3 <- 37        -0.00018
       3 <- 40        -0.00019
       3 <- 43        -0.00017
       3 <- 54        -0.00023
       4 <-  9        -0.00096
       4 <- 12        -0.00021
       4 <- 13         0.00094
       4 <- 16         0.00065
       4 <- 17         0.00044
       4 <- 20        -0.00035
       4 <- 21         0.00061
       4 <- 24         0.00093
       4 <- 26         0.00024
       4 <- 30        -0.00138
       4 <- 32        -0.00029
       4 <- 33        -0.00043
       4 <- 38         0.00030
       4 <- 39        -0.00062
       4 <- 42        -0.00033
       4 <- 44         0.00010
       4 <- 47         0.00035
       5 <- 28        -0.00064
       5 <- 35        -0.00095
       5 <- 45        -0.00051
       6 <- 11        -0.00084
       6 <- 15         0.00086
       6 <- 19         0.00011
       6 <- 22        -0.00054
       6 <- 25         0.00158
       6 <- 29         0.00176
       6 <- 31         0.00072
       6 <- 37         0.00044
       6 <- 40        -0.00029
       6 <- 43         0.00023
       6 <- 46        -0.00014
       6 <- 50        -0.00012
       6 <- 54         0.00012
       7 <- 11         0.00035
       7 <- 15        -0.00127
       7 <- 19        -0.00052
       7 <- 22        -0.00021
       7 <- 25        -0.00169
       7 <- 29        -0.00017
       7 <- 31        -0.00031
       7 <- 37         0.00023
       7 <- 40        -0.00010
       7 <- 46        -0.00051
       7 <- 50        -0.00034
       7 <- 54         0.00010
       8 <-  9        -0.00692
       8 <- 12         0.00063
       8 <- 13         0.01281
       8 <- 16         0.00473
       8 <- 17        -0.00195
       8 <- 20        -0.00328
       8 <- 21         0.00318
       8 <- 24         0.00053
       8 <- 30        -0.00249
       8 <- 32         0.00037
       8 <- 33        -0.00039
       8 <- 38        -0.00071
       8 <- 39         0.00122
       8 <- 42         0.00082
       8 <- 44        -0.00012
       8 <- 47        -0.00017

 Excited State   4:      Singlet-A1     5.7625 eV  215.16 nm  f=0.0000  <S**2>=0.000
       3 ->  9         0.00171
       3 -> 12        -0.00026
       3 -> 13         0.00011
       3 -> 16        -0.00118
       3 -> 17        -0.00186
       3 -> 20        -0.00011
       3 -> 21         0.00106
       3 -> 24        -0.00124
       3 -> 26        -0.00037
       3 -> 30         0.00066
       3 -> 32        -0.00024
       3 -> 33         0.00104
       3 -> 38         0.00058
       3 -> 39         0.00033
       3 -> 44        -0.00020
       3 -> 51        -0.00011
       3 -> 53         0.00017
       4 -> 11        -0.00532
       4 -> 15        -0.00465
       4 -> 19        -0.00480
       4 -> 22        -0.00277
       4 -> 25        -0.00317
       4 -> 29        -0.00094
       4 -> 37        -0.00083
       4 -> 40         0.00013
       4 -> 43         0.00016
       4 -> 46        -0.00013
       5 -> 10        -0.00205
       5 -> 14        -0.00389
       5 -> 18        -0.00016
       5 -> 23         0.00380
       5 -> 34        -0.00064
       5 -> 36        -0.00055
       6 ->  9         0.01020
       6 -> 12         0.00837
       6 -> 13        -0.00304
       6 -> 16        -0.00705
       6 -> 17        -0.00472
       6 -> 20         0.00388
       6 -> 21         0.00303
       6 -> 24        -0.00485
       6 -> 26         0.00230
       6 -> 30        -0.00040
       6 -> 32         0.00363
       6 -> 33        -0.00036
       6 -> 38         0.00188
       6 -> 39        -0.00109
       6 -> 42        -0.00036
       6 -> 44         0.00096
       6 -> 47        -0.00022
       6 -> 49        -0.00038
       6 -> 51        -0.00016
       7 ->  9         0.01233
       7 -> 12        -0.01154
       7 -> 13        -0.00189
       7 -> 16         0.00563
       7 -> 17        -0.01054
       7 -> 20        -0.00291
       7 -> 21        -0.00228
       7 -> 24        -0.00064
       7 -> 26        -0.00405
       7 -> 30        -0.00107
       7 -> 32        -0.00040
       7 -> 33         0.00118
       7 -> 38        -0.00097
       7 -> 39         0.00022
       7 -> 42         0.00014
       7 -> 44        -0.00014
       7 -> 51         0.00010
       7 -> 53        -0.00014
       8 -> 11         0.70426
       8 -> 15         0.05731
       8 -> 19        -0.02408
       8 -> 22        -0.00155
       8 -> 25         0.01058
       8 -> 29        -0.00219
       8 -> 31         0.00230
       8 -> 37        -0.00367
       8 -> 40         0.00096
       8 -> 43         0.00188
       8 -> 46        -0.00120
       8 -> 50         0.00024
       3 <-  9         0.00109
       3 <- 13         0.00011
       3 <- 16        -0.00081
       3 <- 17        -0.00121
       3 <- 21         0.00080
       3 <- 24        -0.00093
       3 <- 26        -0.00030
       3 <- 30         0.00055
       3 <- 32        -0.00016
       3 <- 33         0.00081
       3 <- 38         0.00048
       3 <- 39         0.00028
       3 <- 44        -0.00017
       3 <- 53         0.00015
       4 <- 11        -0.00246
       4 <- 15        -0.00205
       4 <- 19        -0.00293
       4 <- 22        -0.00193
       4 <- 25        -0.00188
       4 <- 29        -0.00069
       4 <- 37        -0.00069
       4 <- 40         0.00013
       4 <- 43         0.00016
       5 <- 10        -0.00127
       5 <- 14        -0.00250
       5 <- 18        -0.00011
       5 <- 23         0.00278
       5 <- 34        -0.00054
       5 <- 36        -0.00047
       6 <-  9         0.00812
       6 <- 12         0.00416
       6 <- 13        -0.00271
       6 <- 16        -0.00507
       6 <- 17        -0.00237
       6 <- 20         0.00190
       6 <- 21         0.00301
       6 <- 24        -0.00334
       6 <- 26         0.00165
       6 <- 32         0.00271
       6 <- 33        -0.00034
       6 <- 38         0.00174
       6 <- 39        -0.00076
       6 <- 42        -0.00033
       6 <- 44         0.00090
       6 <- 47        -0.00015
       6 <- 49        -0.00034
       6 <- 51        -0.00015
       7 <-  9         0.00201
       7 <- 12        -0.00448
       7 <- 16         0.00362
       7 <- 17        -0.00505
       7 <- 20        -0.00116
       7 <- 21        -0.00178
       7 <- 24        -0.00029
       7 <- 26        -0.00281
       7 <- 30        -0.00088
       7 <- 32        -0.00031
       7 <- 33         0.00090
       7 <- 38        -0.00082
       7 <- 44        -0.00015
       7 <- 53        -0.00012
       8 <- 11        -0.01539
       8 <- 15         0.00497
       8 <- 19        -0.01720
       8 <- 22        -0.00467
       8 <- 25         0.00602
       8 <- 29        -0.00183
       8 <- 31         0.00210
       8 <- 37        -0.00299
       8 <- 40         0.00055
       8 <- 43         0.00154
       8 <- 46        -0.00109
       8 <- 50         0.00025

 Excited State   5:      Singlet-A2     8.5245 eV  145.44 nm  f=0.0000  <S**2>=0.000
       3 -> 28         0.00182
       3 -> 35         0.00094
       3 -> 45         0.00022
       4 -> 10        -0.00102
       4 -> 14        -0.00392
       4 -> 18         0.00159
       4 -> 23         0.00243
       4 -> 27         0.00017
       4 -> 34         0.00027
       4 -> 36         0.00138
       4 -> 41        -0.00032
       5 -> 19        -0.00038
       5 -> 22         0.00075
       5 -> 25        -0.00060
       5 -> 29        -0.00018
       5 -> 37         0.00027
       5 -> 40         0.00014
       5 -> 43         0.00039
       5 -> 46         0.00023
       6 -> 28         0.00200
       6 -> 35        -0.00059
       7 -> 28        -0.00113
       7 -> 45         0.00017
       8 -> 10         0.00435
       8 -> 14         0.70346
       8 -> 18        -0.06993
       8 -> 23        -0.01533
       8 -> 27        -0.00109
       8 -> 34        -0.00222
       8 -> 36         0.00225
       8 -> 41        -0.00027
       8 -> 52        -0.00023
       3 <- 28         0.00131
       3 <- 35         0.00074
       3 <- 45         0.00024
       4 <- 10         0.00025
       4 <- 14        -0.00020
       4 <- 18         0.00060
       4 <- 23         0.00019
       4 <- 27         0.00029
       4 <- 34        -0.00042
       4 <- 36         0.00055
       5 <- 11         0.00044
       5 <- 22         0.00077
       5 <- 25        -0.00094
       5 <- 29        -0.00011
       5 <- 31        -0.00032
       5 <- 37         0.00060
       5 <- 43         0.00040
       5 <- 54         0.00010
       6 <- 28         0.00202
       6 <- 35        -0.00057
       6 <- 45        -0.00015
       7 <- 28        -0.00079
       7 <- 35        -0.00012
       8 <- 10         0.00239
       8 <- 14         0.00061
       8 <- 18         0.00439
       8 <- 23         0.00083
       8 <- 27         0.00025
       8 <- 34        -0.00245
       8 <- 36         0.00096
       8 <- 41        -0.00023

 Excited State   6:      Singlet-B2     8.7483 eV  141.72 nm  f=0.1460  <S**2>=0.000
       3 -> 11         0.00074
       3 -> 15        -0.00140
       3 -> 19         0.00158
       3 -> 22        -0.00111
       3 -> 25        -0.00047
       3 -> 29         0.00103
       3 -> 31         0.00069
       3 -> 40        -0.00067
       3 -> 43        -0.00030
       4 ->  9         0.00205
       4 -> 12        -0.00220

 The electronic state is 1-A1.
 Alpha  occ. eigenvalues --  -19.35370 -10.55188  -1.21820  -0.94519  -0.92055
 Alpha  occ. eigenvalues --   -0.57508  -0.49615  -0.19472
 Alpha virt. eigenvalues --   -0.00086   0.02359   0.04429   0.04696   0.14018
 Alpha virt. eigenvalues --    0.16567   0.17209   0.18270   0.21564   0.22162
 Alpha virt. eigenvalues --    0.29057   0.36701   0.50553   0.57316   0.62700

 Mulliken charges:
               1
     1  C    0.153326
     2  H   -0.137757
     3  H   -0.137757
     4  O    0.122188
 Sum of Mulliken charges =  -0.00000

 Dipole moment (field-independent basis, Debye):
    X=              0.0000    Y=              0.0000    Z=              1.7282  Tot=              1.7282
 Quadrupole moment (field-independent basis, Debye-Ang):
   XX=             -9.9744   YY=            -14.4343   ZZ=            -13.7612
   XY=             -0.0000   XZ=             -0.0000   YZ=             -0.0000

 Normal termination of Gaussian 16 at Fri Sep 17 10:52:17 2021.
