 Gaussian 16, Revision C.01,
 Gaussian 16:  ES64L-G16RevC.01  3-Jul-2019

 ----------------------------------------
 #P wB97XD/6-311+G* NoSymm #P Field=X-145
 ----------------------------------------

 -------
 TitleMe
 -------
 Symbolic Z-matrix:
 Charge =  1 Multiplicity = 1

                          Input orientation:
 ---------------------------------------------------------------------
 Center     Atomic      Atomic             Coordinates (Angstroms)
 Number     Number       Type             X           Y           Z
 ---------------------------------------------------------------------
      1          6           0        0.029500    1.339700    0.068200
      2          6           0        1.434800    1.286700    0.006400
      3          6           0        2.111800    0.051100   -0.005400
      4          6           0        1.445100   -1.137200    0.031200
      5          6           0       -0.687900    0.168200    0.110000
      6          1           0       -0.471300    2.298400    0.078100
      7          1           0        2.027300    2.196500   -0.032200
      8          1           0        1.989700   -2.076400    0.023200
      9          1           0       -1.771600    0.180400    0.158200
     10          7           0        3.586400    0.051000   -0.067500
     11          8           0        4.147100   -1.059700   -0.088100
     12          8           0        4.145000    1.163900   -0.090100
     13          6           0       -0.023600   -1.145800    0.083500
     14          1           0       -0.436700   -1.872500    0.788900
     15         35           0       -0.535900   -1.869700   -1.740800
 ---------------------------------------------------------------------

 SCF Done:  E(RwB97XD) =  -3010.54300802     A.U. after   24 cycles

 Alpha  occ. eigenvalues -- -483.30285 -62.85330 -56.64994 -56.64463 -56.64460
 Alpha  occ. eigenvalues --  -19.38407 -19.38339 -14.78018 -10.57017 -10.55088
 Alpha  occ. eigenvalues --  -10.54766 -10.53903 -10.53436 -10.51515  -9.01151
 Alpha  occ. eigenvalues --   -6.83749  -6.82001  -6.81986  -2.93672  -2.93206
 Alpha  occ. eigenvalues --   -2.93193  -2.91795  -2.91795  -1.42155  -1.25042
 Alpha  occ. eigenvalues --   -1.20258  -1.11582  -1.09285  -1.02867  -0.96976
 Alpha  occ. eigenvalues --   -0.93154  -0.87947  -0.82076  -0.77894  -0.76644
 Alpha  occ. eigenvalues --   -0.74654  -0.74147  -0.72713  -0.70076  -0.68600
 Alpha  occ. eigenvalues --   -0.67194  -0.64966  -0.61382  -0.58245  -0.55820
 Alpha  occ. eigenvalues --   -0.53740  -0.49340  -0.47999  -0.47810
 Alpha virt. eigenvalues --   -0.27626  -0.16687  -0.14392  -0.12231  -0.09218
 Alpha virt. eigenvalues --   -0.08639  -0.07085  -0.06216  -0.03414  -0.02641
 Alpha virt. eigenvalues --   -0.01964  -0.00747  -0.00538  -0.00164   0.00544

 Mulliken charges:
               1
     1  C   -0.534111
     2  C    0.445100
     3  C   -0.654879
     4  C    0.327785
     5  C   -0.029449
     6  H    0.303381
     7  H    0.391270
     8  H    0.394741
     9  H    0.282281
    10  N   -0.115794
    11  O    0.098856
    12  O    0.096398
    13  C   -0.484494
    14  H    0.380358
    15  Br   0.098557
 Sum of Mulliken charges =   1.00000

 Dipole moment (field-independent basis, Debye):
    X=              3.5482    Y=             -0.1056    Z=              0.3268  Tot=              3.5647
 Quadrupole moment (field-independent basis, Debye-Ang):
   XX=            -61.2136   YY=            -52.5167   ZZ=            -63.7416
   XY=              0.5427   XZ=             -0.0206   YZ=              0.6713

 Normal termination of Gaussian 16 at Wed May  1 14:51:31 2024.
