 Gaussian 16, Revision C.01,
 Gaussian 16:  ES64L-G16RevC.01  3-Jul-2019

 ---------------------------------------
 #P wB97XD/6-311+G* NoSymm #P Field=Y+29
 ---------------------------------------

 -------
 TitleMe
 -------
 Symbolic Z-matrix:
 Charge =  1 Multiplicity = 1

                          Input orientation:
 ---------------------------------------------------------------------
 Center     Atomic      Atomic             Coordinates (Angstroms)
 Number     Number       Type             X           Y           Z
 ---------------------------------------------------------------------
      1          6           0        0.029500    1.339700    0.068200
      2          6           0        1.434800    1.286700    0.006400
      3          6           0        2.111800    0.051100   -0.005400
      4          6           0        1.445100   -1.137200    0.031200
      5          6           0       -0.687900    0.168200    0.110000
      6          1           0       -0.471300    2.298400    0.078100
      7          1           0        2.027300    2.196500   -0.032200
      8          1           0        1.989700   -2.076400    0.023200
      9          1           0       -1.771600    0.180400    0.158200
     10          7           0        3.586400    0.051000   -0.067500
     11          8           0        4.147100   -1.059700   -0.088100
     12          8           0        4.145000    1.163900   -0.090100
     13          6           0       -0.023600   -1.145800    0.083500
     14          1           0       -0.436700   -1.872500    0.788900
     15         35           0       -0.535900   -1.869700   -1.740800
 ---------------------------------------------------------------------

 SCF Done:  E(RwB97XD) =  -3010.53648807     A.U. after   19 cycles

 Alpha  occ. eigenvalues -- -483.30631 -62.85652 -56.65348 -56.64771 -56.64768
 Alpha  occ. eigenvalues --  -19.45567 -19.45545 -14.85094 -10.57701 -10.57318
 Alpha  occ. eigenvalues --  -10.56830 -10.56581 -10.56491 -10.52844  -9.01455
 Alpha  occ. eigenvalues --   -6.84141  -6.82254  -6.82239  -2.94044  -2.93543
 Alpha  occ. eigenvalues --   -2.93529  -2.92020  -2.92019  -1.49357  -1.32335
 Alpha  occ. eigenvalues --   -1.22280  -1.13633  -1.11472  -1.03856  -1.00742
 Alpha  occ. eigenvalues --   -0.95091  -0.90629  -0.85001  -0.80464  -0.80326
 Alpha  occ. eigenvalues --   -0.79686  -0.77922  -0.75801  -0.75612  -0.71900
 Alpha  occ. eigenvalues --   -0.69029  -0.67269  -0.63330  -0.59701  -0.56844
 Alpha  occ. eigenvalues --   -0.55909  -0.55678  -0.55313  -0.54663
 Alpha virt. eigenvalues --   -0.29236  -0.20984  -0.15222  -0.12974  -0.08697
 Alpha virt. eigenvalues --   -0.06183  -0.05676  -0.04534  -0.04367  -0.02663
 Alpha virt. eigenvalues --   -0.02308  -0.01965  -0.00853  -0.00486   0.00870

 Mulliken charges:
               1
     1  C   -0.582637
     2  C    0.532310
     3  C   -0.732614
     4  C    0.297126
     5  C   -0.005701
     6  H    0.321683
     7  H    0.355559
     8  H    0.383262
     9  H    0.349983
    10  N   -0.106366
    11  O    0.045847
    12  O    0.011339
    13  C   -0.475877
    14  H    0.411353
    15  Br   0.194731
 Sum of Mulliken charges =   1.00000

 Dipole moment (field-independent basis, Debye):
    X=             -0.9255    Y=             -1.4207    Z=             -0.1300  Tot=              1.7005
 Quadrupole moment (field-independent basis, Debye-Ang):
   XX=            -71.4048   YY=            -51.6305   ZZ=            -62.3794
   XY=              0.3692   XZ=              1.2049   YZ=              2.0434

 Normal termination of Gaussian 16 at Wed May  1 15:07:20 2024.
