 Gaussian 16, Revision A.03,
 Gaussian 16:  ES64L-G16RevA.03 25-Dec-2016

 --------------------------------------------------------------------
 #p B3LYP/6-311+G** #p TD=(singlets,nstates=30)IOp(6/8=3) IOp(9/40=4)
 --------------------------------------------------------------------

 --------------------------------
 Scan Step 291, Bond Length 1.955
 --------------------------------
 Symbolic Z-matrix:
 Charge =  0 Multiplicity = 1

                         Standard orientation:
 ---------------------------------------------------------------------
 Center     Atomic      Atomic             Coordinates (Angstroms)
 Number     Number       Type             X           Y           Z
 ---------------------------------------------------------------------
      1          6           0        0.000000    0.000000   -0.903581
      2          1           0        0.000000    0.937260   -1.494931
      3          1           0       -0.000000   -0.937260   -1.494931
      4          8           0        0.000000   -0.000000    1.051419
 ---------------------------------------------------------------------

 SCF Done:  E(RB3LYP) =  -114.308859197     A.U. after   13 cycles

 Excitation energies and oscillator strengths:

 Excited State   1:      Singlet-A2     1.0473 eV 1183.81 nm  f=0.0000  <S**2>=0.000
       3 -> 27         0.00056
       3 -> 38         0.00032
       3 -> 47         0.00327
       4 -> 27         0.00028
       4 -> 47        -0.00078
       5 -> 14         0.00103
       5 -> 18         0.00128
       5 -> 23         0.00116
       5 -> 28         0.00091
       5 -> 37         0.00055
       5 -> 44         0.00016
       5 -> 52         0.00012
       6 -> 27        -0.00051
       6 -> 38        -0.00046
       6 -> 47         0.00077
       7 -> 12        -0.00146
       7 -> 16         0.00540
       7 -> 19        -0.00498
       7 -> 22        -0.00113
       7 -> 25        -0.00042
       7 -> 30        -0.00206
       7 -> 33         0.00025
       7 -> 49         0.00012
       7 -> 53         0.00035
       8 ->  9         0.71217
       8 -> 14        -0.00483
       8 -> 18         0.02019
       8 -> 23        -0.00027
       8 -> 28         0.00968
       8 -> 31         0.00156
       8 -> 37         0.00045
       8 -> 46        -0.00027
       8 -> 52         0.00178
       3 <- 27         0.00010
       3 <- 38         0.00012
       3 <- 47         0.00328
       4 <- 27         0.00054
       4 <- 38         0.00015
       4 <- 47        -0.00058
       5 <-  9         0.00064
       5 <- 14        -0.00026
       5 <- 18        -0.00026
       5 <- 23         0.00013
       5 <- 28        -0.00021
       5 <- 31         0.00018
       5 <- 37         0.00032
       6 <- 38        -0.00034
       6 <- 47         0.00054
       7 <- 12         0.00231
       7 <- 16        -0.01043
       7 <- 19         0.00632
       7 <- 22         0.00498
       7 <- 25        -0.00063
       7 <- 30         0.00566
       7 <- 33        -0.00033
       7 <- 49        -0.00046
       7 <- 53         0.00143
       8 <-  9        -0.08661
       8 <- 14        -0.00078
       8 <- 18        -0.00806
       8 <- 23        -0.00048
       8 <- 28        -0.00281
       8 <- 31        -0.00086
       8 <- 37        -0.00014
       8 <- 46         0.00013
       8 <- 52         0.00040
 This state for optimization and/or second-order correction.
 Total Energy, E(TD-HF/TD-DFT) =  -114.270370391
 Copying the excited state density for this state as the 1-particle RhoCI density.

 Excited State   2:      Singlet-B2     2.7173 eV  456.28 nm  f=0.0012  <S**2>=0.000
       3 -> 12        -0.00100
       3 -> 16         0.00081
       3 -> 19        -0.00329
       3 -> 22         0.00113
       3 -> 25        -0.00087
       3 -> 30        -0.00213
       3 -> 33         0.00035
       3 -> 35         0.00098
       3 -> 40        -0.00103
       3 -> 42        -0.00027
       3 -> 49        -0.00408
       3 -> 51         0.00014
       3 -> 53         0.00022
       4 -> 12         0.00030
       4 -> 16        -0.00109
       4 -> 19         0.00025
       4 -> 22         0.00138
       4 -> 25         0.00039
       4 -> 30         0.00062
       4 -> 33        -0.00026
       4 -> 35         0.00038
       4 -> 40         0.00019
       4 -> 49         0.00071
       5 -> 10         0.00857
       5 -> 11         0.00080
       5 -> 13        -0.00197
       5 -> 15         0.00235
       5 -> 17        -0.00052
       5 -> 20         0.00176
       5 -> 21         0.00218
       5 -> 24         0.00121
       5 -> 26        -0.00018
       5 -> 29        -0.00200
       5 -> 32        -0.00055
       5 -> 39         0.00049
       5 -> 41         0.00032
       5 -> 48        -0.00026
       5 -> 50         0.00017
       5 -> 54        -0.00015
       6 -> 12         0.00233
       6 -> 16        -0.00292
       6 -> 19         0.00438
       6 -> 22        -0.00071
       6 -> 25         0.00115
       6 -> 30         0.00051
       6 -> 33        -0.00024
       6 -> 35        -0.00095
       6 -> 40         0.00056
       6 -> 42         0.00050
       6 -> 49         0.00090
       6 -> 53        -0.00044
       7 -> 27        -0.00042
       7 -> 38         0.00022
       7 -> 47         0.00256
       8 -> 10         0.70706
       8 -> 11         0.04014
       8 -> 13        -0.03802
       8 -> 15        -0.01671
       8 -> 17        -0.01645
       8 -> 20         0.00728
       8 -> 21         0.00442
       8 -> 24        -0.00476
       8 -> 26        -0.00345
       8 -> 29        -0.01370
       8 -> 32         0.00196
       8 -> 34        -0.00086
       8 -> 36         0.00189
       8 -> 39         0.00020
       8 -> 41        -0.00017
       8 -> 45        -0.00073
       8 -> 48        -0.00312
       8 -> 50         0.00102
       8 -> 54        -0.00252
       3 <- 12        -0.00034
       3 <- 16         0.00031
       3 <- 19        -0.00167
       3 <- 22         0.00085
       3 <- 25        -0.00079
       3 <- 30        -0.00088
       3 <- 33         0.00033
       3 <- 35         0.00059
       3 <- 40        -0.00089
       3 <- 42        -0.00011
       3 <- 49        -0.00412
       3 <- 51         0.00013
       3 <- 53         0.00062
       4 <- 12         0.00012
       4 <- 16        -0.00145
       4 <- 19         0.00019
       4 <- 22         0.00179
       4 <- 25         0.00016
       4 <- 30         0.00093
       4 <- 33        -0.00026
       4 <- 35         0.00053
       4 <- 49         0.00050
       5 <- 10        -0.00097
       5 <- 11        -0.00040
       5 <- 13        -0.00033
       5 <- 15         0.00195
       5 <- 17         0.00019
       5 <- 20         0.00074
       5 <- 21         0.00135
       5 <- 24         0.00130
       5 <- 29        -0.00045
       5 <- 32        -0.00019
       5 <- 39         0.00026
       5 <- 41         0.00034
       5 <- 45        -0.00016
       5 <- 48        -0.00028
       6 <- 12        -0.00120
       6 <- 16         0.00844
       6 <- 19        -0.00499
       6 <- 22        -0.00521
       6 <- 25         0.00141
       6 <- 30        -0.00632
       6 <- 33         0.00013
       6 <- 35        -0.00071
       6 <- 40         0.00054
       6 <- 42         0.00046
       6 <- 49         0.00145
       6 <- 53        -0.00146
       7 <- 27        -0.00044
       7 <- 38         0.00018
       7 <- 47         0.00224
       8 <- 10        -0.06070
       8 <- 11        -0.00689
       8 <- 13         0.00654
       8 <- 15         0.00224
       8 <- 17         0.00295
       8 <- 20        -0.00375
       8 <- 21        -0.00088
       8 <- 24         0.00132
       8 <- 26         0.00080
       8 <- 29         0.00311
       8 <- 32         0.00184
       8 <- 34         0.00072
       8 <- 36        -0.00096
       8 <- 39        -0.00073
       8 <- 41         0.00013
       8 <- 43         0.00026
       8 <- 45        -0.00136
       8 <- 48        -0.00264
       8 <- 50         0.00103
       8 <- 54        -0.00065

 Excited State   3:      Singlet-A1     2.7280 eV  454.49 nm  f=0.0191  <S**2>=0.000
       3 -> 10        -0.01115
       3 -> 11        -0.00182
       3 -> 13        -0.00012
       3 -> 17        -0.00279
       3 -> 20        -0.00305
       3 -> 21         0.00073
       3 -> 26         0.00055
       3 -> 29         0.00021
       3 -> 32         0.00250
       3 -> 34         0.00089
       3 -> 36        -0.00085
       3 -> 39        -0.00025
       3 -> 43         0.00041
       3 -> 45        -0.00134
       3 -> 48         0.00231
       3 -> 50         0.00168
       3 -> 54        -0.00015
       4 -> 10         0.00036
       4 -> 11         0.00857
       4 -> 13         0.00112
       4 -> 15        -0.00666
       4 -> 17         0.00181
       4 -> 20         0.00126
       4 -> 21         0.00016
       4 -> 24        -0.00347
       4 -> 26         0.00246
       4 -> 32        -0.00094
       4 -> 34        -0.00059
       4 -> 39        -0.00030
       4 -> 43        -0.00038
       4 -> 45         0.00072
       4 -> 48        -0.00062
       4 -> 50        -0.00020
       4 -> 54         0.00012
       5 -> 12         0.00719
       5 -> 16         0.00075
       5 -> 19         0.00089
       5 -> 22         0.00594
       5 -> 25        -0.00327
       5 -> 30         0.00030
       5 -> 33        -0.00216
       5 -> 35         0.00267
       5 -> 40        -0.00083
       5 -> 42        -0.00097
       5 -> 51        -0.00092
       6 -> 10         0.26751
       6 -> 11         0.02579
       6 -> 13        -0.02701
       6 -> 15        -0.01679
       6 -> 17        -0.01382
       6 -> 20         0.00026
       6 -> 21         0.00319
       6 -> 24        -0.00597
       6 -> 26        -0.00202
       6 -> 29        -0.00152
       6 -> 32         0.00483
       6 -> 34         0.00135
       6 -> 36         0.00083
       6 -> 39        -0.00159
       6 -> 43         0.00074
       6 -> 45        -0.00100
       6 -> 48         0.00064
       6 -> 50         0.00040
       6 -> 54        -0.00099
       7 ->  9         0.67216
       7 -> 14        -0.00839
       7 -> 18        -0.00769
       7 -> 23        -0.00319
       7 -> 28         0.00185
       7 -> 31        -0.00330
       7 -> 37         0.00136
       7 -> 44        -0.00095
       7 -> 52         0.00104
       8 -> 12        -0.00673
       8 -> 16         0.02712
       8 -> 19        -0.01593
       8 -> 22        -0.00851
       8 -> 30        -0.00653
       8 -> 33         0.00070
       8 -> 35        -0.00034
       8 -> 42         0.00013
       8 -> 49        -0.00011
       8 -> 51         0.00011
       8 -> 53        -0.00046
       3 <- 10        -0.00940
       3 <- 11        -0.00186
       3 <- 13        -0.00016
       3 <- 15        -0.00042
       3 <- 17        -0.00168
       3 <- 20        -0.00282
       3 <- 21         0.00033
       3 <- 24        -0.00042
       3 <- 26        -0.00020
       3 <- 29         0.00047
       3 <- 32         0.00209
       3 <- 34         0.00045
       3 <- 36        -0.00094
       3 <- 39        -0.00017
       3 <- 43         0.00042
       3 <- 45        -0.00142
       3 <- 48         0.00231
       3 <- 50         0.00170
       4 <- 10         0.00139
       4 <- 11         0.00674
       4 <- 13         0.00111
       4 <- 15        -0.00487
       4 <- 17         0.00117
       4 <- 20         0.00191
       4 <- 24        -0.00278
       4 <- 26         0.00229
       4 <- 29        -0.00042
       4 <- 32        -0.00088
       4 <- 34        -0.00050
       4 <- 36         0.00019
       4 <- 39        -0.00035
       4 <- 43        -0.00034
       4 <- 45         0.00063
       4 <- 48        -0.00036
       4 <- 54         0.00010
       5 <- 12         0.00483
       5 <- 16         0.00060
       5 <- 19         0.00078
       5 <- 22         0.00454
       5 <- 25        -0.00270
       5 <- 30         0.00031
       5 <- 33        -0.00186
       5 <- 35         0.00237
       5 <- 40        -0.00078
       5 <- 42        -0.00088
       5 <- 51        -0.00087
       6 <- 10         0.09550
       6 <- 11         0.01208
       6 <- 13        -0.01447
       6 <- 15        -0.00989
       6 <- 17        -0.00909
       6 <- 20        -0.00115
       6 <- 21         0.00249
       6 <- 24        -0.00410
       6 <- 26        -0.00081
       6 <- 29        -0.00051
       6 <- 32         0.00448
       6 <- 34         0.00150
       6 <- 36         0.00037
       6 <- 39        -0.00142
       6 <- 43         0.00064
       6 <- 45        -0.00073
       6 <- 48         0.00035
       6 <- 50         0.00026
       6 <- 54        -0.00093
       7 <-  9        -0.12858
       7 <- 14         0.00178
       7 <- 18        -0.01002
       7 <- 23        -0.00016
       7 <- 28        -0.00097
       7 <- 31        -0.00156
       7 <- 37         0.00066
       7 <- 44        -0.00087
       7 <- 46        -0.00047
       7 <- 52         0.00098
       8 <- 12        -0.00336
       8 <- 16         0.01552
       8 <- 19        -0.01028
       8 <- 22        -0.00610
       8 <- 25         0.00012
       8 <- 30        -0.00546
       8 <- 33         0.00058
       8 <- 35        -0.00026
       8 <- 49        -0.00021
       8 <- 53        -0.00044

 Excited State   4:      Singlet-B1     2.9976 eV  413.61 nm  f=0.0002  <S**2>=0.000
       3 ->  9        -0.01700
       3 -> 14         0.00046
       3 -> 18        -0.00328
       3 -> 23         0.00102
       3 -> 28        -0.00145
       3 -> 31        -0.00113
       3 -> 37         0.00017
       3 -> 44         0.00014
       3 -> 46        -0.00153
       3 -> 52         0.00044
       4 ->  9        -0.00489
       4 -> 14         0.00074
       4 -> 18         0.00026
       4 -> 23         0.00058
       4 -> 28         0.00064
       4 -> 31        -0.00073
       4 -> 46         0.00014
       4 -> 52        -0.00012
       5 -> 27        -0.00212
       5 -> 38        -0.00011
       5 -> 47         0.00029
       6 ->  9         0.43939
       6 -> 14        -0.01182
       6 -> 18         0.01118
       6 -> 23        -0.00732
       6 -> 28         0.00378
       6 -> 31         0.00023
       6 -> 37        -0.00012
       6 -> 44        -0.00081
       6 -> 46         0.00206
       6 -> 52         0.00029
       7 -> 10         0.55977
       7 -> 11         0.03255
       7 -> 13        -0.03215
       7 -> 15        -0.01590
       7 -> 17        -0.01300
       7 -> 20         0.00470
       7 -> 21         0.00248
       7 -> 24        -0.00604
       7 -> 26        -0.00438
       7 -> 29        -0.00843
       7 -> 32         0.00184
       7 -> 34        -0.00084
       7 -> 36         0.00094
       7 -> 41        -0.00013
       7 -> 43         0.00044
       7 -> 45        -0.00110
       7 -> 48         0.00281
       7 -> 50         0.00086
       7 -> 54        -0.00121
       8 -> 27         0.00013
       8 -> 47         0.00340
       3 <-  9        -0.00566
       3 <- 14        -0.00044
       3 <- 18        -0.00209
       3 <- 23        -0.00012
       3 <- 28        -0.00093
       3 <- 31        -0.00064
       3 <- 44        -0.00017
       3 <- 46        -0.00148
       3 <- 52         0.00060
       4 <-  9        -0.00207
       4 <- 14         0.00080
       4 <- 18         0.00103
       4 <- 23         0.00061
       4 <- 28         0.00134
       4 <- 31        -0.00056
       4 <- 44        -0.00036
       5 <- 27        -0.00203
       5 <- 47         0.00027
       6 <-  9        -0.06482
       6 <- 14         0.00232
       6 <- 18        -0.00692
       6 <- 23         0.00090
       6 <- 28        -0.00416
       6 <- 31        -0.00237
       6 <- 37         0.00018
       6 <- 44         0.00043
       6 <- 46         0.00207
       6 <- 52        -0.00080
       7 <- 10        -0.07198
       7 <- 11        -0.00827
       7 <- 13         0.01061
       7 <- 15         0.00497
       7 <- 17         0.00387
       7 <- 20        -0.00068
       7 <- 21        -0.00265
       7 <- 24         0.00250
       7 <- 26         0.00157
       7 <- 29         0.00244
       7 <- 36        -0.00030
       7 <- 39        -0.00034
       7 <- 41         0.00024
       7 <- 43         0.00024
       7 <- 45        -0.00079
       7 <- 48         0.00258
       7 <- 50         0.00113
       7 <- 54         0.00019
       8 <- 27         0.00040
       8 <- 47         0.00310

 Excited State   5:      Singlet-B1     3.5643 eV  347.85 nm  f=0.0052  <S**2>=0.000
       3 ->  9        -0.00709
       3 -> 14         0.00031
       3 -> 23         0.00023
       3 -> 28         0.00153
       3 -> 31         0.00074
       3 -> 44         0.00040
       3 -> 46         0.00315
       3 -> 52         0.00045
       4 ->  9         0.02811
       4 -> 14        -0.00572
       4 -> 18        -0.00052
       4 -> 23        -0.00457
       4 -> 28        -0.00026
       4 -> 31        -0.00088
       4 -> 37        -0.00035
       4 -> 44         0.00037
       4 -> 46        -0.00090
       4 -> 52        -0.00021
       5 -> 27         0.00538
       5 -> 38         0.00378
       6 ->  9         0.55705
       6 -> 14        -0.01054
       6 -> 18         0.00517
       6 -> 23        -0.00689
       6 -> 28        -0.00109
       6 -> 31         0.00447
       6 -> 37        -0.00286
       6 -> 44        -0.00143
       6 -> 46         0.00195
       6 -> 52         0.00108
       7 -> 10        -0.43366
       7 -> 11        -0.01887
       7 -> 13         0.01990
       7 -> 15         0.01668
       7 -> 17         0.00345
       7 -> 20         0.00237
       7 -> 21        -0.00101
       7 -> 24         0.00560
       7 -> 26         0.00264
       7 -> 29         0.00498
       7 -> 34         0.00304
       7 -> 36         0.00149
       7 -> 39        -0.00059
       7 -> 43        -0.00022
       7 -> 45         0.00041
       7 -> 48         0.00101
       7 -> 50         0.00051
       7 -> 54         0.00139
       8 -> 27        -0.00039
       8 -> 38        -0.00016
       8 -> 47         0.00117
       3 <-  9        -0.00237
       3 <- 14        -0.00098
       3 <- 18        -0.00043
       3 <- 23        -0.00066
       3 <- 28         0.00121
       3 <- 31        -0.00029
       3 <- 37         0.00033
       3 <- 44         0.00039
       3 <- 46         0.00323
       3 <- 52         0.00012
       4 <-  9         0.01539
       4 <- 14        -0.00298
       4 <- 18         0.00037
       4 <- 23        -0.00304
       4 <- 31        -0.00067
       4 <- 37        -0.00031
       4 <- 44         0.00042
       4 <- 46        -0.00057
       4 <- 52        -0.00015
       5 <- 27         0.00395
       5 <- 38         0.00326
       6 <-  9         0.00617
       6 <- 14         0.00162
       6 <- 18         0.00057
       6 <- 23        -0.00032
       6 <- 28        -0.00182
       6 <- 31         0.00453
       6 <- 37        -0.00271
       6 <- 44        -0.00089
       6 <- 46         0.00120
       6 <- 52         0.00110
       7 <- 10        -0.01213
       7 <- 11        -0.00219
       7 <- 13         0.00443
       7 <- 15         0.00792
       7 <- 17         0.00103
       7 <- 20         0.00492
       7 <- 21        -0.00034
       7 <- 24         0.00399
       7 <- 26         0.00113
       7 <- 29         0.00098
       7 <- 32        -0.00117
       7 <- 34         0.00213
       7 <- 36         0.00232
       7 <- 39        -0.00029
       7 <- 43        -0.00032
       7 <- 45         0.00054
       7 <- 48         0.00108
       7 <- 50         0.00081
       7 <- 54         0.00113
       8 <- 47         0.00134

 Excited State   6:      Singlet-A2     6.6959 eV  185.16 nm  f=0.0000  <S**2>=0.000
       3 -> 27        -0.00093
       3 -> 38        -0.00024
       4 -> 27        -0.00604

 The electronic state is 1-A1.
 Alpha  occ. eigenvalues --  -19.17821 -10.34361  -0.88068  -0.72092  -0.49501
 Alpha  occ. eigenvalues --   -0.37513  -0.29835  -0.28526
 Alpha virt. eigenvalues --   -0.18194  -0.10525  -0.00324   0.04025   0.06068
 Alpha virt. eigenvalues --    0.06081   0.11464   0.12854   0.18565   0.20823
 Alpha virt. eigenvalues --    0.23861   0.30411   0.38471   0.39056   0.50376

 Mulliken charges:
               1
     1  C   -0.111231
     2  H    0.195088
     3  H    0.195088
     4  O   -0.278946
 Sum of Mulliken charges =   0.00000

 Dipole moment (field-independent basis, Debye):
    X=             -0.0000    Y=              0.0000    Z=             -4.3786  Tot=              4.3786
 Quadrupole moment (field-independent basis, Debye-Ang):
   XX=            -13.1284   YY=            -12.1160   ZZ=            -10.2720
   XY=              0.0000   XZ=              0.0000   YZ=              0.0000

 Normal termination of Gaussian 16 at Fri Sep 17 10:53:16 2021.
