 Gaussian 16, Revision C.01,
 Gaussian 16:  ES64L-G16RevC.01  3-Jul-2019

 ----------------------------------------
 #P wB97XD/6-311+G* NoSymm #P Field=Z+204
 ----------------------------------------

 -------
 TitleMe
 -------
 Symbolic Z-matrix:
 Charge =  1 Multiplicity = 1

                          Input orientation:
 ---------------------------------------------------------------------
 Center     Atomic      Atomic             Coordinates (Angstroms)
 Number     Number       Type             X           Y           Z
 ---------------------------------------------------------------------
      1          6           0        0.029500    1.339700    0.068200
      2          6           0        1.434800    1.286700    0.006400
      3          6           0        2.111800    0.051100   -0.005400
      4          6           0        1.445100   -1.137200    0.031200
      5          6           0       -0.687900    0.168200    0.110000
      6          1           0       -0.471300    2.298400    0.078100
      7          1           0        2.027300    2.196500   -0.032200
      8          1           0        1.989700   -2.076400    0.023200
      9          1           0       -1.771600    0.180400    0.158200
     10          7           0        3.586400    0.051000   -0.067500
     11          8           0        4.147100   -1.059700   -0.088100
     12          8           0        4.145000    1.163900   -0.090100
     13          6           0       -0.023600   -1.145800    0.083500
     14          1           0       -0.436700   -1.872500    0.788900
     15         35           0       -0.535900   -1.869700   -1.740800
 ---------------------------------------------------------------------

 SCF Done:  E(RwB97XD) =  -3010.54976634     A.U. after   18 cycles

 Alpha  occ. eigenvalues -- -483.28222 -62.83192 -56.62941 -56.62292 -56.62290
 Alpha  occ. eigenvalues --  -19.44942 -19.44886 -14.84437 -10.56699 -10.56240
 Alpha  occ. eigenvalues --  -10.56100 -10.55866 -10.55693 -10.51994  -8.98959
 Alpha  occ. eigenvalues --   -6.81784  -6.79675  -6.79665  -2.91652  -2.91094
 Alpha  occ. eigenvalues --   -2.91085  -2.89400  -2.89400  -1.48700  -1.31682
 Alpha  occ. eigenvalues --   -1.21413  -1.12581  -1.10540  -1.01792  -1.00005
 Alpha  occ. eigenvalues --   -0.94158  -0.89856  -0.84317  -0.79818  -0.79542
 Alpha  occ. eigenvalues --   -0.78988  -0.77358  -0.75118  -0.74867  -0.70667
 Alpha  occ. eigenvalues --   -0.68209  -0.66476  -0.61830  -0.58548  -0.56119
 Alpha  occ. eigenvalues --   -0.55222  -0.54677  -0.52684  -0.52050
 Alpha virt. eigenvalues --   -0.28132  -0.20412  -0.14549  -0.13346  -0.11069
 Alpha virt. eigenvalues --   -0.09581  -0.09096  -0.06296  -0.05273  -0.04657
 Alpha virt. eigenvalues --   -0.02642  -0.01394  -0.00494   0.00681   0.00984

 Mulliken charges:
               1
     1  C   -0.543449
     2  C    0.437453
     3  C   -0.689782
     4  C    0.255635
     5  C   -0.066354
     6  H    0.330617
     7  H    0.367739
     8  H    0.370655
     9  H    0.345807
    10  N   -0.113676
    11  O    0.033928
    12  O    0.031563
    13  C   -0.455123
    14  H    0.331841
    15  Br   0.363145
 Sum of Mulliken charges =   1.00000

 Dipole moment (field-independent basis, Debye):
    X=             -1.3313    Y=             -1.3839    Z=             -3.5924  Tot=              4.0734
 Quadrupole moment (field-independent basis, Debye-Ang):
   XX=            -71.9843   YY=            -50.9560   ZZ=            -59.1573
   XY=              1.8899   XZ=             -0.5407   YZ=              4.6804

 Normal termination of Gaussian 16 at Wed May  1 15:27:49 2024.
