 Gaussian 16, Revision C.01,
 Gaussian 16:  ES64L-G16RevC.01  3-Jul-2019

 ----------------------------------------
 #P wB97XD/6-311+G* NoSymm #P Field=Z+204
 ----------------------------------------

 -------
 TitleMe
 -------
 Symbolic Z-matrix:
 Charge =  1 Multiplicity = 1

                          Input orientation:
 ---------------------------------------------------------------------
 Center     Atomic      Atomic             Coordinates (Angstroms)
 Number     Number       Type             X           Y           Z
 ---------------------------------------------------------------------
      1          6           0        0.519300    1.233000   -0.031900
      2          6           0        1.944500    1.269200   -0.036700
      3          6           0        2.620400    0.092800   -0.025000
      4          6           0       -0.196000    0.030100    0.001000
      5          1           0       -0.020700    2.174200   -0.043400
      6          1           0        2.482800    2.208900   -0.036100
      7          1           0       -1.277700    0.039900    0.011700
      8          7           0        4.092100    0.095900    0.036600
      9          8           0        4.639300   -1.021700    0.144600
     10          8           0        4.664900    1.198400   -0.023300
     11          6           0        0.494300   -1.167100    0.021000
     12          1           0       -0.032500   -2.114900    0.054500
     13          6           0        1.962900   -1.216500   -0.021100
     14          1           0        2.443600   -1.963100    0.615100
     15         35           0        2.173000   -1.949100   -1.906200
 ---------------------------------------------------------------------

 SCF Done:  E(RwB97XD) =  -3010.55274263     A.U. after   21 cycles

 Alpha  occ. eigenvalues -- -483.28028 -62.82986 -56.62742 -56.62095 -56.62072
 Alpha  occ. eigenvalues --  -19.45764 -19.45757 -14.85126 -10.58015 -10.56201
 Alpha  occ. eigenvalues --  -10.56017 -10.55456 -10.52235 -10.51660  -8.98746
 Alpha  occ. eigenvalues --   -6.81586  -6.79482  -6.79411  -2.91450  -2.90910
 Alpha  occ. eigenvalues --   -2.90853  -2.89172  -2.89170  -1.49424  -1.32402
 Alpha  occ. eigenvalues --   -1.21057  -1.11659  -1.10749  -1.02554  -0.98722
 Alpha  occ. eigenvalues --   -0.93977  -0.89416  -0.84181  -0.80082  -0.79374
 Alpha  occ. eigenvalues --   -0.79106  -0.76841  -0.75506  -0.74392  -0.70268
 Alpha  occ. eigenvalues --   -0.67302  -0.66371  -0.61327  -0.58131  -0.56890
 Alpha  occ. eigenvalues --   -0.56125  -0.55433  -0.52286  -0.51410
 Alpha virt. eigenvalues --   -0.28465  -0.19646  -0.14002  -0.12726  -0.11313
 Alpha virt. eigenvalues --   -0.09014  -0.08766  -0.06186  -0.04937  -0.04216
 Alpha virt. eigenvalues --   -0.02359  -0.01137   0.00299   0.00780   0.01443

 Mulliken charges:
               1
     1  C   -0.164335
     2  C    0.244357
     3  C   -0.026131
     4  C   -0.339830
     5  H    0.344052
     6  H    0.349205
     7  H    0.327607
     8  N   -0.284815
     9  O    0.088824
    10  O    0.070629
    11  C   -0.250944
    12  H    0.351918
    13  C   -0.438838
    14  H    0.345345
    15  Br   0.382956
 Sum of Mulliken charges =   1.00000

 Dipole moment (field-independent basis, Debye):
    X=              3.1058    Y=             -1.7573    Z=             -4.4644  Tot=              5.7154
 Quadrupole moment (field-independent basis, Debye-Ang):
   XX=            -67.8922   YY=            -49.8487   ZZ=            -57.8028
   XY=             -4.7099   XZ=            -10.2091   YZ=              6.0655

 Normal termination of Gaussian 16 at Thu May  2 14:21:16 2024.
