 Gaussian 16, Revision A.03,
 Gaussian 16:  ES64L-G16RevA.03 25-Dec-2016

 --------------------------------------------------------------------
 #p B3LYP/6-311+G** #p TD=(singlets,nstates=30)IOp(6/8=3) IOp(9/40=4)
 --------------------------------------------------------------------

 ---------------------------------------------
 Scan Step 168, Bond Length 1.3399999999999999
 ---------------------------------------------
 Symbolic Z-matrix:
 Charge =  0 Multiplicity = 1

                         Standard orientation:
 ---------------------------------------------------------------------
 Center     Atomic      Atomic             Coordinates (Angstroms)
 Number     Number       Type             X           Y           Z
 ---------------------------------------------------------------------
      1          6           0        0.000000   -0.000000   -0.596081
      2          1           0        0.000000    0.937260   -1.187431
      3          1           0       -0.000000   -0.937260   -1.187431
      4          8           0        0.000000    0.000000    0.743919
 ---------------------------------------------------------------------

 SCF Done:  E(RB3LYP) =  -114.519310706     A.U. after    9 cycles

 Excitation energies and oscillator strengths:

 Excited State   1:      Singlet-A2     3.1763 eV  390.34 nm  f=0.0000  <S**2>=0.000
       3 -> 27         0.00201
       3 -> 38         0.00166
       3 -> 45         0.00286
       4 -> 27         0.00139
       4 -> 38        -0.00039
       4 -> 45        -0.00140
       5 ->  9         0.01748
       5 -> 13        -0.00090
       5 -> 17         0.00477
       5 -> 23         0.00090
       5 -> 29         0.00413
       5 -> 31        -0.00124
       5 -> 37         0.00268
       5 -> 44         0.00052
       5 -> 48         0.00013
       5 -> 52         0.00063
       6 -> 27        -0.00041
       6 -> 38        -0.00088
       6 -> 45         0.00172
       7 -> 12        -0.00064
       7 -> 15         0.00360
       7 -> 19        -0.00327
       7 -> 25         0.00135
       7 -> 30        -0.00110
       7 -> 33         0.00045
       7 -> 35         0.00012
       7 -> 40         0.00013
       7 -> 42        -0.00012
       7 -> 49         0.00020
       7 -> 50         0.00030
       7 -> 53         0.00048
       8 ->  9         0.70661
       8 -> 13        -0.02848
       8 -> 17         0.02241
       8 -> 23        -0.00793
       8 -> 29         0.01037
       8 -> 31        -0.00111
       8 -> 37         0.00042
       8 -> 48        -0.00028
       8 -> 52         0.00184
       3 <- 27         0.00121
       3 <- 38         0.00133
       3 <- 45         0.00294
       4 <- 27         0.00214
       4 <- 38         0.00015
       4 <- 45        -0.00116
       5 <-  9        -0.00057
       5 <- 13        -0.00074
       5 <- 17        -0.00099
       5 <- 23         0.00046
       5 <- 29        -0.00070
       5 <- 31         0.00066
       5 <- 37         0.00135
       5 <- 44         0.00019
       5 <- 48         0.00012
       5 <- 52         0.00017
       6 <- 27         0.00021
       6 <- 38        -0.00077
       6 <- 45         0.00134
       7 <- 12        -0.00046
       7 <- 15        -0.00842
       7 <- 19         0.00143
       7 <- 22         0.00748
       7 <- 25         0.00019
       7 <- 30         0.00421
       7 <- 33        -0.00110
       7 <- 35         0.00196
       7 <- 40         0.00086
       7 <- 50         0.00020
       7 <- 53         0.00138
       8 <-  9        -0.03138
       8 <- 13         0.00196
       8 <- 17        -0.00504
       8 <- 23         0.00070
       8 <- 29        -0.00148
       8 <- 31        -0.00056
       8 <- 37        -0.00103
       8 <- 52         0.00052
 This state for optimization and/or second-order correction.
 Total Energy, E(TD-HF/TD-DFT) =  -114.402584745
 Copying the excited state density for this state as the 1-particle RhoCI density.

 Excited State   2:      Singlet-B2     6.9526 eV  178.33 nm  f=0.0162  <S**2>=0.000
       3 -> 12         0.00173
       3 -> 15         0.00057
       3 -> 19         0.00138
       3 -> 22        -0.00034
       3 -> 25         0.00115
       3 -> 33         0.00027
       3 -> 35        -0.00058
       3 -> 40        -0.00028
       3 -> 49         0.00022
       3 -> 53        -0.00010
       4 -> 12        -0.00222
       4 -> 15         0.00212
       4 -> 19         0.00172
       4 -> 22        -0.00318
       4 -> 25         0.00298
       4 -> 30         0.00032
       4 -> 33        -0.00022
       4 -> 35         0.00035
       4 -> 40         0.00042
       4 -> 42        -0.00013
       5 -> 10        -0.00855
       5 -> 11        -0.00584
       5 -> 14         0.00733
       5 -> 16        -0.00056
       5 -> 18        -0.00393
       5 -> 20         0.00231
       5 -> 21         0.00561
       5 -> 24        -0.00087
       5 -> 26         0.00194
       5 -> 28         0.00096
       5 -> 32        -0.00107
       5 -> 34        -0.00098
       5 -> 36        -0.00020
       5 -> 39        -0.00018
       5 -> 41        -0.00054
       5 -> 43        -0.00043
       5 -> 46        -0.00013
       5 -> 54         0.00013
       6 -> 12        -0.00122
       6 -> 15         0.00130
       6 -> 19         0.00081
       6 -> 22        -0.00206
       6 -> 25         0.00086
       6 -> 30        -0.00048
       6 -> 33        -0.00031
       6 -> 35         0.00074
       6 -> 40         0.00010
       6 -> 42        -0.00014
       6 -> 49         0.00037
       6 -> 50        -0.00018
       7 -> 38        -0.00072
       8 -> 10         0.70296
       8 -> 11        -0.06903
       8 -> 14         0.02311
       8 -> 16        -0.00262
       8 -> 18        -0.00545
       8 -> 20         0.01746
       8 -> 21        -0.00207
       8 -> 24         0.00013
       8 -> 26         0.00320
       8 -> 28         0.00135
       8 -> 32         0.00089
       8 -> 34         0.00052
       8 -> 36         0.00023
       8 -> 39         0.00029
       8 -> 41        -0.00028
       8 -> 43         0.00059
       8 -> 46        -0.00016
       8 -> 47         0.00018
       8 -> 51        -0.00023
       8 -> 54         0.00024
       3 <- 12         0.00038
       3 <- 15         0.00048
       3 <- 19         0.00052
       3 <- 22        -0.00055
       3 <- 25         0.00061
       3 <- 33         0.00023
       3 <- 35        -0.00051
       3 <- 40        -0.00028
       3 <- 49         0.00027
       4 <- 12         0.00078
       4 <- 15         0.00199
       4 <- 19         0.00164
       4 <- 22        -0.00203
       4 <- 25         0.00199
       4 <- 30         0.00022
       4 <- 35         0.00012
       4 <- 40         0.00010
       4 <- 42        -0.00022
       4 <- 50        -0.00014
       5 <- 10         0.00219
       5 <- 11        -0.00023
       5 <- 14         0.00449
       5 <- 16        -0.00045
       5 <- 18        -0.00043
       5 <- 20         0.00060
       5 <- 21         0.00151
       5 <- 24        -0.00223
       5 <- 26         0.00135
       5 <- 28         0.00012
       5 <- 32        -0.00082
       5 <- 34        -0.00084
       5 <- 36        -0.00022
       5 <- 39        -0.00012
       5 <- 41        -0.00036
       5 <- 43        -0.00035
       5 <- 46        -0.00011
       6 <- 12        -0.00010
       6 <- 15        -0.00043
       6 <- 19         0.00088
       6 <- 22        -0.00026
       6 <- 25         0.00028
       6 <- 30         0.00047
       6 <- 33        -0.00036
       6 <- 35         0.00074
       6 <- 42        -0.00012
       6 <- 49         0.00028
       6 <- 50        -0.00020
       6 <- 53         0.00019
       7 <- 38        -0.00054
       8 <- 10        -0.00136
       8 <- 11        -0.00081
       8 <- 14        -0.00392
       8 <- 16        -0.00064
       8 <- 18         0.00081
       8 <- 20        -0.00070
       8 <- 21        -0.00135
       8 <- 24         0.00150
       8 <- 26        -0.00093
       8 <- 28        -0.00033
       8 <- 32         0.00077
       8 <- 34        -0.00011
       8 <- 36         0.00031
       8 <- 39         0.00013
       8 <- 43         0.00033

 Excited State   3:      Singlet-B1     7.6150 eV  162.81 nm  f=0.0014  <S**2>=0.000
       3 ->  9        -0.03346
       3 -> 13         0.00402
       3 -> 17        -0.00655
       3 -> 23         0.00340
       3 -> 29        -0.00214
       3 -> 31        -0.00042
       3 -> 44         0.00055
       3 -> 48         0.00037
       3 -> 52         0.00112
       4 ->  9         0.01644
       4 -> 13        -0.00273
       4 -> 17         0.00084
       4 -> 23        -0.00249
       4 -> 29         0.00014
       4 -> 31        -0.00222
       4 -> 37        -0.00044
       4 -> 48        -0.00154
       4 -> 52        -0.00091
       5 -> 27        -0.00145
       5 -> 38         0.00202
       5 -> 45         0.00233
       6 ->  9         0.70549
       6 -> 13        -0.02995
       6 -> 17         0.02128
       6 -> 23        -0.01221
       6 -> 29         0.00695
       6 -> 31         0.00394
       6 -> 37        -0.00260
       6 -> 44        -0.00350
       6 -> 48         0.00529
       6 -> 52         0.00188
       7 -> 10         0.00104
       7 -> 11         0.00329
       7 -> 14        -0.00088
       7 -> 16        -0.01184
       7 -> 18        -0.00179
       7 -> 20         0.00195
       7 -> 21         0.00276
       7 -> 24         0.00176
       7 -> 26         0.00101
       7 -> 28        -0.00473
       7 -> 32        -0.00125
       7 -> 34         0.00021
       7 -> 36        -0.00157
       7 -> 39         0.00020
       7 -> 41        -0.00175
       7 -> 43         0.00094
       7 -> 46         0.00468
       7 -> 47         0.00251
       7 -> 51         0.00112
       7 -> 54         0.00056
       8 -> 27         0.00226
       8 -> 38         0.00076
       8 -> 45         0.00667
       3 <-  9        -0.01057
       3 <- 13         0.00041
       3 <- 17        -0.00334
       3 <- 23         0.00023
       3 <- 29        -0.00134
       3 <- 31        -0.00033
       3 <- 37        -0.00012
       3 <- 44        -0.00016
       3 <- 48         0.00064
       3 <- 52         0.00090
       4 <-  9         0.00580
       4 <- 17         0.00246
       4 <- 23        -0.00029
       4 <- 29         0.00224
       4 <- 31        -0.00201
       4 <- 44         0.00020
       4 <- 48        -0.00133
       4 <- 52        -0.00050
       5 <- 27        -0.00159
       5 <- 38         0.00154
       5 <- 45         0.00207
       6 <-  9        -0.02176
       6 <- 13         0.00265
       6 <- 17        -0.00302
       6 <- 23         0.00032
       6 <- 29        -0.00240
       6 <- 31         0.00278
       6 <- 37        -0.00256
       6 <- 44        -0.00215
       6 <- 48         0.00464
       6 <- 52         0.00069
       7 <- 10         0.00217
       7 <- 11         0.00369
       7 <- 14         0.00135
       7 <- 16         0.00092
       7 <- 18        -0.01155
       7 <- 20         0.00781
       7 <- 21         0.00684
       7 <- 24         0.00619
       7 <- 26         0.00353
       7 <- 28         0.00056
       7 <- 32        -0.00114
       7 <- 34         0.00151
       7 <- 36        -0.00252
       7 <- 39         0.00043
       7 <- 41        -0.00121
       7 <- 43         0.00089
       7 <- 46         0.00422
       7 <- 47         0.00207
       7 <- 51         0.00079
       7 <- 54         0.00105
       8 <- 27         0.00218
       8 <- 38         0.00082
       8 <- 45         0.00592

 Excited State   4:      Singlet-B2     7.6497 eV  162.08 nm  f=0.0286  <S**2>=0.000
       3 -> 12        -0.00036
       3 -> 15        -0.00123
       3 -> 19         0.00142
       3 -> 22         0.00055
       3 -> 30         0.00287
       3 -> 33         0.00018
       3 -> 35        -0.00081
       3 -> 40        -0.00066
       3 -> 49         0.00078
       3 -> 50        -0.00017
       4 -> 12         0.00219
       4 -> 15         0.00068
       4 -> 19         0.00135
       4 -> 22        -0.00149
       4 -> 25         0.00256
       4 -> 30        -0.00155
       4 -> 33         0.00048
       4 -> 35        -0.00061
       4 -> 49         0.00020
       5 -> 10        -0.00360
       5 -> 14         0.01075
       5 -> 16        -0.00626
       5 -> 18         0.00053
       5 -> 20        -0.00438
       5 -> 21         0.00332
       5 -> 24        -0.00066
       5 -> 26         0.00188
       5 -> 28         0.00150
       5 -> 32         0.00015
       5 -> 34        -0.00067
       5 -> 36        -0.00053
       5 -> 39         0.00055
       5 -> 41        -0.00061
       5 -> 43         0.00024
       5 -> 46         0.00093
       5 -> 47         0.00016
       5 -> 51        -0.00046
       6 -> 12        -0.00256
       6 -> 15        -0.00106
       6 -> 19        -0.00074
       6 -> 22         0.00095
       6 -> 25         0.00017
       6 -> 30         0.00127
       6 -> 33        -0.00054
       6 -> 35         0.00150
       6 -> 40         0.00123
       6 -> 49        -0.00144
       6 -> 50         0.00022
       6 -> 53         0.00013
       7 -> 27         0.00042
       7 -> 38        -0.00075
       7 -> 45        -0.00230
       8 -> 10         0.06857
       8 -> 11         0.70230
       8 -> 14         0.00418
       8 -> 16         0.00865
       8 -> 18        -0.04211
       8 -> 20        -0.00673
       8 -> 21        -0.00198
       8 -> 24         0.00140
       8 -> 28         0.00308
       8 -> 32         0.00011
       8 -> 34        -0.00023
       8 -> 36        -0.00042
       8 -> 39        -0.00027
       8 -> 41        -0.00097
       8 -> 43         0.00041
       8 -> 46         0.00281
       8 -> 51        -0.00128
       3 <- 12         0.00033
       3 <- 15        -0.00040
       3 <- 19         0.00113
       3 <- 25         0.00012
       3 <- 30         0.00149
       3 <- 33         0.00028
       3 <- 35        -0.00079
       3 <- 40        -0.00061
       3 <- 49         0.00073
       3 <- 50        -0.00011
       3 <- 53        -0.00039
       4 <- 12         0.00024
       4 <- 15         0.00093
       4 <- 19         0.00023
       4 <- 22        -0.00121
       4 <- 25         0.00112
       4 <- 30        -0.00088
       4 <- 33         0.00046
       4 <- 35        -0.00037
       4 <- 49         0.00015
       5 <- 10         0.00107
       5 <- 11        -0.00151
       5 <- 14         0.00275
       5 <- 16        -0.00043
       5 <- 18         0.00181
       5 <- 20        -0.00025
       5 <- 21         0.00096
       5 <- 24        -0.00143
       5 <- 26         0.00020
       5 <- 28         0.00061
       5 <- 32        -0.00070
       5 <- 34         0.00018
       5 <- 39         0.00014
       5 <- 41        -0.00066
       5 <- 43         0.00013
       5 <- 46         0.00091
       5 <- 51        -0.00031
       6 <- 12        -0.00023
       6 <- 15        -0.00145
       6 <- 19         0.00057
       6 <- 22         0.00117
       6 <- 25        -0.00016
       6 <- 30         0.00152
       6 <- 33        -0.00052
       6 <- 35         0.00138
       6 <- 40         0.00103
       6 <- 49        -0.00119
       6 <- 50         0.00016
       6 <- 53         0.00015
       7 <- 27         0.00048
       7 <- 38        -0.00059
       7 <- 45        -0.00191
       8 <- 10        -0.00110
       8 <- 11        -0.00288
       8 <- 14        -0.00377
       8 <- 16         0.00032
       8 <- 18         0.00619
       8 <- 20         0.00135
       8 <- 21        -0.00187
       8 <- 24        -0.00059
       8 <- 26        -0.00166
       8 <- 28         0.00081
       8 <- 32        -0.00147
       8 <- 34         0.00182
       8 <- 39        -0.00087
       8 <- 41        -0.00096
       8 <- 43         0.00017
       8 <- 46         0.00229
       8 <- 47        -0.00024
       8 <- 51        -0.00083

 Excited State   5:      Singlet-A1     7.7688 eV  159.59 nm  f=0.1248  <S**2>=0.000
       3 -> 10         0.00540
       3 -> 11         0.01399
       3 -> 14         0.00718
       3 -> 16        -0.00141
       3 -> 18        -0.02406
       3 -> 20         0.00319
       3 -> 21         0.00680
       3 -> 24         0.00706
       3 -> 26         0.00931
       3 -> 28         0.00163
       3 -> 32         0.00318
       3 -> 34        -0.00394
       3 -> 36        -0.00211
       3 -> 39         0.00151
       3 -> 41         0.00021
       3 -> 43         0.00073
       3 -> 46         0.00183
       3 -> 47         0.00069
       3 -> 54         0.00027
       4 -> 10         0.02871
       4 -> 11        -0.01120
       4 -> 14         0.01702
       4 -> 16         0.00168
       4 -> 18         0.00824
       4 -> 20         0.01013
       4 -> 21         0.00033
       4 -> 24        -0.00883
       4 -> 26         0.00639
       4 -> 28         0.00082
       4 -> 32        -0.00135
       4 -> 34         0.00325
       4 -> 36         0.00079
       4 -> 39        -0.00020
       4 -> 46        -0.00081
       4 -> 47        -0.00152
       5 -> 12         0.03440
       5 -> 15         0.03498
       5 -> 19         0.00349
       5 -> 22         0.00047
       5 -> 25         0.01477
       5 -> 30        -0.00359
       5 -> 33        -0.00310
       5 -> 35         0.00143
       5 -> 40         0.00164
       5 -> 42         0.00076
       5 -> 49         0.00059
       5 -> 50        -0.00041
       5 -> 53        -0.00039
       6 -> 10        -0.03063
       6 -> 11        -0.05053
       6 -> 14        -0.01769
       6 -> 16        -0.03140
       6 -> 18         0.08755
       6 -> 20        -0.04427
       6 -> 21        -0.03178
       6 -> 24        -0.02813
       6 -> 26        -0.01470
       6 -> 28        -0.01188
       6 -> 32        -0.00021
       6 -> 34        -0.00342
       6 -> 36         0.00257
       6 -> 41        -0.00110
       6 -> 43         0.00034
       6 -> 46         0.00076
       6 -> 47         0.00178
       6 -> 51         0.00071
       6 -> 54        -0.00022
       7 ->  9         0.67742
       7 -> 13         0.03022
       7 -> 17        -0.02829
       7 -> 23         0.00855
       7 -> 29        -0.00564
       7 -> 31        -0.00126
       7 -> 44        -0.00072
       7 -> 48         0.00056
       7 -> 52         0.00097
       8 -> 12         0.06956
       8 -> 15         0.15043
       8 -> 19        -0.02375
       8 -> 22        -0.05063
       8 -> 25         0.00471
       8 -> 30        -0.01533
       8 -> 33         0.00637
       8 -> 35        -0.00781
       8 -> 40        -0.00293
       8 -> 42        -0.00038
       8 -> 49         0.00057
       8 -> 50         0.00044
       8 -> 53        -0.00108
       3 <- 10         0.00265
       3 <- 11         0.00805
       3 <- 14         0.00486
       3 <- 16        -0.00021
       3 <- 18        -0.01509
       3 <- 20         0.00228
       3 <- 21         0.00547
       3 <- 24         0.00483
       3 <- 26         0.00604
       3 <- 28         0.00121
       3 <- 32         0.00281
       3 <- 34        -0.00249
       3 <- 36        -0.00145
       3 <- 39         0.00113
       3 <- 41         0.00015
       3 <- 43         0.00070
       3 <- 46         0.00192
       3 <- 47         0.00095
       3 <- 54         0.00029
       4 <- 10         0.01069
       4 <- 11        -0.00475
       4 <- 14         0.00696
       4 <- 16         0.00039
       4 <- 18         0.00451
       4 <- 20         0.00572
       4 <- 24        -0.00501
       4 <- 26         0.00431
       4 <- 32        -0.00176
       4 <- 34         0.00244
       4 <- 36         0.00045
       4 <- 39        -0.00020
       4 <- 41        -0.00016
       4 <- 46        -0.00028
       4 <- 47        -0.00140
       4 <- 51         0.00013
       5 <- 12         0.00936
       5 <- 15         0.01248

 The electronic state is 1-A1.
 Alpha  occ. eigenvalues --  -19.15973 -10.29948  -1.01053  -0.66572  -0.49300
 Alpha  occ. eigenvalues --   -0.44719  -0.37658  -0.28827
 Alpha virt. eigenvalues --   -0.09801   0.00343   0.03489   0.04185   0.06268
 Alpha virt. eigenvalues --    0.12246   0.16413   0.18827   0.21834   0.23188
 Alpha virt. eigenvalues --    0.23612   0.30461   0.42031   0.44196   0.50939

 Mulliken charges:
               1
     1  C   -0.010757
     2  H    0.143180
     3  H    0.143180
     4  O   -0.275603
 Sum of Mulliken charges =  -0.00000

 Dipole moment (field-independent basis, Debye):
    X=             -0.0000    Y=             -0.0000    Z=             -3.0425  Tot=              3.0425
 Quadrupole moment (field-independent basis, Debye-Ang):
   XX=            -12.1455   YY=            -11.7418   ZZ=            -12.0656
   XY=              0.0000   XZ=              0.0000   YZ=             -0.0000

 Normal termination of Gaussian 16 at Fri Sep 17 10:52:47 2021.
