 Gaussian 16, Revision A.03,
 Gaussian 16:  ES64L-G16RevA.03 25-Dec-2016

 --------------------------------------------------------------------
 #p B3LYP/6-311+G** #p TD=(singlets,nstates=30)IOp(6/8=3) IOp(9/40=4)
 --------------------------------------------------------------------

 ------------------------------
 Scan Step 38, Bond Length 0.69
 ------------------------------
 Symbolic Z-matrix:
 Charge =  0 Multiplicity = 1

                         Standard orientation:
 ---------------------------------------------------------------------
 Center     Atomic      Atomic             Coordinates (Angstroms)
 Number     Number       Type             X           Y           Z
 ---------------------------------------------------------------------
      1          6           0        0.000000   -0.000000   -0.271081
      2          1           0        0.000000    0.937260   -0.862431
      3          1           0       -0.000000   -0.937260   -0.862431
      4          8           0        0.000000    0.000000    0.418919
 ---------------------------------------------------------------------

 SCF Done:  E(RB3LYP) =  -112.943837159     A.U. after   10 cycles

 Excitation energies and oscillator strengths:

 Excited State   1:      Singlet-B2     4.9081 eV  252.61 nm  f=0.1211  <S**2>=0.000
       3 -> 11         0.00075
       3 -> 16         0.00058
       3 -> 19         0.00077
       3 -> 22         0.00041
       3 -> 24        -0.00100
       3 -> 29         0.00021
       3 -> 32        -0.00017
       3 -> 40        -0.00020
       3 -> 43         0.00021
       3 -> 50        -0.00011
       3 -> 53         0.00015
       4 ->  9        -0.00289
       4 -> 12         0.00322
       4 -> 14         0.00362
       4 -> 15         0.00154
       4 -> 18         0.00291
       4 -> 20         0.00201
       4 -> 21         0.00175
       4 -> 25         0.00148
       4 -> 26        -0.00078
       4 -> 30         0.00043
       4 -> 31         0.00163
       4 -> 33         0.00031
       4 -> 38        -0.00068
       4 -> 42        -0.00050
       4 -> 44        -0.00031
       4 -> 46        -0.00077
       4 -> 49         0.00018
       4 -> 51        -0.00010
       5 -> 28         0.00175
       5 -> 35         0.00077
       5 -> 45         0.00081
       6 -> 11        -0.00550
       6 -> 16         0.00335
       6 -> 19         0.00063
       6 -> 22        -0.00102
       6 -> 24        -0.00469
       6 -> 29         0.00074
       6 -> 32        -0.00080
       6 -> 37         0.00029
       6 -> 43         0.00018
       6 -> 47         0.00031
       7 -> 11         0.00768
       7 -> 16         0.00357
       7 -> 19         0.00287
       7 -> 24        -0.00070
       7 -> 29        -0.00101
       7 -> 32         0.00080
       7 -> 37        -0.00070
       7 -> 43        -0.00043
       7 -> 47         0.00042
       7 -> 50         0.00044
       7 -> 53        -0.00011
       8 ->  9         0.70541
       8 -> 12        -0.00021
       8 -> 14         0.04605
       8 -> 15        -0.00698
       8 -> 18        -0.02193
       8 -> 20         0.00554
       8 -> 21         0.01009
       8 -> 25        -0.00022
       8 -> 26        -0.00028
       8 -> 30        -0.00290
       8 -> 31        -0.00223
       8 -> 33        -0.00107
       8 -> 38        -0.00112
       8 -> 39         0.00014
       8 -> 42        -0.00074
       8 -> 44         0.00030
       8 -> 46         0.00080
       8 -> 49        -0.00029
       8 -> 51         0.00011
       3 <- 11         0.00031
       3 <- 16         0.00025
       3 <- 19         0.00050
       3 <- 22         0.00032
       3 <- 24        -0.00075
       3 <- 29         0.00017
       3 <- 32        -0.00018
       3 <- 40        -0.00021
       3 <- 43         0.00020
       3 <- 53         0.00015
       4 <-  9        -0.00134
       4 <- 12        -0.00023
       4 <- 14         0.00297
       4 <- 15         0.00182
       4 <- 18         0.00061
       4 <- 20         0.00113
       4 <- 21         0.00134
       4 <- 25         0.00125
       4 <- 26        -0.00131
       4 <- 30         0.00039
       4 <- 31         0.00067
       4 <- 33         0.00024
       4 <- 38        -0.00044
       4 <- 39         0.00016
       4 <- 42        -0.00041
       4 <- 44        -0.00025
       4 <- 46        -0.00069
       4 <- 49         0.00011
       5 <- 28         0.00145
       5 <- 35         0.00062
       5 <- 45         0.00068
       6 <- 11        -0.00086
       6 <- 16         0.00299
       6 <- 19         0.00096
       6 <- 22        -0.00024
       6 <- 24        -0.00345
       6 <- 29         0.00029
       6 <- 32        -0.00068
       6 <- 37         0.00032
       6 <- 43         0.00011
       6 <- 47         0.00028
       6 <- 50         0.00016
       7 <- 11         0.00159
       7 <- 16         0.00158
       7 <- 19         0.00023
       7 <- 29        -0.00152
       7 <- 32         0.00063
       7 <- 37        -0.00042
       7 <- 43        -0.00030
       7 <- 47         0.00044
       7 <- 50         0.00050
       8 <-  9        -0.00805
       8 <- 12        -0.00513
       8 <- 14         0.01955
       8 <- 15         0.00589
       8 <- 18         0.00145
       8 <- 20         0.00045
       8 <- 21         0.00513
       8 <- 25         0.00311
       8 <- 26         0.00011
       8 <- 30        -0.00190
       8 <- 31        -0.00144
       8 <- 33        -0.00140
       8 <- 38        -0.00107
       8 <- 39         0.00011
       8 <- 42        -0.00061
       8 <- 46         0.00067
       8 <- 49        -0.00021
 This state for optimization and/or second-order correction.
 Total Energy, E(TD-HF/TD-DFT) =  -112.763466072
 Copying the excited state density for this state as the 1-particle RhoCI density.

 Excited State   2:      Singlet-A2     5.2159 eV  237.71 nm  f=0.0000  <S**2>=0.000
       3 -> 28        -0.00189
       3 -> 35        -0.00120
       3 -> 45        -0.00045
       4 -> 10        -0.00099
       4 -> 13         0.00131
       4 -> 17        -0.00386
       4 -> 23         0.00181
       4 -> 27        -0.00225
       4 -> 36        -0.00159
       4 -> 41        -0.00018
       4 -> 48        -0.00013
       4 -> 52        -0.00030
       5 -> 11         0.00030
       5 -> 16        -0.00012
       5 -> 19         0.00036
       5 -> 22        -0.00097
       5 -> 24        -0.00021
       5 -> 29         0.00019
       5 -> 32        -0.00012
       5 -> 37        -0.00034
       5 -> 43        -0.00039
       5 -> 47        -0.00038
       5 -> 50         0.00019
       5 -> 53        -0.00011
       6 -> 28        -0.00337
       6 -> 35         0.00049
       7 -> 28         0.00126
       7 -> 35        -0.00029
       7 -> 45        -0.00049
       8 -> 10         0.70584
       8 -> 13        -0.03201
       8 -> 17         0.02833
       8 -> 23         0.00268
       8 -> 27         0.00180
       8 -> 34         0.00319
       8 -> 36        -0.00198
       8 -> 41         0.00021
       8 -> 48         0.00013
       8 -> 52         0.00039
       3 <- 28        -0.00154
       3 <- 35        -0.00104
       3 <- 45        -0.00043
       4 <- 10        -0.00018
       4 <- 13         0.00075
       4 <- 17        -0.00073
       4 <- 23         0.00011
       4 <- 27        -0.00035
       4 <- 34         0.00077
       4 <- 36        -0.00087
       4 <- 41        -0.00025
       5 <- 11         0.00064
       5 <- 16        -0.00060
       5 <- 19         0.00160
       5 <- 22        -0.00148
       5 <- 24        -0.00124
       5 <- 29         0.00133
       5 <- 32         0.00025
       5 <- 37        -0.00080
       5 <- 43        -0.00045
       5 <- 47        -0.00037
       5 <- 53        -0.00027
       6 <- 28        -0.00329
       6 <- 35         0.00062
       7 <- 28         0.00134
       7 <- 35        -0.00036
       7 <- 45        -0.00048
       8 <- 10         0.00100
       8 <- 13         0.00565
       8 <- 17        -0.00595
       8 <- 23         0.00019
       8 <- 27        -0.00049
       8 <- 34         0.00306
       8 <- 36        -0.00159
       8 <- 41         0.00016
       8 <- 52         0.00014

 Excited State   3:      Singlet-B2     5.8274 eV  212.76 nm  f=0.0330  <S**2>=0.000
       3 -> 11        -0.00014
       3 -> 16         0.00047
       3 -> 19        -0.00027
       3 -> 22         0.00029
       3 -> 24        -0.00036
       3 -> 29        -0.00044
       3 -> 32         0.00013
       3 -> 37        -0.00022
       3 -> 43        -0.00022
       3 -> 47         0.00015
       3 -> 50         0.00012
       3 -> 53        -0.00017
       4 ->  9         0.00200
       4 -> 12         0.00034
       4 -> 14         0.00135
       4 -> 15         0.00262
       4 -> 18        -0.00149
       4 -> 20        -0.00045
       4 -> 21         0.00126
       4 -> 25         0.00084
       4 -> 26         0.00065
       4 -> 30        -0.00215
       4 -> 31        -0.00072
       4 -> 38         0.00022
       4 -> 39        -0.00096
       4 -> 42         0.00033
       4 -> 46         0.00054
       4 -> 49        -0.00011
       5 -> 28        -0.00099
       5 -> 35        -0.00124
       5 -> 45        -0.00072
       6 -> 11        -0.00029
       6 -> 16         0.00397
       6 -> 19        -0.00152
       6 -> 24        -0.00229
       6 -> 29         0.00181
       6 -> 32         0.00042
       6 -> 37         0.00058
       6 -> 40         0.00042
       6 -> 43         0.00029
       6 -> 47        -0.00027
       6 -> 50        -0.00022
       6 -> 53         0.00012
       7 -> 11        -0.00237
       7 -> 16        -0.00395
       7 -> 19        -0.00144
       7 -> 22         0.00082
       7 -> 24         0.00299
       7 -> 29        -0.00082
       7 -> 32        -0.00043
       7 -> 37         0.00063
       7 -> 40         0.00010
       7 -> 43         0.00021
       7 -> 47        -0.00059
       7 -> 50        -0.00034
       7 -> 53         0.00015
       8 ->  9        -0.00097
       8 -> 12         0.70577
       8 -> 14         0.03011
       8 -> 15         0.02702
       8 -> 18         0.00907
       8 -> 20         0.01581
       8 -> 21         0.00522
       8 -> 25        -0.00086
       8 -> 26         0.00167
       8 -> 30        -0.00249
       8 -> 31         0.00036
       8 -> 33        -0.00027
       8 -> 38        -0.00030
       8 -> 39         0.00140
       8 -> 42        -0.00087
       8 -> 46        -0.00048
       8 -> 49         0.00013
       8 -> 54        -0.00015
       3 <- 16         0.00047
       3 <- 22         0.00014
       3 <- 24        -0.00041
       3 <- 29        -0.00027
       3 <- 32         0.00013
       3 <- 37        -0.00023
       3 <- 43        -0.00020
       3 <- 47         0.00011
       3 <- 53        -0.00022
       4 <-  9        -0.00123
       4 <- 12        -0.00013
       4 <- 14         0.00134
       4 <- 15         0.00070
       4 <- 18         0.00062
       4 <- 20        -0.00043
       4 <- 21         0.00086
       4 <- 25         0.00097
       4 <- 26         0.00068
       4 <- 30        -0.00143
       4 <- 31        -0.00013
       4 <- 33        -0.00061
       4 <- 38         0.00015
       4 <- 39        -0.00072
       4 <- 42         0.00034
       4 <- 46         0.00051
       5 <- 28        -0.00058
       5 <- 35        -0.00107
       5 <- 45        -0.00063
       6 <- 11        -0.00037
       6 <- 16         0.00085
       6 <- 19         0.00043
       6 <- 22        -0.00065
       6 <- 24        -0.00174
       6 <- 29         0.00130
       6 <- 32         0.00059
       6 <- 37         0.00058
       6 <- 40         0.00037
       6 <- 43         0.00020
       6 <- 47        -0.00023
       6 <- 50        -0.00015
       7 <- 11        -0.00011
       7 <- 16        -0.00133
       7 <- 19        -0.00057
       7 <- 22         0.00049
       7 <- 24         0.00162
       7 <- 32        -0.00033
       7 <- 37         0.00026
       7 <- 43         0.00014
       7 <- 47        -0.00052
       7 <- 50        -0.00041
       8 <-  9        -0.00472
       8 <- 12         0.00117
       8 <- 14         0.01065
       8 <- 15         0.00404
       8 <- 18        -0.00118
       8 <- 20        -0.00295
       8 <- 21         0.00331
       8 <- 25         0.00065
       8 <- 26        -0.00013
       8 <- 30        -0.00217
       8 <- 31         0.00028
       8 <- 38        -0.00013
       8 <- 39         0.00120
       8 <- 42        -0.00076
       8 <- 46        -0.00039

 Excited State   4:      Singlet-A1     5.9897 eV  207.00 nm  f=0.0114  <S**2>=0.000
       3 ->  9         0.00124
       3 -> 12        -0.00052
       3 -> 14         0.00019
       3 -> 15        -0.00068
       3 -> 18        -0.00146
       3 -> 21         0.00073
       3 -> 25        -0.00057
       3 -> 26        -0.00027
       3 -> 30         0.00075
       3 -> 31        -0.00069
       3 -> 33         0.00038
       3 -> 38         0.00033
       3 -> 39         0.00033
       3 -> 46        -0.00012
       3 -> 51         0.00019
       3 -> 54        -0.00014
       4 -> 11        -0.00626
       4 -> 16        -0.00666
       4 -> 19        -0.00464
       4 -> 22        -0.00228
       4 -> 24         0.00330
       4 -> 29         0.00038
       4 -> 37        -0.00103
       4 -> 40        -0.00011
       4 -> 43         0.00027
       4 -> 50         0.00022
       5 -> 10        -0.00380
       5 -> 13        -0.00329
       5 -> 17        -0.00328
       5 -> 23        -0.00339
       5 -> 27        -0.00097
       5 -> 34        -0.00090
       5 -> 36        -0.00059
       5 -> 41        -0.00015
       5 -> 48         0.00025
       6 ->  9         0.01106
       6 -> 12         0.00695
       6 -> 14        -0.00451
       6 -> 15        -0.00416
       6 -> 18        -0.00670
       6 -> 20         0.00520
       6 -> 21         0.00087
       6 -> 25        -0.00597
       6 -> 26         0.00093
       6 -> 30        -0.00034
       6 -> 31         0.00139
       6 -> 33         0.00191
       6 -> 38         0.00113
       6 -> 39        -0.00118
       6 -> 42         0.00011
       6 -> 44         0.00056
       6 -> 49         0.00046
       7 ->  9         0.00762
       7 -> 12        -0.01164
       7 -> 14         0.00128
       7 -> 15         0.00438
       7 -> 18        -0.00724
       7 -> 20        -0.00334
       7 -> 21        -0.00029
       7 -> 25         0.00163
       7 -> 26        -0.00254
       7 -> 30        -0.00047
       7 -> 31        -0.00174
       7 -> 33         0.00022
       7 -> 38        -0.00050
       7 -> 39         0.00049
       7 -> 42        -0.00011
       7 -> 44        -0.00030
       7 -> 51        -0.00018
       8 -> 11         0.70482
       8 -> 16         0.05143
       8 -> 19        -0.01819
       8 -> 22        -0.00035
       8 -> 24        -0.00580
       8 -> 29        -0.00403
       8 -> 32         0.00189
       8 -> 37        -0.00317
       8 -> 40        -0.00034
       8 -> 43         0.00181
       8 -> 47        -0.00084
       8 -> 50         0.00017
       3 <-  9         0.00066
       3 <- 12        -0.00025
       3 <- 14         0.00014
       3 <- 15        -0.00042
       3 <- 18        -0.00092
       3 <- 21         0.00047
       3 <- 25        -0.00045
       3 <- 26        -0.00022
       3 <- 30         0.00055
       3 <- 31        -0.00044
       3 <- 33         0.00033
       3 <- 38         0.00025
       3 <- 39         0.00027
       3 <- 46        -0.00016
       3 <- 51         0.00016
       3 <- 54        -0.00013
       4 <- 11        -0.00249
       4 <- 16        -0.00267
       4 <- 19        -0.00262
       4 <- 22        -0.00166
       4 <- 24         0.00177
       4 <- 29         0.00018
       4 <- 32         0.00017
       4 <- 37        -0.00087
       4 <- 43         0.00024
       4 <- 50         0.00019
       5 <- 10        -0.00202
       5 <- 13        -0.00183
       5 <- 17        -0.00194
       5 <- 23        -0.00232
       5 <- 27        -0.00070
       5 <- 34        -0.00074
       5 <- 36        -0.00050
       5 <- 41        -0.00013
       5 <- 48         0.00022
       6 <-  9         0.00805
       6 <- 12         0.00340
       6 <- 14        -0.00353
       6 <- 15        -0.00342
       6 <- 18        -0.00365
       6 <- 20         0.00295
       6 <- 21         0.00141
       6 <- 25        -0.00397
       6 <- 26         0.00055
       6 <- 30         0.00013
       6 <- 31         0.00105
       6 <- 33         0.00137
       6 <- 38         0.00115
       6 <- 39        -0.00093
       6 <- 42         0.00010
       6 <- 44         0.00056
       6 <- 49         0.00038
       7 <-  9         0.00055
       7 <- 12        -0.00464
       7 <- 14         0.00160
       7 <- 15         0.00307
       7 <- 18        -0.00337
       7 <- 20        -0.00160
       7 <- 21        -0.00052
       7 <- 25         0.00112
       7 <- 26        -0.00161
       7 <- 30        -0.00054
       7 <- 31        -0.00134
       7 <- 33         0.00015
       7 <- 38        -0.00046
       7 <- 39         0.00027
       7 <- 44        -0.00031
       7 <- 46         0.00010
       7 <- 51        -0.00017
       8 <- 11        -0.00869
       8 <- 16         0.00500
       8 <- 19        -0.01505
       8 <- 22        -0.00381
       8 <- 24        -0.00191
       8 <- 29        -0.00277
       8 <- 32         0.00168
       8 <- 37        -0.00249
       8 <- 40        -0.00011
       8 <- 43         0.00145
       8 <- 47        -0.00083
       8 <- 50         0.00016

 Excited State   5:      Singlet-A2     8.0573 eV  153.88 nm  f=0.0000  <S**2>=0.000
       3 -> 28         0.00266
       3 -> 35         0.00180
       3 -> 45         0.00064
       4 -> 10         0.00103
       4 -> 13        -0.00811
       4 -> 17         0.00142
       4 -> 23        -0.00348
       4 -> 27         0.00074
       4 -> 34         0.00118
       4 -> 36         0.00280
       4 -> 52         0.00039
       5 -> 16        -0.00070
       5 -> 19        -0.00046
       5 -> 22         0.00153
       5 -> 24         0.00063
       5 -> 32         0.00011
       5 -> 37         0.00048
       5 -> 40        -0.00011
       5 -> 43         0.00064
       5 -> 47         0.00050
       5 -> 50        -0.00013
       5 -> 53         0.00016
       6 -> 28         0.00290
       6 -> 35        -0.00071
       6 -> 45         0.00013
       7 -> 28        -0.00109
       7 -> 35         0.00042
       7 -> 45         0.00062
       8 -> 10         0.03398
       8 -> 13         0.70392
       8 -> 17        -0.05347
       8 -> 23         0.02108
       8 -> 27        -0.00285
       8 -> 34        -0.00280
       8 -> 36         0.00283
       8 -> 52        -0.00044
       3 <- 28         0.00182
       3 <- 35         0.00148
       3 <- 45         0.00070
       4 <- 10         0.00033
       4 <- 13        -0.00079
       4 <- 17         0.00039
       4 <- 23        -0.00017
       4 <- 27         0.00022
       4 <- 34        -0.00065
       4 <- 36         0.00106
       4 <- 41         0.00032
       4 <- 52         0.00013
       5 <- 11         0.00033
       5 <- 16        -0.00026
       5 <- 19        -0.00067
       5 <- 22         0.00205
       5 <- 24         0.00163
       5 <- 29        -0.00043
       5 <- 32        -0.00063
       5 <- 37         0.00129
       5 <- 43         0.00077
       5 <- 47         0.00021
       5 <- 53         0.00034
       6 <- 28         0.00313
       6 <- 35        -0.00052
       6 <- 45        -0.00010
       7 <- 28        -0.00114
       7 <- 45         0.00040
       8 <- 10         0.00581
       8 <- 13        -0.00379
       8 <- 17         0.00386
       8 <- 23        -0.00076
       8 <- 27         0.00048
       8 <- 34        -0.00304

 The electronic state is 1-A1.
 Alpha  occ. eigenvalues --  -19.18500 -10.30296  -1.32338  -0.77042  -0.73856
 Alpha  occ. eigenvalues --   -0.57921  -0.54719  -0.20721
 Alpha virt. eigenvalues --    0.00887   0.02806   0.04433   0.04648   0.14292
 Alpha virt. eigenvalues --    0.14406   0.17743   0.18702   0.21682   0.23639
 Alpha virt. eigenvalues --    0.26732   0.36565   0.50694   0.57217   0.57618

 Mulliken charges:
               1
     1  C    0.325529
     2  H   -0.090914
     3  H   -0.090914
     4  O   -0.143700
 Sum of Mulliken charges =  -0.00000

 Dipole moment (field-independent basis, Debye):
    X=              0.0000    Y=             -0.0000    Z=              1.0162  Tot=              1.0162
 Quadrupole moment (field-independent basis, Debye-Ang):
   XX=            -10.2614   YY=            -13.5144   ZZ=            -13.6128
   XY=             -0.0000   XZ=             -0.0000   YZ=             -0.0000

 Normal termination of Gaussian 16 at Fri Sep 17 10:52:23 2021.
