 Gaussian 16, Revision C.01,
 Gaussian 16:  ES64L-G16RevC.01  3-Jul-2019

 ----------------------------------------
 #P wB97XD/6-311+G* NoSymm #P Field=X+165
 ----------------------------------------

 -------
 TitleMe
 -------
 Symbolic Z-matrix:
 Charge =  1 Multiplicity = 1

                          Input orientation:
 ---------------------------------------------------------------------
 Center     Atomic      Atomic             Coordinates (Angstroms)
 Number     Number       Type             X           Y           Z
 ---------------------------------------------------------------------
      1          6           0        0.519300    1.233000   -0.031900
      2          6           0        1.944500    1.269200   -0.036700
      3          6           0        2.620400    0.092800   -0.025000
      4          6           0       -0.196000    0.030100    0.001000
      5          1           0       -0.020700    2.174200   -0.043400
      6          1           0        2.482800    2.208900   -0.036100
      7          1           0       -1.277700    0.039900    0.011700
      8          7           0        4.092100    0.095900    0.036600
      9          8           0        4.639300   -1.021700    0.144600
     10          8           0        4.664900    1.198400   -0.023300
     11          6           0        0.494300   -1.167100    0.021000
     12          1           0       -0.032500   -2.114900    0.054500
     13          6           0        1.962900   -1.216500   -0.021100
     14          1           0        2.443600   -1.963100    0.615100
     15         35           0        2.173000   -1.949100   -1.906200
 ---------------------------------------------------------------------

 SCF Done:  E(RwB97XD) =  -3010.52908820     A.U. after   19 cycles

 Alpha  occ. eigenvalues -- -483.36872 -62.91904 -56.71587 -56.71032 -56.71023
 Alpha  occ. eigenvalues --  -19.56558 -19.56459 -14.95674 -10.65158 -10.63900
 Alpha  occ. eigenvalues --  -10.61872 -10.61201 -10.59892 -10.56435  -9.07718
 Alpha  occ. eigenvalues --   -6.90368  -6.88544  -6.88519  -3.00279  -2.99797
 Alpha  occ. eigenvalues --   -2.99776  -2.98316  -2.98316  -1.60135  -1.43200
 Alpha  occ. eigenvalues --   -1.28159  -1.18739  -1.18027  -1.10598  -1.06740
 Alpha  occ. eigenvalues --   -1.00522  -0.96640  -0.93193  -0.90157  -0.88539
 Alpha  occ. eigenvalues --   -0.86402  -0.83943  -0.82500  -0.81251  -0.77316
 Alpha  occ. eigenvalues --   -0.72609  -0.72374  -0.68612  -0.67839  -0.67249
 Alpha  occ. eigenvalues --   -0.66441  -0.65128  -0.62181  -0.60502
 Alpha virt. eigenvalues --   -0.35776  -0.28544  -0.21471  -0.19037  -0.15879
 Alpha virt. eigenvalues --   -0.12959  -0.12274  -0.11652  -0.10302  -0.08326
 Alpha virt. eigenvalues --   -0.07887  -0.07204  -0.07084  -0.06174  -0.05284

 Mulliken charges:
               1
     1  C   -0.132264
     2  C    0.178337
     3  C   -0.157387
     4  C   -0.312520
     5  H    0.386431
     6  H    0.330560
     7  H    0.404626
     8  N   -0.236401
     9  O    0.023820
    10  O   -0.010035
    11  C   -0.152610
    12  H    0.397012
    13  C   -0.263130
    14  H    0.391315
    15  Br   0.152247
 Sum of Mulliken charges =   1.00000

 Dipole moment (field-independent basis, Debye):
    X=             -1.9305    Y=             -0.6717    Z=             -0.5279  Tot=              2.1111
 Quadrupole moment (field-independent basis, Debye-Ang):
   XX=            -86.7702   YY=            -51.4942   ZZ=            -62.7016
   XY=             -1.7723   XZ=             -1.2706   YZ=              1.9272

 Normal termination of Gaussian 16 at Thu May  2 14:18:32 2024.
