 Gaussian 16, Revision A.03,
 Gaussian 16:  ES64L-G16RevA.03 25-Dec-2016

 --------------------------------------------------------------------
 #p B3LYP/6-311+G** #p TD=(singlets,nstates=30)IOp(6/8=3) IOp(9/40=4)
 --------------------------------------------------------------------

 --------------------------------------------
 Scan Step 95, Bond Length 0.9750000000000001
 --------------------------------------------
 Symbolic Z-matrix:
 Charge =  0 Multiplicity = 1

                         Standard orientation:
 ---------------------------------------------------------------------
 Center     Atomic      Atomic             Coordinates (Angstroms)
 Number     Number       Type             X           Y           Z
 ---------------------------------------------------------------------
      1          6           0        0.000000   -0.000000   -0.413581
      2          1           0        0.000000    0.937260   -1.004931
      3          1           0       -0.000000   -0.937260   -1.004931
      4          8           0        0.000000    0.000000    0.561419
 ---------------------------------------------------------------------

 SCF Done:  E(RB3LYP) =  -114.403596931     A.U. after    9 cycles

 Excitation energies and oscillator strengths:

 Excited State   1:      Singlet-A2     5.2233 eV  237.37 nm  f=0.0000  <S**2>=0.000
       3 -> 27         0.00300
       3 -> 36         0.00245
       3 -> 46         0.00159
       4 -> 27         0.00313
       4 -> 36        -0.00075
       4 -> 46        -0.00088
       5 ->  9         0.01448
       5 -> 13        -0.00916
       5 -> 17         0.00621
       5 -> 23        -0.00307
       5 -> 28         0.00344
       5 -> 31         0.00262
       5 -> 37         0.00396
       5 -> 43         0.00064
       5 -> 52         0.00082
       6 -> 12        -0.00061
       6 -> 16         0.00158
       6 -> 18        -0.00111
       6 -> 22         0.00171
       6 -> 24         0.00091
       6 -> 29        -0.00059
       6 -> 33         0.00032
       6 -> 35         0.00054
       6 -> 40        -0.00021
       6 -> 42         0.00044
       6 -> 48         0.00066
       6 -> 50        -0.00017
       6 -> 53         0.00035
       7 -> 27         0.00077
       7 -> 36        -0.00047
       7 -> 46         0.00146
       8 ->  9         0.69801
       8 -> 13        -0.10858
       8 -> 17         0.02760
       8 -> 23        -0.01093
       8 -> 28         0.00620
       8 -> 31         0.00351
       8 -> 37        -0.00188
       8 -> 43        -0.00026
       8 -> 47        -0.00011
       8 -> 52         0.00117
       3 <- 27         0.00214
       3 <- 36         0.00209
       3 <- 46         0.00166
       4 <- 27         0.00380
       4 <- 36        -0.00032
       4 <- 46        -0.00083
       5 <-  9         0.00022
       5 <- 13        -0.00105
       5 <- 17        -0.00035
       5 <- 23         0.00040
       5 <- 28        -0.00027
       5 <- 31        -0.00112
       5 <- 37         0.00177
       5 <- 43         0.00043
       5 <- 47         0.00015
       5 <- 52         0.00021
       6 <- 12        -0.00096
       6 <- 16        -0.00374
       6 <- 18        -0.00260
       6 <- 22         0.00574
       6 <- 24        -0.00124
       6 <- 29         0.00200
       6 <- 33        -0.00114
       6 <- 35         0.00234
       6 <- 40        -0.00032
       6 <- 42         0.00097
       6 <- 48         0.00049
       6 <- 53         0.00093
       7 <- 27         0.00105
       7 <- 36        -0.00049
       7 <- 46         0.00114
       8 <-  9        -0.01334
       8 <- 13         0.00709
       8 <- 17        -0.00391
       8 <- 23         0.00062
       8 <- 28        -0.00044
       8 <- 31         0.00231
       8 <- 37        -0.00222
       8 <- 52         0.00035
 This state for optimization and/or second-order correction.
 Total Energy, E(TD-HF/TD-DFT) =  -114.211643211
 Copying the excited state density for this state as the 1-particle RhoCI density.

 Excited State   2:      Singlet-B2     6.2654 eV  197.89 nm  f=0.0708  <S**2>=0.000
       3 -> 12         0.00103
       3 -> 16         0.00022
       3 -> 18         0.00113
       3 -> 22        -0.00014
       3 -> 24         0.00124
       3 -> 29        -0.00015
       3 -> 35        -0.00017
       3 -> 50        -0.00013
       4 -> 12        -0.00536
       4 -> 16        -0.00015
       4 -> 18         0.00221
       4 -> 22        -0.00301
       4 -> 24         0.00399
       4 -> 29        -0.00028
       4 -> 33        -0.00092
       4 -> 35         0.00089
       4 -> 40        -0.00027
       4 -> 42         0.00042
       5 -> 10        -0.00029
       5 -> 11        -0.00821
       5 -> 14         0.00610
       5 -> 15        -0.00148
       5 -> 19         0.00353
       5 -> 20        -0.00066
       5 -> 21         0.00367
       5 -> 25         0.00080
       5 -> 26        -0.00165
       5 -> 30         0.00251
       5 -> 32        -0.00022
       5 -> 34        -0.00011
       5 -> 38        -0.00063
       5 -> 39         0.00022
       5 -> 41         0.00018
       5 -> 44        -0.00048
       5 -> 45        -0.00058
       5 -> 49         0.00030
       6 -> 27         0.00074
       6 -> 46         0.00081
       7 -> 12         0.00184
       7 -> 16        -0.00076
       7 -> 18         0.00431
       7 -> 22        -0.00257
       7 -> 24         0.00208
       7 -> 29        -0.00012
       7 -> 42        -0.00038
       7 -> 48         0.00036
       7 -> 50         0.00051
       8 -> 10         0.70591
       8 -> 11        -0.03114
       8 -> 14        -0.00881
       8 -> 15        -0.01101
       8 -> 19         0.01909
       8 -> 20         0.00925
       8 -> 21        -0.00648
       8 -> 25         0.00083
       8 -> 26        -0.00086
       8 -> 30         0.00029
       8 -> 32         0.00220
       8 -> 34         0.00182
       8 -> 38         0.00067
       8 -> 39        -0.00058
       8 -> 41        -0.00021
       8 -> 44         0.00065
       8 -> 45        -0.00097
       8 -> 49         0.00021
       8 -> 54         0.00016
       3 <- 12         0.00031
       3 <- 16         0.00032
       3 <- 18         0.00057
       3 <- 22        -0.00022
       3 <- 24         0.00086
       3 <- 29        -0.00014
       3 <- 35        -0.00017
       4 <- 12         0.00028
       4 <- 16         0.00036
       4 <- 18         0.00278
       4 <- 22        -0.00183
       4 <- 24         0.00294
       4 <- 29        -0.00022
       4 <- 33        -0.00066
       4 <- 35         0.00063
       4 <- 40        -0.00026
       4 <- 42         0.00012
       5 <- 10         0.00231
       5 <- 14         0.00463
       5 <- 15        -0.00148
       5 <- 19         0.00088
       5 <- 21         0.00205
       5 <- 25         0.00168
       5 <- 26        -0.00133
       5 <- 30         0.00088
       5 <- 32        -0.00051
       5 <- 34        -0.00021
       5 <- 38        -0.00047
       5 <- 39         0.00017
       5 <- 41         0.00028
       5 <- 44        -0.00033
       5 <- 45        -0.00049
       5 <- 49         0.00027
       6 <- 27         0.00057
       6 <- 46         0.00068
       7 <- 12         0.00052
       7 <- 16        -0.00098
       7 <- 18         0.00180
       7 <- 22        -0.00099
       7 <- 24         0.00089
       7 <- 29         0.00054
       7 <- 33        -0.00015
       7 <- 35         0.00016
       7 <- 42        -0.00035
       7 <- 48         0.00032
       7 <- 50         0.00054
       8 <- 10        -0.00352
       8 <- 11        -0.00129
       8 <- 14        -0.01061
       8 <- 15         0.00095
       8 <- 19        -0.00074
       8 <- 20        -0.00035
       8 <- 21        -0.00371
       8 <- 25        -0.00301
       8 <- 26        -0.00047
       8 <- 30        -0.00060
       8 <- 32         0.00091
       8 <- 34         0.00162
       8 <- 38         0.00069
       8 <- 39        -0.00047
       8 <- 44         0.00053
       8 <- 45        -0.00066
       8 <- 49         0.00022
       8 <- 51         0.00010

 Excited State   3:      Singlet-B2     7.0530 eV  175.79 nm  f=0.0206  <S**2>=0.000
       3 -> 12        -0.00015
       3 -> 16        -0.00069
       3 -> 18         0.00027
       3 -> 22         0.00019
       3 -> 24         0.00038
       3 -> 29         0.00121
       3 -> 33         0.00014
       3 -> 35        -0.00031
       3 -> 42        -0.00033
       3 -> 48         0.00021
       3 -> 50         0.00025
       4 -> 12         0.00308
       4 -> 16        -0.00265
       4 -> 18         0.00311
       4 -> 22        -0.00155
       4 -> 24         0.00351
       4 -> 29        -0.00108
       4 -> 33         0.00055
       4 -> 35        -0.00028
       4 -> 40        -0.00020
       4 -> 48         0.00016
       4 -> 50         0.00016
       5 -> 10        -0.00643
       5 -> 11         0.00026
       5 -> 14         0.00418
       5 -> 15        -0.00562
       5 -> 19        -0.00379
       5 -> 20        -0.00166
       5 -> 21         0.00118
       5 -> 25         0.00119
       5 -> 26         0.00120
       5 -> 30         0.00092
       5 -> 32        -0.00188
       5 -> 34        -0.00077
       5 -> 39        -0.00061
       5 -> 41        -0.00084
       5 -> 45         0.00066
       5 -> 49        -0.00044
       5 -> 51        -0.00026
       6 -> 27        -0.00070
       6 -> 36        -0.00127
       6 -> 46        -0.00124
       7 -> 12        -0.00311
       7 -> 16        -0.00116
       7 -> 18        -0.00216
       7 -> 22         0.00143
       7 -> 24        -0.00011
       7 -> 29         0.00021
       7 -> 33        -0.00033
       7 -> 35         0.00134
       7 -> 40        -0.00040
       7 -> 42         0.00073
       7 -> 48        -0.00069
       7 -> 50        -0.00066
       7 -> 53         0.00014
       8 -> 10         0.03173
       8 -> 11         0.70541
       8 -> 14        -0.01461
       8 -> 15         0.02064
       8 -> 19        -0.02081
       8 -> 20         0.01388
       8 -> 21        -0.00222
       8 -> 25         0.00032
       8 -> 26         0.00055
       8 -> 30        -0.00155
       8 -> 34         0.00042
       8 -> 38        -0.00011
       8 -> 39        -0.00032
       8 -> 41        -0.00142
       8 -> 45         0.00086
       8 -> 49        -0.00074
       8 -> 51        -0.00027
       8 -> 54        -0.00017
       3 <- 12         0.00028
       3 <- 16        -0.00047
       3 <- 18         0.00055
       3 <- 24         0.00046
       3 <- 29         0.00078
       3 <- 33         0.00019
       3 <- 35        -0.00035
       3 <- 42        -0.00028
       3 <- 48         0.00017
       3 <- 50         0.00014
       3 <- 53        -0.00022
       4 <- 12         0.00033
       4 <- 18         0.00120
       4 <- 22        -0.00126
       4 <- 24         0.00155
       4 <- 29        -0.00045
       4 <- 33         0.00054
       4 <- 40        -0.00019
       4 <- 42        -0.00014
       4 <- 48         0.00010
       4 <- 50         0.00022
       5 <- 10         0.00135
       5 <- 11        -0.00052
       5 <- 14         0.00200
       5 <- 15        -0.00049
       5 <- 19         0.00067
       5 <- 20         0.00010
       5 <- 21         0.00098
       5 <- 25         0.00099
       5 <- 26         0.00085
       5 <- 30         0.00078
       5 <- 32        -0.00042
       5 <- 34        -0.00121
       5 <- 38         0.00014
       5 <- 39        -0.00038
       5 <- 41        -0.00085
       5 <- 44        -0.00013
       5 <- 45         0.00064
       5 <- 49        -0.00030
       5 <- 51        -0.00026
       6 <- 27        -0.00026
       6 <- 36        -0.00104
       6 <- 46        -0.00106
       7 <- 12        -0.00036
       7 <- 18        -0.00030
       7 <- 22         0.00033
       7 <- 29        -0.00013
       7 <- 33        -0.00013
       7 <- 35         0.00096
       7 <- 40        -0.00031
       7 <- 42         0.00051
       7 <- 48        -0.00059
       7 <- 50        -0.00058
       8 <- 10        -0.00126
       8 <- 11         0.00092
       8 <- 14        -0.00535
       8 <- 15         0.00096
       8 <- 19         0.00237
       8 <- 20        -0.00167
       8 <- 21        -0.00237
       8 <- 25        -0.00020
       8 <- 26         0.00118
       8 <- 30        -0.00092
       8 <- 32         0.00115
       8 <- 34        -0.00011
       8 <- 38        -0.00026
       8 <- 41        -0.00119
       8 <- 45         0.00072
       8 <- 49        -0.00048
       8 <- 51        -0.00026

 Excited State   4:      Singlet-A1     7.1921 eV  172.39 nm  f=0.0503  <S**2>=0.000
       3 -> 10         0.00145
       3 -> 11        -0.00095
       3 -> 14         0.00029
       3 -> 15        -0.00050
       3 -> 19         0.00120
       3 -> 20         0.00065
       3 -> 26        -0.00030
       3 -> 30         0.00116
       3 -> 32        -0.00030
       3 -> 34        -0.00021
       3 -> 38        -0.00035
       3 -> 39        -0.00019
       3 -> 41        -0.00018
       3 -> 49        -0.00014
       3 -> 51        -0.00033
       3 -> 54        -0.00021
       4 -> 10         0.00553
       4 -> 11         0.00938
       4 -> 14         0.00616
       4 -> 15        -0.00096
       4 -> 19         0.00071
       4 -> 20         0.00622
       4 -> 21         0.00252
       4 -> 25         0.00701
       4 -> 26        -0.00080
       4 -> 30        -0.00062
       4 -> 32        -0.00037
       4 -> 34        -0.00091
       4 -> 38        -0.00013
       4 -> 39         0.00057
       4 -> 41         0.00021
       4 -> 45        -0.00030
       4 -> 49        -0.00024
       5 -> 12         0.00776
       5 -> 16        -0.00441
       5 -> 18         0.01051
       5 -> 22        -0.00016
       5 -> 24         0.00464
       5 -> 29         0.00044
       5 -> 33        -0.00016
       5 -> 35         0.00089
       5 -> 42        -0.00019
       5 -> 50        -0.00036
       5 -> 53        -0.00015
       6 ->  9         0.00941
       6 -> 13         0.00529
       6 -> 17         0.00506
       6 -> 23         0.00464
       6 -> 28         0.00035
       6 -> 31         0.00086
       6 -> 37         0.00054
       6 -> 43         0.00059
       6 -> 47        -0.00037
       7 -> 10         0.01337
       7 -> 11        -0.00475
       7 -> 14         0.00363
       7 -> 15         0.00139
       7 -> 19         0.00655
       7 -> 20         0.00392
       7 -> 21         0.00159
       7 -> 25         0.00219
       7 -> 26        -0.00048
       7 -> 30        -0.00028
       7 -> 32         0.00056
       7 -> 34        -0.00083
       7 -> 39         0.00017
       7 -> 44         0.00011
       7 -> 49        -0.00019
       7 -> 51         0.00052
       8 -> 12         0.70560
       8 -> 16        -0.03437
       8 -> 18         0.01729
       8 -> 22         0.00476
       8 -> 24         0.00156
       8 -> 29         0.00247
       8 -> 33         0.00151
       8 -> 35        -0.00234
       8 -> 42         0.00120
       8 -> 48        -0.00038
       8 -> 50        -0.00020
       8 -> 53        -0.00016
       3 <- 10         0.00057
       3 <- 11        -0.00029
       3 <- 14         0.00020
       3 <- 15        -0.00020
       3 <- 19         0.00061
       3 <- 20         0.00029
       3 <- 25         0.00023
       3 <- 26        -0.00013
       3 <- 30         0.00070
       3 <- 32        -0.00024
       3 <- 34        -0.00012
       3 <- 38        -0.00027
       3 <- 39        -0.00017
       3 <- 41        -0.00016
       3 <- 45         0.00011
       3 <- 49        -0.00016
       3 <- 51        -0.00029
       3 <- 54        -0.00019
       4 <- 10         0.00540
       4 <- 11         0.00298
       4 <- 14         0.00453
       4 <- 15        -0.00119
       4 <- 19         0.00055
       4 <- 20         0.00351
       4 <- 21         0.00098
       4 <- 25         0.00411
       4 <- 26        -0.00039
       4 <- 32        -0.00065
       4 <- 34        -0.00094
       4 <- 38        -0.00021
       4 <- 39         0.00052
       4 <- 45        -0.00028
       4 <- 49        -0.00020
       5 <- 12         0.00273
       5 <- 16        -0.00040
       5 <- 18         0.00436
       5 <- 22         0.00028
       5 <- 24         0.00252
       5 <- 33        -0.00031
       5 <- 35         0.00079
       5 <- 42        -0.00017
       5 <- 50        -0.00027
       5 <- 53        -0.00014
       6 <-  9         0.00250
       6 <- 13         0.00182
       6 <- 17         0.00204
       6 <- 23         0.00261
       6 <- 28         0.00017
       6 <- 31         0.00064
       6 <- 37         0.00043
       6 <- 43         0.00049
       6 <- 47        -0.00032
       7 <- 10         0.00421
       7 <- 11        -0.00089
       7 <- 14         0.00166
       7 <- 15         0.00046
       7 <- 19         0.00260
       7 <- 20         0.00213
       7 <- 21         0.00061
       7 <- 25         0.00124
       7 <- 26        -0.00049
       7 <- 32         0.00030
       7 <- 34        -0.00063
       7 <- 39         0.00024
       7 <- 41         0.00013
       7 <- 51         0.00048
       8 <- 12        -0.00269
       8 <- 16        -0.00799
       8 <- 18        -0.00661
       8 <- 22         0.00017
       8 <- 24        -0.00238
       8 <- 29         0.00095
       8 <- 33         0.00100
       8 <- 35        -0.00151
       8 <- 40        -0.00011
       8 <- 42         0.00099
       8 <- 48        -0.00045
       8 <- 50        -0.00018
       8 <- 53        -0.00017

 Excited State   5:      Singlet-A2     7.7676 eV  159.62 nm  f=0.0000  <S**2>=0.000
       3 -> 27        -0.00114
       3 -> 36        -0.00099
       3 -> 46        -0.00054
       4 -> 27        -0.00023
       4 -> 36         0.00064
       4 -> 46         0.00018
       5 ->  9        -0.00982
       5 -> 13         0.00367
       5 -> 17         0.00421
       5 -> 31        -0.00207
       5 -> 37        -0.00183
       5 -> 43        -0.00029
       5 -> 52        -0.00027
       6 -> 12        -0.00041
       6 -> 16        -0.00201
       6 -> 18         0.00117
       6 -> 22        -0.00095
       6 -> 24        -0.00025
       6 -> 29         0.00027
       6 -> 35        -0.00026
       6 -> 42        -0.00023
       6 -> 48        -0.00022
       6 -> 53        -0.00013
       7 -> 36         0.00027
       7 -> 46        -0.00057
       8 ->  9         0.10888
       8 -> 13         0.69825
       8 -> 17         0.00520
       8 -> 23         0.02121
       8 -> 28        -0.00089
       8 -> 31        -0.00128
       8 -> 37         0.00038
       8 -> 43         0.00010
       8 -> 47         0.00018
       8 -> 52        -0.00033
       3 <- 27        -0.00060
       3 <- 36        -0.00077
       3 <- 46        -0.00064
       4 <- 27        -0.00074
       4 <- 46         0.00019
       5 <-  9        -0.00027
       5 <- 17         0.00063
       5 <- 23        -0.00011
       5 <- 37        -0.00052
       5 <- 43        -0.00013
       6 <- 12        -0.00059
       6 <- 16        -0.00055
       6 <- 18         0.00060
       6 <- 22        -0.00192
       6 <- 33         0.00059
       6 <- 35        -0.00104
       6 <- 40         0.00014
       6 <- 42        -0.00057
       6 <- 53        -0.00027
       7 <- 27        -0.00023
       7 <- 36         0.00025
       7 <- 46        -0.00025
       8 <-  9         0.00508
       8 <- 13         0.00066
       8 <- 17         0.00041
       8 <- 23        -0.00041
       8 <- 28         0.00016
       8 <- 31        -0.00050
       8 <- 37         0.00056
       8 <- 52        -0.00014

 Excited State   6:      Singlet-B2    10.1311 eV  122.38 nm  f=0.2559  <S**2>=0.000
       3 -> 12        -0.00041
       3 -> 16        -0.00190
       3 -> 18        -0.00015
       3 -> 22         0.00143
       3 -> 24         0.00078
       3 -> 29         0.00133

 The electronic state is 1-A1.
 Alpha  occ. eigenvalues --  -19.13864 -10.24292  -1.21693  -0.60909  -0.56903
 Alpha  occ. eigenvalues --   -0.51030  -0.50259  -0.25596
 Alpha virt. eigenvalues --   -0.00227   0.01334   0.04297   0.04391   0.07696
 Alpha virt. eigenvalues --    0.13921   0.17952   0.20302   0.21967   0.22581
 Alpha virt. eigenvalues --    0.26723   0.35965   0.49553   0.51541   0.51767

 Mulliken charges:
               1
     1  C    0.133043
     2  H    0.036612
     3  H    0.036612
     4  O   -0.206267
 Sum of Mulliken charges =   0.00000

 Dipole moment (field-independent basis, Debye):
    X=              0.0000    Y=              0.0000    Z=             -1.1539  Tot=              1.1539
 Quadrupole moment (field-independent basis, Debye-Ang):
   XX=            -11.0435   YY=            -12.0617   ZZ=            -13.0137
   XY=             -0.0000   XZ=             -0.0000   YZ=              0.0000

 Normal termination of Gaussian 16 at Fri Sep 17 10:52:36 2021.
