 Gaussian 16, Revision C.01,
 Gaussian 16:  ES64L-G16RevC.01  3-Jul-2019

 ---------------------------------------
 #P wB97XD/6-311+G* NoSymm #P Field=Z-29
 ---------------------------------------

 -------
 TitleMe
 -------
 Symbolic Z-matrix:
 Charge =  1 Multiplicity = 1

                          Input orientation:
 ---------------------------------------------------------------------
 Center     Atomic      Atomic             Coordinates (Angstroms)
 Number     Number       Type             X           Y           Z
 ---------------------------------------------------------------------
      1          6           0        0.029500    1.339700    0.068200
      2          6           0        1.434800    1.286700    0.006400
      3          6           0        2.111800    0.051100   -0.005400
      4          6           0        1.445100   -1.137200    0.031200
      5          6           0       -0.687900    0.168200    0.110000
      6          1           0       -0.471300    2.298400    0.078100
      7          1           0        2.027300    2.196500   -0.032200
      8          1           0        1.989700   -2.076400    0.023200
      9          1           0       -1.771600    0.180400    0.158200
     10          7           0        3.586400    0.051000   -0.067500
     11          8           0        4.147100   -1.059700   -0.088100
     12          8           0        4.145000    1.163900   -0.090100
     13          6           0       -0.023600   -1.145800    0.083500
     14          1           0       -0.436700   -1.872500    0.788900
     15         35           0       -0.535900   -1.869700   -1.740800
 ---------------------------------------------------------------------

 SCF Done:  E(RwB97XD) =  -3010.53560658     A.U. after   18 cycles

 Alpha  occ. eigenvalues -- -483.31530 -62.86563 -56.66245 -56.65688 -56.65686
 Alpha  occ. eigenvalues --  -19.45781 -19.45706 -14.85284 -10.58326 -10.57459
 Alpha  occ. eigenvalues --  -10.57107 -10.56918 -10.56655 -10.52849  -9.02375
 Alpha  occ. eigenvalues --   -6.85022  -6.83198  -6.83183  -2.94934  -2.94449
 Alpha  occ. eigenvalues --   -2.94436  -2.92976  -2.92976  -1.49544  -1.32519
 Alpha  occ. eigenvalues --   -1.22581  -1.14064  -1.11681  -1.04577  -1.00944
 Alpha  occ. eigenvalues --   -0.95398  -0.90861  -0.85173  -0.80653  -0.80550
 Alpha  occ. eigenvalues --   -0.79891  -0.78191  -0.75998  -0.75821  -0.72306
 Alpha  occ. eigenvalues --   -0.69260  -0.67461  -0.63698  -0.60192  -0.57141
 Alpha  occ. eigenvalues --   -0.56678  -0.56062  -0.55546  -0.55398
 Alpha virt. eigenvalues --   -0.29607  -0.21207  -0.15725  -0.13336  -0.08635
 Alpha virt. eigenvalues --   -0.05977  -0.05789  -0.05090  -0.04233  -0.03203
 Alpha virt. eigenvalues --   -0.02655  -0.02349  -0.01700  -0.01289  -0.00359

 Mulliken charges:
               1
     1  C   -0.582965
     2  C    0.526921
     3  C   -0.719749
     4  C    0.290993
     5  C    0.013237
     6  H    0.334896
     7  H    0.366526
     8  H    0.374562
     9  H    0.351945
    10  N   -0.106646
    11  O    0.031192
    12  O    0.027899
    13  C   -0.471183
    14  H    0.414059
    15  Br   0.148311
 Sum of Mulliken charges =   1.00000

 Dipole moment (field-independent basis, Debye):
    X=             -0.7582    Y=             -0.4776    Z=              0.4817  Tot=              1.0174
 Quadrupole moment (field-independent basis, Debye-Ang):
   XX=            -71.1505   YY=            -52.1402   ZZ=            -63.1664
   XY=              1.2202   XZ=              1.3421   YZ=              1.2332

 Normal termination of Gaussian 16 at Wed May  1 15:22:41 2024.
