 Gaussian 16, Revision C.01,
 Gaussian 16:  ES64L-G16RevC.01  3-Jul-2019

 ----------------------------------------
 #P wB97XD/6-311+G* NoSymm #P Field=X-233
 ----------------------------------------

 -------
 TitleMe
 -------
 Symbolic Z-matrix:
 Charge =  1 Multiplicity = 1

                          Input orientation:
 ---------------------------------------------------------------------
 Center     Atomic      Atomic             Coordinates (Angstroms)
 Number     Number       Type             X           Y           Z
 ---------------------------------------------------------------------
      1          6           0        0.029500    1.339700    0.068200
      2          6           0        1.434800    1.286700    0.006400
      3          6           0        2.111800    0.051100   -0.005400
      4          6           0        1.445100   -1.137200    0.031200
      5          6           0       -0.687900    0.168200    0.110000
      6          1           0       -0.471300    2.298400    0.078100
      7          1           0        2.027300    2.196500   -0.032200
      8          1           0        1.989700   -2.076400    0.023200
      9          1           0       -1.771600    0.180400    0.158200
     10          7           0        3.586400    0.051000   -0.067500
     11          8           0        4.147100   -1.059700   -0.088100
     12          8           0        4.145000    1.163900   -0.090100
     13          6           0       -0.023600   -1.145800    0.083500
     14          1           0       -0.436700   -1.872500    0.788900
     15         35           0       -0.535900   -1.869700   -1.740800
 ---------------------------------------------------------------------

 SCF Done:  E(RwB97XD) =  -3010.56029765     A.U. after   30 cycles

 Alpha  occ. eigenvalues -- -483.29776 -62.84830 -56.64475 -56.63973 -56.63966
 Alpha  occ. eigenvalues --  -19.34670 -19.34616 -14.74097 -10.56314 -10.54113
 Alpha  occ. eigenvalues --  -10.52967 -10.52053 -10.51316 -10.50791  -9.00657
 Alpha  occ. eigenvalues --   -6.83201  -6.81543  -6.81517  -2.93137  -2.92697
 Alpha  occ. eigenvalues --   -2.92675  -2.91348  -2.91347  -1.38243  -1.21109
 Alpha  occ. eigenvalues --   -1.19006  -1.10380  -1.07796  -1.02027  -0.94901
 Alpha  occ. eigenvalues --   -0.91807  -0.86227  -0.80756  -0.76450  -0.75412
 Alpha  occ. eigenvalues --   -0.72994  -0.71350  -0.70048  -0.68029  -0.65616
 Alpha  occ. eigenvalues --   -0.65239  -0.62680  -0.60222  -0.57240  -0.55472
 Alpha  occ. eigenvalues --   -0.52567  -0.45255  -0.43709  -0.43628
 Alpha virt. eigenvalues --   -0.26510  -0.16531  -0.14806  -0.13421  -0.11759
 Alpha virt. eigenvalues --   -0.09644  -0.08100  -0.06551  -0.04129  -0.03717
 Alpha virt. eigenvalues --   -0.02742  -0.01315  -0.00261   0.00281   0.01067

 Mulliken charges:
               1
     1  C   -0.503666
     2  C    0.377453
     3  C   -0.596412
     4  C    0.323212
     5  C   -0.038382
     6  H    0.284045
     7  H    0.404557
     8  H    0.406313
     9  H    0.236921
    10  N   -0.126867
    11  O    0.151123
    12  O    0.149312
    13  C   -0.482549
    14  H    0.365501
    15  Br   0.049439
 Sum of Mulliken charges =   1.00000

 Dipole moment (field-independent basis, Debye):
    X=              6.5406    Y=              0.2037    Z=              0.5502  Tot=              6.5669
 Quadrupole moment (field-independent basis, Debye-Ang):
   XX=            -54.0487   YY=            -53.0060   ZZ=            -64.5954
   XY=             -0.0288   XZ=             -0.8004   YZ=              0.0118

 Normal termination of Gaussian 16 at Wed May  1 14:58:04 2024.
