 Gaussian 16, Revision A.03,
 Gaussian 16:  ES64L-G16RevA.03 25-Dec-2016

 --------------------------------------------------------------------
 #p B3LYP/6-311+G** #p TD=(singlets,nstates=30)IOp(6/8=3) IOp(9/40=4)
 --------------------------------------------------------------------

 -------------------------------
 Scan Step 17, Bond Length 0.585
 -------------------------------
 Symbolic Z-matrix:
 Charge =  0 Multiplicity = 1

                         Standard orientation:
 ---------------------------------------------------------------------
 Center     Atomic      Atomic             Coordinates (Angstroms)
 Number     Number       Type             X           Y           Z
 ---------------------------------------------------------------------
      1          6           0        0.000000   -0.000000   -0.218581
      2          1           0        0.000000    0.937260   -0.809931
      3          1           0       -0.000000   -0.937260   -0.809931
      4          8           0        0.000000    0.000000    0.366419
 ---------------------------------------------------------------------

 SCF Done:  E(RB3LYP) =  -111.251186610     A.U. after   10 cycles

 Excitation energies and oscillator strengths:

 Excited State   1:      Singlet-B2     4.4689 eV  277.44 nm  f=0.1431  <S**2>=0.000
       3 -> 11         0.00075
       3 -> 15         0.00102
       3 -> 19         0.00075
       3 -> 22         0.00087
       3 -> 25         0.00125
       3 -> 29         0.00012
       3 -> 31        -0.00028
       3 -> 40        -0.00042
       3 -> 43         0.00024
       3 -> 54         0.00016
       4 ->  9        -0.00256
       4 -> 12         0.00195
       4 -> 13         0.00304
       4 -> 16         0.00129
       4 -> 17         0.00199
       4 -> 20         0.00209
       4 -> 21         0.00156
       4 -> 24         0.00121
       4 -> 26        -0.00075
       4 -> 30         0.00137
       4 -> 32         0.00114
       4 -> 33        -0.00024
       4 -> 38        -0.00054
       4 -> 42         0.00045
       4 -> 44        -0.00025
       4 -> 47         0.00071
       4 -> 49        -0.00011
       4 -> 53         0.00015
       5 -> 28         0.00208
       5 -> 35         0.00094
       5 -> 45         0.00070
       6 -> 11        -0.00709
       6 -> 15         0.00285
       6 -> 19        -0.00092
       6 -> 22        -0.00012
       6 -> 25         0.00415
       6 -> 29         0.00088
       6 -> 31        -0.00068
       6 -> 40        -0.00015
       6 -> 43         0.00017
       6 -> 46         0.00029
       7 -> 11         0.00890
       7 -> 15         0.00439
       7 -> 19         0.00377
       7 -> 22         0.00055
       7 -> 25         0.00156
       7 -> 29        -0.00111
       7 -> 31         0.00101
       7 -> 37        -0.00064
       7 -> 43        -0.00035
       7 -> 46         0.00044
       7 -> 50         0.00042
       7 -> 54        -0.00013
       8 ->  9         0.70452
       8 -> 12        -0.00409
       8 -> 13         0.06020
       8 -> 16        -0.00522
       8 -> 17        -0.02335
       8 -> 20         0.00567
       8 -> 21         0.01124
       8 -> 24        -0.00040
       8 -> 26        -0.00090
       8 -> 30        -0.00347
       8 -> 32        -0.00206
       8 -> 33        -0.00031
       8 -> 38        -0.00102
       8 -> 39        -0.00017
       8 -> 42         0.00075
       8 -> 44         0.00049
       8 -> 47        -0.00060
       8 -> 49         0.00026
       3 <- 11         0.00037
       3 <- 15         0.00066
       3 <- 19         0.00046
       3 <- 22         0.00074
       3 <- 25         0.00095
       3 <- 31        -0.00030
       3 <- 40        -0.00041
       3 <- 43         0.00024
       3 <- 54         0.00017
       4 <-  9        -0.00101
       4 <- 12        -0.00015
       4 <- 13         0.00249
       4 <- 16         0.00146
       4 <- 17         0.00019
       4 <- 20         0.00135
       4 <- 21         0.00129
       4 <- 24         0.00078
       4 <- 26        -0.00129
       4 <- 30         0.00105
       4 <- 32         0.00052
       4 <- 38        -0.00036
       4 <- 39         0.00014
       4 <- 42         0.00036
       4 <- 44        -0.00021
       4 <- 47         0.00064
       5 <- 28         0.00178
       5 <- 35         0.00077
       5 <- 45         0.00059
       6 <- 11        -0.00211
       6 <- 15         0.00290
       6 <- 19        -0.00022
       6 <- 22         0.00041
       6 <- 25         0.00318
       6 <- 29         0.00046
       6 <- 31        -0.00061
       6 <- 37         0.00011
       6 <- 40        -0.00015
       6 <- 43         0.00014
       6 <- 46         0.00026
       7 <- 11         0.00220
       7 <- 15         0.00203
       7 <- 19         0.00089
       7 <- 22         0.00024
       7 <- 25         0.00082
       7 <- 29        -0.00172
       7 <- 31         0.00087
       7 <- 37        -0.00040
       7 <- 43        -0.00023
       7 <- 46         0.00047
       7 <- 50         0.00050
       8 <-  9        -0.01246
       8 <- 12        -0.00707
       8 <- 13         0.02471
       8 <- 16         0.00751
       8 <- 17         0.00031
       8 <- 20         0.00127
       8 <- 21         0.00596
       8 <- 24         0.00281
       8 <- 26        -0.00067
       8 <- 30        -0.00236
       8 <- 32        -0.00171
       8 <- 33        -0.00083
       8 <- 38        -0.00099
       8 <- 39        -0.00020
       8 <- 42         0.00068
       8 <- 44         0.00020
       8 <- 47        -0.00053
       8 <- 49         0.00016
 This state for optimization and/or second-order correction.
 Total Energy, E(TD-HF/TD-DFT) =  -111.086958001
 Copying the excited state density for this state as the 1-particle RhoCI density.

 Excited State   2:      Singlet-A2     4.8478 eV  255.75 nm  f=0.0000  <S**2>=0.000
       3 -> 28        -0.00192
       3 -> 35        -0.00103
       3 -> 45        -0.00031
       4 -> 10        -0.00077
       4 -> 14        -0.00061
       4 -> 18         0.00241
       4 -> 23        -0.00076
       4 -> 27        -0.00196
       4 -> 34         0.00023
       4 -> 36        -0.00109
       4 -> 48        -0.00015
       4 -> 52        -0.00021
       5 -> 11         0.00020
       5 -> 15        -0.00020
       5 -> 19         0.00031
       5 -> 22        -0.00070
       5 -> 25         0.00024
       5 -> 29         0.00034
       5 -> 37        -0.00031
       5 -> 40         0.00014
       5 -> 43        -0.00036
       5 -> 46        -0.00027
       5 -> 50         0.00017
       6 -> 28        -0.00313
       6 -> 35         0.00066
       6 -> 45         0.00015
       7 -> 28         0.00156
       7 -> 35        -0.00029
       7 -> 45        -0.00030
       8 -> 10         0.70664
       8 -> 14        -0.00631
       8 -> 18        -0.02577
       8 -> 23        -0.00365
       8 -> 27         0.00026
       8 -> 34         0.00343
       8 -> 36        -0.00152
       8 -> 41         0.00055
       8 -> 48         0.00015
       8 -> 52         0.00028
       3 <- 28        -0.00161
       3 <- 35        -0.00089
       3 <- 45        -0.00030
       4 <- 10        -0.00021
       4 <- 14         0.00034
       4 <- 18         0.00081
       4 <- 23        -0.00014
       4 <- 27        -0.00048
       4 <- 34         0.00065
       4 <- 36        -0.00065
       4 <- 41        -0.00012
       5 <- 11         0.00046
       5 <- 15        -0.00047
       5 <- 19         0.00107
       5 <- 22        -0.00087
       5 <- 25         0.00074
       5 <- 29         0.00121
       5 <- 31         0.00012
       5 <- 37        -0.00058
       5 <- 40         0.00011
       5 <- 43        -0.00040
       5 <- 46        -0.00030
       5 <- 54        -0.00018
       6 <- 28        -0.00305
       6 <- 35         0.00079
       6 <- 45         0.00013
       7 <- 28         0.00158
       7 <- 35        -0.00041
       7 <- 45        -0.00032
       8 <- 10         0.00273
       8 <- 14         0.00260
       8 <- 18         0.00735
       8 <- 23        -0.00015
       8 <- 27        -0.00078
       8 <- 34         0.00327
       8 <- 36        -0.00122
       8 <- 41         0.00031
       8 <- 52         0.00011

 Excited State   3:      Singlet-B2     5.5385 eV  223.86 nm  f=0.0381  <S**2>=0.000
       3 -> 11        -0.00023
       3 -> 15         0.00041
       3 -> 19        -0.00044
       3 -> 22         0.00027
       3 -> 25         0.00013
       3 -> 29        -0.00018
       3 -> 31         0.00013
       3 -> 37        -0.00016
       3 -> 40         0.00019
       3 -> 43        -0.00018
       3 -> 54        -0.00019
       4 ->  9         0.00094
       4 -> 12         0.00017
       4 -> 13         0.00091
       4 -> 16         0.00177
       4 -> 17        -0.00086
       4 -> 20        -0.00057
       4 -> 21         0.00095
       4 -> 24         0.00089
       4 -> 26         0.00021
       4 -> 30        -0.00206
       4 -> 32        -0.00015
       4 -> 38         0.00042
       4 -> 39        -0.00091
       4 -> 42        -0.00030
       4 -> 47        -0.00041
       5 -> 28        -0.00100
       5 -> 35        -0.00112
       5 -> 45        -0.00059
       6 -> 11        -0.00086
       6 -> 15         0.00385
       6 -> 19        -0.00201
       6 -> 22        -0.00024
       6 -> 25         0.00158
       6 -> 29         0.00215
       6 -> 31         0.00049
       6 -> 37         0.00051
       6 -> 40         0.00040
       6 -> 43         0.00028
       6 -> 46        -0.00024
       6 -> 50        -0.00021
       6 -> 54         0.00014
       7 -> 11        -0.00119
       7 -> 15        -0.00406
       7 -> 19        -0.00105
       7 -> 25        -0.00296
       7 -> 29        -0.00109
       7 -> 31        -0.00047
       7 -> 37         0.00051
       7 -> 40         0.00012
       7 -> 46        -0.00057
       7 -> 50        -0.00026
       7 -> 54         0.00016
       8 ->  9         0.00143
       8 -> 12         0.70545
       8 -> 13         0.03989
       8 -> 16         0.02534
       8 -> 17         0.00386
       8 -> 20         0.01563
       8 -> 21         0.00542
       8 -> 24        -0.00099
       8 -> 26         0.00202
       8 -> 30        -0.00304
       8 -> 32         0.00050
       8 -> 33        -0.00018
       8 -> 38        -0.00076
       8 -> 39         0.00135
       8 -> 42         0.00092
       8 -> 44        -0.00016
       8 -> 47         0.00024
       8 -> 51        -0.00010
       8 -> 53         0.00013
       3 <- 15         0.00034
       3 <- 19        -0.00016
       3 <- 22         0.00013
       3 <- 25         0.00023
       3 <- 31         0.00014
       3 <- 37        -0.00019
       3 <- 40         0.00016
       3 <- 43        -0.00017
       3 <- 54        -0.00023
       4 <-  9        -0.00102
       4 <- 12        -0.00020
       4 <- 13         0.00101
       4 <- 16         0.00065
       4 <- 17         0.00050
       4 <- 20        -0.00038
       4 <- 21         0.00066
       4 <- 24         0.00095
       4 <- 26         0.00033
       4 <- 30        -0.00140
       4 <- 33        -0.00053
       4 <- 38         0.00027
       4 <- 39        -0.00065
       4 <- 42        -0.00032
       4 <- 47        -0.00037
       5 <- 28        -0.00063
       5 <- 35        -0.00098
       5 <- 45        -0.00053
       6 <- 11        -0.00071
       6 <- 15         0.00079
       6 <- 19         0.00012
       6 <- 22        -0.00056
       6 <- 25         0.00149
       6 <- 29         0.00167
       6 <- 31         0.00067
       6 <- 37         0.00049
       6 <- 40         0.00032
       6 <- 43         0.00022
       6 <- 46        -0.00020
       6 <- 50        -0.00016
       6 <- 54         0.00012
       7 <- 11         0.00032
       7 <- 15        -0.00135
       7 <- 19        -0.00054
       7 <- 25        -0.00182
       7 <- 29        -0.00028
       7 <- 31        -0.00036
       7 <- 37         0.00018
       7 <- 46        -0.00050
       7 <- 50        -0.00034
       8 <-  9        -0.00648
       8 <- 12         0.00071
       8 <- 13         0.01249
       8 <- 16         0.00482
       8 <- 17        -0.00159
       8 <- 20        -0.00325
       8 <- 21         0.00323
       8 <- 24         0.00057
       8 <- 30        -0.00242
       8 <- 32         0.00051
       8 <- 33        -0.00022
       8 <- 38        -0.00060
       8 <- 39         0.00125
       8 <- 42         0.00080
       8 <- 44        -0.00011
       8 <- 47         0.00020

 Excited State   4:      Singlet-A1     5.7694 eV  214.90 nm  f=0.0007  <S**2>=0.000
       3 ->  9         0.00155
       3 -> 12        -0.00034
       3 -> 13         0.00017
       3 -> 16        -0.00099
       3 -> 17        -0.00177
       3 -> 20        -0.00014
       3 -> 21         0.00100
       3 -> 24        -0.00104
       3 -> 26        -0.00036
       3 -> 30         0.00066
       3 -> 32        -0.00070
       3 -> 33         0.00076
       3 -> 38         0.00050
       3 -> 39         0.00033
       3 -> 44        -0.00018
       3 -> 51        -0.00014
       3 -> 53        -0.00014
       4 -> 11        -0.00553
       4 -> 15        -0.00505
       4 -> 19        -0.00479
       4 -> 22        -0.00272
       4 -> 25        -0.00321
       4 -> 29        -0.00060
       4 -> 37        -0.00090
       4 -> 40        -0.00014
       4 -> 43         0.00018
       4 -> 46        -0.00012
       5 -> 10        -0.00236
       5 -> 14        -0.00396
       5 -> 18         0.00081
       5 -> 23         0.00371
       5 -> 27        -0.00037
       5 -> 34        -0.00072
       5 -> 36        -0.00057
       5 -> 48         0.00011
       6 ->  9         0.01094
       6 -> 12         0.00729
       6 -> 13        -0.00332
       6 -> 16        -0.00603
       6 -> 17        -0.00607
       6 -> 20         0.00385
       6 -> 21         0.00251
       6 -> 24        -0.00517
       6 -> 26         0.00170
       6 -> 30        -0.00041
       6 -> 32         0.00296
       6 -> 33         0.00146
       6 -> 38         0.00168
       6 -> 39        -0.00109
       6 -> 42        -0.00029
       6 -> 44         0.00086
       6 -> 47         0.00019
       6 -> 49        -0.00039
       6 -> 51        -0.00013
       7 ->  9         0.00964
       7 -> 12        -0.01204
       7 -> 13        -0.00070
       7 -> 16         0.00610
       7 -> 17        -0.00903
       7 -> 20        -0.00340
       7 -> 21        -0.00195
       7 -> 24         0.00026
       7 -> 26        -0.00398
       7 -> 30        -0.00097
       7 -> 32        -0.00135
       7 -> 33         0.00073
       7 -> 38        -0.00099
       7 -> 39         0.00038
       7 -> 42         0.00017
       7 -> 44        -0.00027
       7 -> 51         0.00012
       7 -> 53         0.00012
       8 -> 11         0.70437
       8 -> 15         0.05659
       8 -> 19        -0.02291
       8 -> 22        -0.00135
       8 -> 25         0.00979
       8 -> 29        -0.00272
       8 -> 31         0.00222
       8 -> 37        -0.00358
       8 -> 40        -0.00073
       8 -> 43         0.00189
       8 -> 46        -0.00114
       8 -> 50         0.00024
       3 <-  9         0.00095
       3 <- 12        -0.00015
       3 <- 13         0.00015
       3 <- 16        -0.00067
       3 <- 17        -0.00115
       3 <- 21         0.00073
       3 <- 24        -0.00078
       3 <- 26        -0.00029
       3 <- 30         0.00053
       3 <- 32        -0.00050
       3 <- 33         0.00061
       3 <- 38         0.00041
       3 <- 39         0.00027
       3 <- 44        -0.00016
       3 <- 47         0.00011
       3 <- 51        -0.00012
       3 <- 53        -0.00012
       4 <- 11        -0.00249
       4 <- 15        -0.00219
       4 <- 19        -0.00287
       4 <- 22        -0.00191
       4 <- 25        -0.00186
       4 <- 29        -0.00045
       4 <- 37        -0.00076
       4 <- 40        -0.00014
       4 <- 43         0.00018
       5 <- 10        -0.00143
       5 <- 14        -0.00249
       5 <- 18         0.00053
       5 <- 23         0.00269
       5 <- 27        -0.00027
       5 <- 34        -0.00060
       5 <- 36        -0.00049
       5 <- 48         0.00010
       6 <-  9         0.00821
       6 <- 12         0.00371
       6 <- 13        -0.00280
       6 <- 16        -0.00449
       6 <- 17        -0.00319
       6 <- 20         0.00199
       6 <- 21         0.00260
       6 <- 24        -0.00354
       6 <- 26         0.00120
       6 <- 32         0.00222
       6 <- 33         0.00103
       6 <- 38         0.00158
       6 <- 39        -0.00079
       6 <- 42        -0.00027
       6 <- 44         0.00082
       6 <- 47         0.00011
       6 <- 49        -0.00034
       6 <- 51        -0.00013
       7 <-  9         0.00092
       7 <- 12        -0.00486
       7 <- 13         0.00069
       7 <- 16         0.00403
       7 <- 17        -0.00435
       7 <- 20        -0.00147
       7 <- 21        -0.00167
       7 <- 24         0.00029
       7 <- 26        -0.00274
       7 <- 30        -0.00084
       7 <- 32        -0.00103
       7 <- 33         0.00056
       7 <- 38        -0.00086
       7 <- 39         0.00017
       7 <- 44        -0.00027
       7 <- 51         0.00011
       7 <- 53         0.00011
       8 <- 11        -0.01400
       8 <- 15         0.00513
       8 <- 19        -0.01681
       8 <- 22        -0.00456
       8 <- 25         0.00532
       8 <- 29        -0.00216
       8 <- 31         0.00203
       8 <- 37        -0.00290
       8 <- 40        -0.00037
       8 <- 43         0.00154
       8 <- 46        -0.00105
       8 <- 50         0.00024

 Excited State   5:      Singlet-A2     8.4515 eV  146.70 nm  f=0.0000  <S**2>=0.000
       3 -> 28         0.00211
       3 -> 35         0.00118
       3 -> 45         0.00032
       4 -> 10        -0.00081
       4 -> 14        -0.00467
       4 -> 18        -0.00173
       4 -> 23         0.00272
       4 -> 27         0.00033
       4 -> 34         0.00040
       4 -> 36         0.00172
       4 -> 41        -0.00026
       4 -> 52         0.00015
       5 -> 19        -0.00043
       5 -> 22         0.00092
       5 -> 25        -0.00067
       5 -> 29        -0.00017
       5 -> 37         0.00033
       5 -> 40        -0.00016
       5 -> 43         0.00047
       5 -> 46         0.00030
       5 -> 50        -0.00011
       6 -> 28         0.00227
       6 -> 35        -0.00063
       7 -> 28        -0.00134
       7 -> 35         0.00018
       7 -> 45         0.00025
       8 -> 10         0.00884
       8 -> 14         0.70303
       8 -> 18         0.07339
       8 -> 23        -0.01649
       8 -> 27        -0.00152
       8 -> 34        -0.00250
       8 -> 36         0.00249
       8 -> 41        -0.00025
       8 -> 52        -0.00027
       3 <- 28         0.00150
       3 <- 35         0.00094
       3 <- 45         0.00034
       4 <- 10         0.00028
       4 <- 14        -0.00033
       4 <- 18        -0.00064
       4 <- 23         0.00022
       4 <- 27         0.00031
       4 <- 34        -0.00049
       4 <- 36         0.00068
       4 <- 41         0.00013
       5 <- 11         0.00044
       5 <- 22         0.00099
       5 <- 25        -0.00113
       5 <- 29        -0.00022
       5 <- 31        -0.00038
       5 <- 37         0.00075
       5 <- 43         0.00049
       5 <- 54         0.00015
       6 <- 28         0.00233
       6 <- 35        -0.00060
       6 <- 45        -0.00016
       7 <- 28        -0.00109
       8 <- 10         0.00321
       8 <- 14        -0.00046
       8 <- 18        -0.00464
       8 <- 23         0.00082
       8 <- 27         0.00034
       8 <- 34        -0.00275
       8 <- 36         0.00116
       8 <- 41        -0.00024
       8 <- 52        -0.00011

 The electronic state is 1-A1.
 Alpha  occ. eigenvalues --  -19.30136 -10.47771  -1.24715  -0.90465  -0.87879
 Alpha  occ. eigenvalues --   -0.57968  -0.51453  -0.19589
 Alpha virt. eigenvalues --    0.00146   0.02492   0.04426   0.04707   0.14139
 Alpha virt. eigenvalues --    0.16316   0.17510   0.18138   0.21942   0.22002
 Alpha virt. eigenvalues --    0.28646   0.36654   0.50629   0.57474   0.61738

 Mulliken charges:
               1
     1  C    0.188100
     2  H   -0.130955
     3  H   -0.130955
     4  O    0.073810
 Sum of Mulliken charges =   0.00000

 Dipole moment (field-independent basis, Debye):
    X=              0.0000    Y=             -0.0000    Z=              1.6376  Tot=              1.6376
 Quadrupole moment (field-independent basis, Debye-Ang):
   XX=            -10.0290   YY=            -14.2759   ZZ=            -13.7322
   XY=             -0.0000   XZ=             -0.0000   YZ=              0.0000

 Normal termination of Gaussian 16 at Fri Sep 17 10:52:17 2021.
