 Gaussian 16, Revision C.01,
 Gaussian 16:  ES64L-G16RevC.01  3-Jul-2019

 ----------------------------------------
 #P wB97XD/6-311+G* NoSymm #P Field=X-184
 ----------------------------------------

 -------
 TitleMe
 -------
 Symbolic Z-matrix:
 Charge =  1 Multiplicity = 1

                          Input orientation:
 ---------------------------------------------------------------------
 Center     Atomic      Atomic             Coordinates (Angstroms)
 Number     Number       Type             X           Y           Z
 ---------------------------------------------------------------------
      1          6           0        0.519300    1.233000   -0.031900
      2          6           0        1.944500    1.269200   -0.036700
      3          6           0        2.620400    0.092800   -0.025000
      4          6           0       -0.196000    0.030100    0.001000
      5          1           0       -0.020700    2.174200   -0.043400
      6          1           0        2.482800    2.208900   -0.036100
      7          1           0       -1.277700    0.039900    0.011700
      8          7           0        4.092100    0.095900    0.036600
      9          8           0        4.639300   -1.021700    0.144600
     10          8           0        4.664900    1.198400   -0.023300
     11          6           0        0.494300   -1.167100    0.021000
     12          1           0       -0.032500   -2.114900    0.054500
     13          6           0        1.962900   -1.216500   -0.021100
     14          1           0        2.443600   -1.963100    0.615100
     15         35           0        2.173000   -1.949100   -1.906200
 ---------------------------------------------------------------------

 SCF Done:  E(RwB97XD) =  -3010.57116300     A.U. after   26 cycles

 Alpha  occ. eigenvalues -- -483.24886 -62.79884 -56.59592 -56.59009 -56.58989
 Alpha  occ. eigenvalues --  -19.34961 -19.34824 -14.74557 -10.52722 -10.52213
 Alpha  occ. eigenvalues --  -10.51903 -10.51516 -10.48747 -10.46543  -8.95671
 Alpha  occ. eigenvalues --   -6.78386  -6.76475  -6.76412  -2.88281  -2.87787
 Alpha  occ. eigenvalues --   -2.87736  -2.86208  -2.86206  -1.38651  -1.21473
 Alpha  occ. eigenvalues --   -1.16457  -1.07076  -1.05979  -0.98416  -0.93106
 Alpha  occ. eigenvalues --   -0.89625  -0.84380  -0.78442  -0.74190  -0.72722
 Alpha  occ. eigenvalues --   -0.71163  -0.70414  -0.69087  -0.65950  -0.64820
 Alpha  occ. eigenvalues --   -0.63293  -0.61486  -0.57922  -0.53415  -0.49643
 Alpha  occ. eigenvalues --   -0.48800  -0.45727  -0.44206  -0.44075
 Alpha virt. eigenvalues --   -0.24084  -0.13029  -0.11854  -0.09125  -0.07522
 Alpha virt. eigenvalues --   -0.05218  -0.04928  -0.03005  -0.01092  -0.00118
 Alpha virt. eigenvalues --    0.01042   0.01715   0.03288   0.04039   0.05385

 Mulliken charges:
               1
     1  C   -0.096549
     2  C    0.149412
     3  C    0.036188
     4  C   -0.302949
     5  H    0.296276
     6  H    0.373709
     7  H    0.235672
     8  N   -0.242947
     9  O    0.159791
    10  O    0.158782
    11  C   -0.307584
    12  H    0.310182
    13  C   -0.432944
    14  H    0.434281
    15  Br   0.228680
 Sum of Mulliken charges =   1.00000

 Dipole moment (field-independent basis, Debye):
    X=              8.1052    Y=             -1.1747    Z=             -1.0212  Tot=              8.2533
 Quadrupole moment (field-independent basis, Debye-Ang):
   XX=            -47.5892   YY=            -50.8866   ZZ=            -61.6785
   XY=             -4.1750   XZ=             -4.0297   YZ=              3.1014

 Normal termination of Gaussian 16 at Thu May  2 14:25:04 2024.
