 Gaussian 16, Revision C.01,
 Gaussian 16:  ES64L-G16RevC.01  3-Jul-2019

 ----------------------------------------
 #P wB97XD/6-311+G* NoSymm #P Field=X-291
 ----------------------------------------

 -------
 TitleMe
 -------
 Symbolic Z-matrix:
 Charge =  1 Multiplicity = 1

                          Input orientation:
 ---------------------------------------------------------------------
 Center     Atomic      Atomic             Coordinates (Angstroms)
 Number     Number       Type             X           Y           Z
 ---------------------------------------------------------------------
      1          6           0        0.519300    1.233000   -0.031900
      2          6           0        1.944500    1.269200   -0.036700
      3          6           0        2.620400    0.092800   -0.025000
      4          6           0       -0.196000    0.030100    0.001000
      5          1           0       -0.020700    2.174200   -0.043400
      6          1           0        2.482800    2.208900   -0.036100
      7          1           0       -1.277700    0.039900    0.011700
      8          7           0        4.092100    0.095900    0.036600
      9          8           0        4.639300   -1.021700    0.144600
     10          8           0        4.664900    1.198400   -0.023300
     11          6           0        0.494300   -1.167100    0.021000
     12          1           0       -0.032500   -2.114900    0.054500
     13          6           0        1.962900   -1.216500   -0.021100
     14          1           0        2.443600   -1.963100    0.615100
     15         35           0        2.173000   -1.949100   -1.906200
 ---------------------------------------------------------------------

 SCF Done:  E(RwB97XD) =  -3010.61215006     A.U. after   27 cycles

 Alpha  occ. eigenvalues -- -483.21419 -62.76400 -56.56114 -56.55530 -56.55501
 Alpha  occ. eigenvalues --  -19.28924 -19.28552 -14.68452 -10.49343 -10.49090
 Alpha  occ. eigenvalues --  -10.48893 -10.47900 -10.46563 -10.42909  -8.92175
 Alpha  occ. eigenvalues --   -6.74899  -6.72986  -6.72895  -2.84791  -2.84304
 Alpha  occ. eigenvalues --   -2.84231  -2.82701  -2.82699  -1.32478  -1.15226
 Alpha  occ. eigenvalues --   -1.13256  -1.03878  -1.02530  -0.94929  -0.89205
 Alpha  occ. eigenvalues --   -0.86423  -0.80935  -0.75667  -0.70950  -0.69389
 Alpha  occ. eigenvalues --   -0.66986  -0.65894  -0.64700  -0.61460  -0.59900
 Alpha  occ. eigenvalues --   -0.59419  -0.56974  -0.54848  -0.49788  -0.45947
 Alpha  occ. eigenvalues --   -0.45138  -0.39308  -0.37629  -0.37526
 Alpha virt. eigenvalues --   -0.20755  -0.15844  -0.09972  -0.09787  -0.06654
 Alpha virt. eigenvalues --   -0.05728  -0.03827  -0.00746  -0.00100   0.00099
 Alpha virt. eigenvalues --    0.01433   0.02915   0.04556   0.04988   0.06661

 Mulliken charges:
               1
     1  C   -0.094460
     2  C    0.108350
     3  C    0.109584
     4  C   -0.251929
     5  H    0.265792
     6  H    0.387331
     7  H    0.174306
     8  N   -0.239981
     9  O    0.202536
    10  O    0.214924
    11  C   -0.397708
    12  H    0.282728
    13  C   -0.467342
    14  H    0.447065
    15  Br   0.258805
 Sum of Mulliken charges =   1.00000

 Dipole moment (field-independent basis, Debye):
    X=             11.4226    Y=             -1.3000    Z=             -1.1699  Tot=             11.5557
 Quadrupole moment (field-independent basis, Debye-Ang):
   XX=            -35.3019   YY=            -50.8639   ZZ=            -61.5354
   XY=             -4.6966   XZ=             -4.8628   YZ=              3.4563

 Normal termination of Gaussian 16 at Thu May  2 14:26:27 2024.
