 Gaussian 16, Revision A.03,
 Gaussian 16:  ES64L-G16RevA.03 25-Dec-2016

 --------------------------------------------------------------------
 #p B3LYP/6-311+G** #p TD=(singlets,nstates=30)IOp(6/8=3) IOp(9/40=4)
 --------------------------------------------------------------------

 --------------------------------
 Scan Step 239, Bond Length 1.695
 --------------------------------
 Symbolic Z-matrix:
 Charge =  0 Multiplicity = 1

                         Standard orientation:
 ---------------------------------------------------------------------
 Center     Atomic      Atomic             Coordinates (Angstroms)
 Number     Number       Type             X           Y           Z
 ---------------------------------------------------------------------
      1          6           0        0.000000    0.000000   -0.773581
      2          1           0        0.000000    0.937260   -1.364931
      3          1           0       -0.000000   -0.937260   -1.364931
      4          8           0        0.000000   -0.000000    0.921419
 ---------------------------------------------------------------------

 SCF Done:  E(RB3LYP) =  -114.392910871     A.U. after   11 cycles

 Excitation energies and oscillator strengths:

 Excited State   1:      Singlet-A2     1.6598 eV  747.00 nm  f=0.0000  <S**2>=0.000
       3 -> 27         0.00096
       3 -> 38         0.00067
       3 -> 46         0.00335
       4 -> 27         0.00055
       4 -> 46        -0.00117
       5 ->  9         0.00464
       5 -> 13         0.00108
       5 -> 18         0.00234
       5 -> 23         0.00156
       5 -> 28         0.00195
       5 -> 37         0.00107
       5 -> 44         0.00028
       5 -> 52         0.00026
       6 -> 27        -0.00062
       6 -> 38        -0.00069
       6 -> 46         0.00117
       7 -> 12        -0.00105
       7 -> 16         0.00502
       7 -> 19        -0.00431
       7 -> 22        -0.00097
       7 -> 25         0.00078
       7 -> 29        -0.00170
       7 -> 33         0.00032
       7 -> 49         0.00012
       7 -> 50         0.00012
       7 -> 53         0.00042
       8 ->  9         0.70937
       8 -> 13        -0.01010
       8 -> 18         0.02133
       8 -> 23        -0.00223
       8 -> 28         0.01082
       8 -> 31         0.00140
       8 -> 37         0.00057
       8 -> 48        -0.00031
       8 -> 52         0.00192
       3 <- 27         0.00038
       3 <- 38         0.00042
       3 <- 46         0.00339
       4 <- 27         0.00099
       4 <- 38         0.00022
       4 <- 46        -0.00093
       5 <- 13        -0.00044
       5 <- 18        -0.00055
       5 <- 23         0.00022
       5 <- 28        -0.00038
       5 <- 31         0.00029
       5 <- 37         0.00061
       6 <- 38        -0.00055
       6 <- 46         0.00089
       7 <- 12         0.00113
       7 <- 16        -0.01036
       7 <- 19         0.00453
       7 <- 22         0.00648
       7 <- 25         0.00059
       7 <- 29         0.00546
       7 <- 33        -0.00041
       7 <- 36         0.00049
       7 <- 40        -0.00032
       7 <- 42         0.00016
       7 <- 49        -0.00045
       7 <- 53         0.00146
       8 <-  9        -0.06100
       8 <- 18        -0.00711
       8 <- 28        -0.00257
       8 <- 31        -0.00071
       8 <- 37        -0.00033
       8 <- 48         0.00011
       8 <- 52         0.00049
 This state for optimization and/or second-order correction.
 Total Energy, E(TD-HF/TD-DFT) =  -114.331915424
 Copying the excited state density for this state as the 1-particle RhoCI density.

 Excited State   2:      Singlet-A1     4.3245 eV  286.70 nm  f=0.0536  <S**2>=0.000
       3 -> 10        -0.01801
       3 -> 11        -0.00753
       3 -> 14         0.00610
       3 -> 15         0.00234
       3 -> 17        -0.00336
       3 -> 20        -0.00396
       3 -> 21        -0.00029
       3 -> 24         0.00154
       3 -> 26         0.00272
       3 -> 30        -0.00128
       3 -> 32         0.00276
       3 -> 34         0.00167
       3 -> 35        -0.00119
       3 -> 39         0.00065
       3 -> 43         0.00050
       3 -> 45         0.00050
       3 -> 47         0.00229
       3 -> 51         0.00128
       4 -> 10        -0.00595
       4 -> 11         0.01279
       4 -> 14         0.00352
       4 -> 15        -0.00923
       4 -> 17         0.00280
       4 -> 20         0.00379
       4 -> 21         0.00038
       4 -> 24        -0.00444
       4 -> 26         0.00437
       4 -> 30         0.00088
       4 -> 32        -0.00136
       4 -> 34        -0.00123
       4 -> 35         0.00038
       4 -> 41         0.00011
       4 -> 43        -0.00051
       4 -> 45        -0.00082
       4 -> 47        -0.00101
       4 -> 51        -0.00032
       4 -> 54         0.00013
       5 -> 12         0.01373
       5 -> 16         0.00682
       5 -> 19         0.00139
       5 -> 22         0.00749
       5 -> 25         0.00666
       5 -> 29         0.00013
       5 -> 33        -0.00279
       5 -> 36         0.00278
       5 -> 40        -0.00132
       5 -> 42         0.00077
       5 -> 49         0.00034
       5 -> 50        -0.00075
       6 -> 10         0.20602
       6 -> 11         0.07155
       6 -> 14        -0.07515
       6 -> 15        -0.04015
       6 -> 17        -0.01847
       6 -> 20        -0.00619
       6 -> 21         0.00978
       6 -> 24        -0.01124
       6 -> 26        -0.00515
       6 -> 30        -0.00676
       6 -> 32         0.00186
       6 -> 34         0.00141
       6 -> 35        -0.00015
       6 -> 39         0.00105
       6 -> 41        -0.00027
       6 -> 43         0.00086
       6 -> 45         0.00083
       6 -> 47         0.00103
       6 -> 51         0.00075
       6 -> 54        -0.00082
       7 ->  9         0.68104
       7 -> 13        -0.00327
       7 -> 18        -0.01488
       7 -> 23        -0.00131
       7 -> 28        -0.00015
       7 -> 31        -0.00318
       7 -> 37         0.00112
       7 -> 44        -0.00102
       7 -> 48         0.00026
       7 -> 52         0.00105
       8 -> 12        -0.00789
       8 -> 16         0.05402
       8 -> 19        -0.02201
       8 -> 22        -0.02010
       8 -> 25         0.00023
       8 -> 29        -0.01033
       8 -> 33         0.00158
       8 -> 36        -0.00168
       8 -> 40         0.00080
       8 -> 42        -0.00036
       8 -> 49         0.00041
       8 -> 50         0.00019
       8 -> 53        -0.00061
       3 <- 10        -0.01297
       3 <- 11        -0.00581
       3 <- 14         0.00477
       3 <- 15         0.00138
       3 <- 17        -0.00181
       3 <- 20        -0.00309
       3 <- 21        -0.00073
       3 <- 24         0.00082
       3 <- 26         0.00146
       3 <- 30        -0.00076
       3 <- 32         0.00249
       3 <- 34         0.00099
       3 <- 35        -0.00106
       3 <- 39         0.00060
       3 <- 43         0.00059
       3 <- 45         0.00068
       3 <- 47         0.00235
       3 <- 51         0.00127
       3 <- 54         0.00019
       4 <- 10        -0.00253
       4 <- 11         0.00851
       4 <- 14         0.00206
       4 <- 15        -0.00581
       4 <- 17         0.00153
       4 <- 20         0.00364
       4 <- 21         0.00024
       4 <- 24        -0.00318
       4 <- 26         0.00361
       4 <- 30         0.00017
       4 <- 32        -0.00160
       4 <- 34        -0.00106
       4 <- 35         0.00065
       4 <- 43        -0.00048
       4 <- 45        -0.00084
       4 <- 47        -0.00065
       4 <- 51        -0.00018
       4 <- 54         0.00010
       5 <- 12         0.00702
       5 <- 16         0.00388
       5 <- 19         0.00102
       5 <- 22         0.00496
       5 <- 25         0.00481
       5 <- 29         0.00022
       5 <- 33        -0.00224
       5 <- 36         0.00232
       5 <- 40        -0.00117
       5 <- 42         0.00065
       5 <- 49         0.00031
       5 <- 50        -0.00070
       6 <- 10         0.06593
       6 <- 11         0.02540
       6 <- 14        -0.03202
       6 <- 15        -0.01881
       6 <- 17        -0.00986
       6 <- 20        -0.00475
       6 <- 21         0.00610
       6 <- 24        -0.00711
       6 <- 26        -0.00293
       6 <- 30        -0.00473
       6 <- 32         0.00219
       6 <- 34         0.00166
       6 <- 35        -0.00056
       6 <- 39         0.00104
       6 <- 41        -0.00020
       6 <- 43         0.00072
       6 <- 45         0.00067
       6 <- 47         0.00061
       6 <- 51         0.00059
       6 <- 54        -0.00072
       7 <-  9        -0.12863
       7 <- 13         0.00570
       7 <- 18        -0.01293
       7 <- 23         0.00229
       7 <- 28        -0.00294
       7 <- 31        -0.00154
       7 <- 37         0.00048
       7 <- 44        -0.00069
       7 <- 48        -0.00029
       7 <- 52         0.00094
       8 <- 12        -0.00240
       8 <- 16         0.02232
       8 <- 19        -0.01079
       8 <- 22        -0.01189
       8 <- 29        -0.00781
       8 <- 33         0.00121
       8 <- 36        -0.00131
       8 <- 40         0.00065
       8 <- 42        -0.00029
       8 <- 49         0.00024
       8 <- 50         0.00016
       8 <- 53        -0.00057

 Excited State   3:      Singlet-B1     4.7469 eV  261.19 nm  f=0.0011  <S**2>=0.000
       3 ->  9        -0.02652
       3 -> 13         0.00131
       3 -> 18        -0.00416
       3 -> 23         0.00149
       3 -> 28        -0.00079
       3 -> 31        -0.00051
       3 -> 44         0.00025
       3 -> 48         0.00096
       3 -> 52         0.00088
       4 ->  9         0.01202
       4 -> 13        -0.00252
       4 -> 18         0.00016
       4 -> 23        -0.00226
       4 -> 28         0.00032
       4 -> 31        -0.00140
       4 -> 37        -0.00036
       4 -> 44         0.00012
       4 -> 48        -0.00090
       4 -> 52        -0.00047
       5 -> 27         0.00014
       5 -> 38         0.00197
       5 -> 46         0.00068
       6 ->  9         0.70082
       6 -> 13        -0.01858
       6 -> 18         0.01560
       6 -> 23        -0.01062
       6 -> 28         0.00381
       6 -> 31         0.00290
       6 -> 37        -0.00195
       6 -> 44        -0.00245
       6 -> 48         0.00383
       6 -> 52         0.00128
       7 -> 10         0.09120
       7 -> 11         0.02578
       7 -> 14        -0.02106
       7 -> 15        -0.00613
       7 -> 17        -0.00896
       7 -> 20         0.00331
       7 -> 21         0.00079
       7 -> 24        -0.00124
       7 -> 26        -0.00198
       7 -> 30        -0.00389
       7 -> 32        -0.00032
       7 -> 34         0.00092
       7 -> 35         0.00165
       7 -> 39         0.00017
       7 -> 41        -0.00035
       7 -> 43         0.00050
       7 -> 45         0.00014
       7 -> 47         0.00394
       7 -> 51         0.00120
       7 -> 54         0.00025
       8 -> 27         0.00027
       8 -> 46         0.00488
       3 <-  9        -0.00896
       3 <- 13        -0.00079
       3 <- 18        -0.00272
       3 <- 23        -0.00061
       3 <- 28        -0.00046
       3 <- 31        -0.00072
       3 <- 37         0.00013
       3 <- 44        -0.00018
       3 <- 48         0.00111
       3 <- 52         0.00073
       4 <-  9         0.00657
       4 <- 13        -0.00040
       4 <- 18         0.00171
       4 <- 23        -0.00074
       4 <- 28         0.00148
       4 <- 31        -0.00094
       4 <- 37        -0.00022
       4 <- 48        -0.00078
       4 <- 52        -0.00026
       5 <- 27        -0.00043
       5 <- 38         0.00165
       5 <- 46         0.00060
       6 <-  9        -0.02915
       6 <- 13         0.00179
       6 <- 18        -0.00368
       6 <- 23        -0.00018
       6 <- 28        -0.00361
       6 <- 31         0.00085
       6 <- 37        -0.00165
       6 <- 44        -0.00115
       6 <- 48         0.00343
       6 <- 52         0.00035
       7 <- 10        -0.02859
       7 <- 11        -0.01093
       7 <- 14         0.01481
       7 <- 15         0.01007
       7 <- 17         0.00212
       7 <- 20         0.00428
       7 <- 21        -0.00383
       7 <- 24         0.00434
       7 <- 26         0.00169
       7 <- 30         0.00148
       7 <- 32         0.00023
       7 <- 34         0.00108
       7 <- 35         0.00221
       7 <- 39         0.00051
       7 <- 43         0.00032
       7 <- 47         0.00364
       7 <- 51         0.00118
       7 <- 54         0.00100
       8 <- 27         0.00075
       8 <- 38         0.00019
       8 <- 46         0.00458

 Excited State   4:      Singlet-B2     5.0929 eV  243.44 nm  f=0.0069  <S**2>=0.000
       3 -> 12        -0.00145
       3 -> 16         0.00189
       3 -> 19        -0.00457
       3 -> 22         0.00079
       3 -> 25         0.00071
       3 -> 29        -0.00322
       3 -> 36         0.00200
       3 -> 40        -0.00174
       3 -> 42         0.00040
       3 -> 49        -0.00329
       3 -> 50         0.00021
       3 -> 53         0.00031
       4 -> 12         0.00046
       4 -> 16        -0.00223
       4 -> 19         0.00040
       4 -> 22         0.00254
       4 -> 25        -0.00127
       4 -> 29         0.00133
       4 -> 33        -0.00044
       4 -> 36         0.00051
       4 -> 40         0.00045
       4 -> 49         0.00060
       4 -> 50        -0.00012
       5 -> 10         0.01063
       5 -> 11         0.00354
       5 -> 14        -0.00778
       5 -> 15         0.00426
       5 -> 17        -0.00013
       5 -> 20         0.00216
       5 -> 21         0.00490
       5 -> 24         0.00175
       5 -> 26        -0.00124
       5 -> 30        -0.00197
       5 -> 32        -0.00195
       5 -> 34        -0.00081
       5 -> 35        -0.00020
       5 -> 39        -0.00095
       5 -> 41         0.00060
       5 -> 45         0.00011
       5 -> 47        -0.00069
       5 -> 51         0.00042
       5 -> 54        -0.00024
       6 -> 12         0.00287
       6 -> 16        -0.00223
       6 -> 19         0.00365
       6 -> 22        -0.00042
       6 -> 25        -0.00098
       6 -> 29        -0.00033
       6 -> 33         0.00012
       6 -> 36        -0.00183
       6 -> 40         0.00148
       6 -> 42        -0.00058
       6 -> 49         0.00159
       6 -> 53        -0.00042
       7 -> 27        -0.00066
       7 -> 38         0.00062
       7 -> 46         0.00367
       8 -> 10         0.68304
       8 -> 11         0.14767
       8 -> 14        -0.10112
       8 -> 15        -0.04037
       8 -> 17        -0.01587
       8 -> 20         0.00118
       8 -> 21         0.00752
       8 -> 24        -0.00686
       8 -> 26        -0.00542
       8 -> 30        -0.01128
       8 -> 32        -0.00371
       8 -> 34        -0.00185
       8 -> 35         0.00039
       8 -> 39        -0.00075
       8 -> 43        -0.00020
       8 -> 45         0.00126
       8 -> 47        -0.00451
       8 -> 51         0.00206
       8 -> 54        -0.00208
       3 <- 12        -0.00052
       3 <- 16         0.00057
       3 <- 19        -0.00217
       3 <- 22         0.00095
       3 <- 25         0.00063
       3 <- 29        -0.00128
       3 <- 36         0.00148
       3 <- 40        -0.00153
       3 <- 42         0.00032
       3 <- 49        -0.00337
       3 <- 50         0.00019
       3 <- 53         0.00085
       4 <- 16        -0.00211
       4 <- 22         0.00255
       4 <- 25        -0.00079
       4 <- 29         0.00133
       4 <- 33        -0.00049
       4 <- 36         0.00074
       4 <- 40         0.00017
       4 <- 49         0.00044
       5 <- 10        -0.00057
       5 <- 11        -0.00125
       5 <- 14        -0.00086
       5 <- 15         0.00342
       5 <- 17         0.00021
       5 <- 20         0.00071
       5 <- 21         0.00201
       5 <- 24         0.00219
       5 <- 26        -0.00033
       5 <- 30        -0.00045
       5 <- 32        -0.00024
       5 <- 34        -0.00015
       5 <- 39        -0.00036
       5 <- 41         0.00063
       5 <- 43         0.00010
       5 <- 45         0.00036
       5 <- 47        -0.00063
       5 <- 51         0.00023
       6 <- 12        -0.00024
       6 <- 16         0.00654
       6 <- 19        -0.00308
       6 <- 22        -0.00469
       6 <- 25        -0.00081
       6 <- 29        -0.00545
       6 <- 33         0.00044
       6 <- 36        -0.00178
       6 <- 40         0.00151
       6 <- 42        -0.00065
       6 <- 49         0.00188
       6 <- 53        -0.00125
       7 <- 27        -0.00065
       7 <- 38         0.00050
       7 <- 46         0.00308
       8 <- 10        -0.02588
       8 <- 11        -0.01018
       8 <- 14         0.01056
       8 <- 15         0.00308
       8 <- 17         0.00086
       8 <- 20        -0.00277
       8 <- 21        -0.00201
       8 <- 24         0.00159
       8 <- 26         0.00175
       8 <- 30        -0.00030
       8 <- 32         0.00292
       8 <- 34         0.00118
       8 <- 35        -0.00050
       8 <- 39         0.00147
       8 <- 41         0.00042
       8 <- 43         0.00047
       8 <- 45         0.00202
       8 <- 47        -0.00353
       8 <- 51         0.00137
       8 <- 54        -0.00055

 Excited State   5:      Singlet-B1     6.0773 eV  204.01 nm  f=0.0079  <S**2>=0.000
       3 ->  9        -0.01298
       3 -> 13         0.00075
       3 -> 18        -0.00304
       3 -> 23         0.00091
       3 -> 28        -0.00329
       3 -> 31        -0.00161
       3 -> 44         0.00047
       3 -> 48        -0.00240
       4 ->  9        -0.03378
       4 -> 13         0.00632
       4 -> 18         0.00137
       4 -> 23         0.00464
       4 -> 28         0.00184
       4 -> 31        -0.00012
       4 -> 37         0.00034
       4 -> 44        -0.00047
       4 -> 48         0.00061
       4 -> 52         0.00012
       5 -> 27        -0.00721
       5 -> 38        -0.00315
       5 -> 46         0.00048
       6 ->  9        -0.09465
       6 -> 13        -0.00258
       6 -> 18         0.00216
       6 -> 23        -0.00076
       6 -> 28         0.00334
       6 -> 31        -0.00365
       6 -> 37         0.00196
       6 -> 44         0.00014
       6 -> 48         0.00075
       6 -> 52        -0.00055
       7 -> 10         0.68135
       7 -> 11         0.12666
       7 -> 14        -0.09064
       7 -> 15        -0.04525
       7 -> 17        -0.00979
       7 -> 20        -0.00447
       7 -> 21         0.00379
       7 -> 24        -0.00992
       7 -> 26        -0.00734
       7 -> 30        -0.00679
       7 -> 32        -0.00186
       7 -> 34        -0.00399
       7 -> 35        -0.00181
       7 -> 39        -0.00066
       7 -> 43         0.00062
       7 -> 45         0.00090
       7 -> 47         0.00188
       7 -> 51         0.00095
       7 -> 54        -0.00141
       8 -> 27         0.00105
       8 -> 38         0.00029
       8 -> 46         0.00222
       3 <-  9        -0.00277
       3 <- 13         0.00065
       3 <- 18        -0.00123
       3 <- 23         0.00061
       3 <- 28        -0.00206
       3 <- 31        -0.00031
       3 <- 37        -0.00021
       3 <- 44         0.00020
       3 <- 48        -0.00258
       3 <- 52         0.00041
       4 <-  9        -0.01133
       4 <- 13         0.00248
       4 <- 18         0.00051
       4 <- 23         0.00236
       4 <- 28         0.00169
       4 <- 31        -0.00025
       4 <- 37         0.00041
       4 <- 44        -0.00069
       4 <- 48         0.00019
       4 <- 52         0.00010
       5 <- 27        -0.00483
       5 <- 38        -0.00242
       5 <- 46         0.00044
       6 <-  9        -0.02563
       6 <- 18        -0.00370
       6 <- 23         0.00032

 The electronic state is 1-A1.
 Alpha  occ. eigenvalues --  -19.17485 -10.33266  -0.91083  -0.70480  -0.48979
 Alpha  occ. eigenvalues --   -0.40472  -0.31971  -0.28874
 Alpha virt. eigenvalues --   -0.15744  -0.03409   0.00454   0.04070   0.06108
 Alpha virt. eigenvalues --    0.07439   0.12281   0.13941   0.18872   0.21238
 Alpha virt. eigenvalues --    0.23986   0.30283   0.38768   0.40397   0.50842

 Mulliken charges:
               1
     1  C   -0.077462
     2  H    0.186051
     3  H    0.186051
     4  O   -0.294639
 Sum of Mulliken charges =  -0.00000

 Dipole moment (field-independent basis, Debye):
    X=             -0.0000    Y=              0.0000    Z=             -3.9439  Tot=              3.9439
 Quadrupole moment (field-independent basis, Debye-Ang):
   XX=            -12.8821   YY=            -11.9521   ZZ=            -11.0326
   XY=              0.0000   XZ=              0.0000   YZ=              0.0000

 Normal termination of Gaussian 16 at Fri Sep 17 10:53:03 2021.
