 Gaussian 16, Revision A.03,
 Gaussian 16:  ES64L-G16RevA.03 25-Dec-2016

 --------------------------------------------------------------------
 #p B3LYP/6-311+G** #p TD=(singlets,nstates=30)IOp(6/8=3) IOp(9/40=4)
 --------------------------------------------------------------------

 ---------------------------------------------
 Scan Step 182, Bond Length 1.4100000000000001
 ---------------------------------------------
 Symbolic Z-matrix:
 Charge =  0 Multiplicity = 1

                         Standard orientation:
 ---------------------------------------------------------------------
 Center     Atomic      Atomic             Coordinates (Angstroms)
 Number     Number       Type             X           Y           Z
 ---------------------------------------------------------------------
      1          6           0        0.000000    0.000000   -0.631081
      2          1           0        0.000000    0.937260   -1.222431
      3          1           0       -0.000000   -0.937260   -1.222431
      4          8           0        0.000000   -0.000000    0.778919
 ---------------------------------------------------------------------

 SCF Done:  E(RB3LYP) =  -114.497523500     A.U. after    9 cycles

 Excitation energies and oscillator strengths:

 Excited State   1:      Singlet-A2     2.8121 eV  440.89 nm  f=0.0000  <S**2>=0.000
       3 -> 27         0.00176
       3 -> 38         0.00142
       3 -> 46         0.00302
       4 -> 27         0.00116
       4 -> 38        -0.00030
       4 -> 46        -0.00141
       5 ->  9         0.01468
       5 -> 13        -0.00010
       5 -> 18         0.00423
       5 -> 23         0.00128
       5 -> 28         0.00375
       5 -> 31        -0.00078
       5 -> 37         0.00227
       5 -> 44         0.00046
       5 -> 48         0.00011
       5 -> 52         0.00054
       6 -> 27        -0.00051
       6 -> 38        -0.00088
       6 -> 46         0.00164
       7 -> 12        -0.00069
       7 -> 15         0.00397
       7 -> 19        -0.00349
       7 -> 22        -0.00019
       7 -> 25         0.00126
       7 -> 30        -0.00121
       7 -> 33         0.00044
       7 -> 42        -0.00011
       7 -> 49         0.00016
       7 -> 50         0.00026
       7 -> 53         0.00048
       8 ->  9         0.70713
       8 -> 13        -0.02296
       8 -> 18         0.02218
       8 -> 23        -0.00658
       8 -> 28         0.01079
       8 -> 31        -0.00033
       8 -> 37         0.00057
       8 -> 48        -0.00029
       8 -> 52         0.00189
       3 <- 27         0.00101
       3 <- 38         0.00111
       3 <- 46         0.00309
       4 <- 27         0.00185
       4 <- 38         0.00019
       4 <- 46        -0.00116
       5 <-  9        -0.00056
       5 <- 13        -0.00068
       5 <- 18        -0.00093
       5 <- 23         0.00041
       5 <- 28        -0.00066
       5 <- 31         0.00055
       5 <- 37         0.00119
       5 <- 44         0.00016
       5 <- 48         0.00010
       5 <- 52         0.00015
       6 <- 27         0.00011
       6 <- 38        -0.00075
       6 <- 46         0.00128
       7 <- 12        -0.00021
       7 <- 15        -0.00898
       7 <- 19         0.00207
       7 <- 22         0.00743
       7 <- 25         0.00031
       7 <- 30         0.00459
       7 <- 33        -0.00092
       7 <- 35         0.00165
       7 <- 40         0.00077
       7 <- 49        -0.00018
       7 <- 50         0.00017
       7 <- 53         0.00142
       8 <-  9        -0.03609
       8 <- 13         0.00148
       8 <- 18        -0.00547
       8 <- 23         0.00058
       8 <- 28        -0.00177
       8 <- 31        -0.00053
       8 <- 37        -0.00084
       8 <- 52         0.00052
 This state for optimization and/or second-order correction.
 Total Energy, E(TD-HF/TD-DFT) =  -114.394180232
 Copying the excited state density for this state as the 1-particle RhoCI density.

 Excited State   2:      Singlet-B2     6.9393 eV  178.67 nm  f=0.0131  <S**2>=0.000
       3 -> 12         0.00183
       3 -> 15         0.00030
       3 -> 19         0.00170
       3 -> 22        -0.00033
       3 -> 25         0.00099
       3 -> 30         0.00035
       3 -> 33         0.00032
       3 -> 35        -0.00079
       3 -> 40        -0.00047
       3 -> 49         0.00047
       3 -> 53        -0.00013
       4 -> 12        -0.00173
       4 -> 15         0.00230
       4 -> 19         0.00151
       4 -> 22        -0.00318
       4 -> 25         0.00286
       4 -> 30         0.00014
       4 -> 35         0.00017
       4 -> 40         0.00042
       4 -> 42        -0.00012
       4 -> 49        -0.00011
       5 -> 10        -0.00838
       5 -> 11        -0.00325
       5 -> 14         0.00856
       5 -> 16         0.00040
       5 -> 17         0.00542
       5 -> 20         0.00127
       5 -> 21        -0.00547
       5 -> 24        -0.00124
       5 -> 26         0.00180
       5 -> 29         0.00103
       5 -> 32        -0.00093
       5 -> 34        -0.00100
       5 -> 36        -0.00029
       5 -> 41        -0.00063
       5 -> 43        -0.00034
       5 -> 47         0.00015
       5 -> 54         0.00013
       6 -> 12        -0.00204
       6 -> 15         0.00109
       6 -> 22        -0.00167
       6 -> 25         0.00074
       6 -> 30        -0.00033
       6 -> 33        -0.00037
       6 -> 35         0.00105
       6 -> 40         0.00037
       6 -> 49         0.00015
       6 -> 50        -0.00013
       7 -> 38        -0.00082
       7 -> 46        -0.00045
       8 -> 10         0.70472
       8 -> 11        -0.03890
       8 -> 14         0.03163
       8 -> 16         0.00418
       8 -> 17         0.01950
       8 -> 20         0.01562
       8 -> 21         0.00138
       8 -> 24         0.00055
       8 -> 26         0.00372
       8 -> 29         0.00221
       8 -> 32         0.00086
       8 -> 34         0.00018
       8 -> 39         0.00028
       8 -> 41        -0.00036
       8 -> 43         0.00061
       8 -> 45         0.00037
       8 -> 47         0.00032
       8 -> 51        -0.00045
       8 -> 54         0.00034
       3 <- 12         0.00041
       3 <- 15         0.00039
       3 <- 19         0.00068
       3 <- 22        -0.00061
       3 <- 25         0.00049
       3 <- 33         0.00027
       3 <- 35        -0.00068
       3 <- 40        -0.00045
       3 <- 49         0.00051
       3 <- 53        -0.00018
       4 <- 12         0.00076
       4 <- 15         0.00206
       4 <- 19         0.00143
       4 <- 22        -0.00212
       4 <- 25         0.00187
       4 <- 42        -0.00021
       4 <- 50        -0.00013
       5 <- 10         0.00209
       5 <- 11        -0.00030
       5 <- 14         0.00436
       5 <- 16        -0.00038
       5 <- 20         0.00034
       5 <- 21        -0.00134
       5 <- 24        -0.00239
       5 <- 26         0.00122
       5 <- 29         0.00017
       5 <- 32        -0.00083
       5 <- 34        -0.00076
       5 <- 36        -0.00018
       5 <- 41        -0.00047
       5 <- 43        -0.00030
       6 <- 12        -0.00021
       6 <- 15        -0.00092
       6 <- 19         0.00087
       6 <- 22         0.00022
       6 <- 25         0.00024
       6 <- 30         0.00085
       6 <- 33        -0.00043
       6 <- 35         0.00102
       6 <- 40         0.00033
       6 <- 50        -0.00016
       6 <- 53         0.00026
       7 <- 38        -0.00061
       7 <- 46        -0.00033
       8 <- 10        -0.00154
       8 <- 11        -0.00165
       8 <- 14        -0.00383
       8 <- 16        -0.00108
       8 <- 17        -0.00179
       8 <- 20        -0.00048
       8 <- 21         0.00139
       8 <- 24         0.00098
       8 <- 26        -0.00107
       8 <- 29        -0.00014
       8 <- 32         0.00043
       8 <- 36         0.00036
       8 <- 41        -0.00015
       8 <- 43         0.00028
       8 <- 45         0.00046
       8 <- 51        -0.00017

 Excited State   3:      Singlet-B1     6.9531 eV  178.31 nm  f=0.0015  <S**2>=0.000
       3 ->  9        -0.03286
       3 -> 13         0.00322
       3 -> 18        -0.00605
       3 -> 23         0.00288
       3 -> 28        -0.00174
       3 -> 31        -0.00049
       3 -> 44         0.00044
       3 -> 48         0.00057
       3 -> 52         0.00109
       4 ->  9         0.01581
       4 -> 13        -0.00271
       4 -> 18         0.00067
       4 -> 23        -0.00249
       4 -> 28         0.00018
       4 -> 31        -0.00198
       4 -> 37        -0.00046
       4 -> 48        -0.00145
       4 -> 52        -0.00083
       5 -> 27        -0.00111
       5 -> 38         0.00198
       5 -> 46         0.00185
       6 ->  9         0.70584
       6 -> 13        -0.02629
       6 -> 18         0.01995
       6 -> 23        -0.01190
       6 -> 28         0.00603
       6 -> 31         0.00394
       6 -> 37        -0.00254
       6 -> 44        -0.00340
       6 -> 48         0.00498
       6 -> 52         0.00178
       7 -> 10        -0.00216
       7 -> 11        -0.00294
       7 -> 14        -0.00298
       7 -> 16        -0.01139
       7 -> 17         0.00023
       7 -> 20         0.00193
       7 -> 21        -0.00171
       7 -> 24         0.00086
       7 -> 29        -0.00458
       7 -> 32        -0.00115
       7 -> 34         0.00024
       7 -> 36        -0.00166
       7 -> 39         0.00014
       7 -> 41        -0.00135
       7 -> 43         0.00081
       7 -> 45         0.00410
       7 -> 47         0.00297
       7 -> 51         0.00114
       7 -> 54         0.00056
       8 -> 27         0.00162
       8 -> 38         0.00053
       8 -> 46         0.00638
       3 <-  9        -0.01057
       3 <- 18        -0.00326
       3 <- 28        -0.00113
       3 <- 31        -0.00046
       3 <- 44        -0.00022
       3 <- 48         0.00081
       3 <- 52         0.00087
       4 <-  9         0.00619
       4 <- 18         0.00238
       4 <- 23        -0.00032
       4 <- 28         0.00213
       4 <- 31        -0.00162
       4 <- 44         0.00019
       4 <- 48        -0.00125
       4 <- 52        -0.00046
       5 <- 27        -0.00138
       5 <- 38         0.00153
       5 <- 46         0.00165
       6 <-  9        -0.02229
       6 <- 13         0.00219
       6 <- 18        -0.00301
       6 <- 28        -0.00277
       6 <- 31         0.00231
       6 <- 37        -0.00239
       6 <- 44        -0.00207
       6 <- 48         0.00440
       6 <- 52         0.00066
       7 <- 10         0.00321
       7 <- 11         0.00551
       7 <- 14         0.00294
       7 <- 16         0.00426
       7 <- 17         0.01460
       7 <- 20         0.00675
       7 <- 21        -0.00611
       7 <- 24         0.00548
       7 <- 26         0.00275
       7 <- 29         0.00055
       7 <- 32        -0.00097
       7 <- 34         0.00129
       7 <- 36        -0.00265
       7 <- 39         0.00039
       7 <- 41        -0.00088
       7 <- 43         0.00075
       7 <- 45         0.00377
       7 <- 47         0.00253
       7 <- 51         0.00085
       7 <- 54         0.00108
       8 <- 27         0.00178
       8 <- 38         0.00065
       8 <- 46         0.00575

 Excited State   4:      Singlet-A1     6.9711 eV  177.86 nm  f=0.1267  <S**2>=0.000
       3 -> 10         0.00663
       3 -> 11         0.01556
       3 -> 14         0.00884
       3 -> 16         0.00265
       3 -> 17         0.02334
       3 -> 20        -0.00073
       3 -> 21        -0.00483
       3 -> 24         0.00556
       3 -> 26         0.00763
       3 -> 29         0.00046
       3 -> 32         0.00297
       3 -> 34        -0.00385
       3 -> 36        -0.00136
       3 -> 39         0.00131
       3 -> 41         0.00016
       3 -> 43         0.00057
       3 -> 45         0.00171
       3 -> 47         0.00115
       3 -> 51         0.00036
       3 -> 54         0.00030
       4 -> 10         0.02426
       4 -> 11        -0.01068
       4 -> 14         0.01472
       4 -> 16         0.00106
       4 -> 17        -0.00712
       4 -> 20         0.00924
       4 -> 24        -0.00726
       4 -> 26         0.00616
       4 -> 29         0.00104
       4 -> 32        -0.00122
       4 -> 34         0.00292
       4 -> 36         0.00057
       4 -> 39        -0.00021
       4 -> 41         0.00011
       4 -> 43        -0.00015
       4 -> 45        -0.00051
       4 -> 47        -0.00164
       4 -> 51        -0.00015
       5 -> 12         0.02864
       5 -> 15         0.02690
       5 -> 19         0.00208
       5 -> 22         0.00368
       5 -> 25         0.01262
       5 -> 30        -0.00240
       5 -> 33        -0.00333
       5 -> 35         0.00202
       5 -> 40         0.00165
       5 -> 42         0.00069
       5 -> 49         0.00062
       5 -> 50        -0.00049
       5 -> 53        -0.00030
       6 -> 10        -0.04319
       6 -> 11        -0.07138
       6 -> 14        -0.03344
       6 -> 16        -0.05247
       6 -> 17        -0.10431
       6 -> 20        -0.03203
       6 -> 21         0.02687
       6 -> 24        -0.02355
       6 -> 26        -0.01222
       6 -> 29        -0.01070
       6 -> 32        -0.00014
       6 -> 34        -0.00281
       6 -> 36         0.00202
       6 -> 39         0.00024
       6 -> 41        -0.00088
       6 -> 43         0.00049
       6 -> 45         0.00048
       6 -> 47         0.00178
       6 -> 51         0.00078
       6 -> 54        -0.00031
       7 ->  9         0.68493
       7 -> 13         0.01874
       7 -> 18        -0.02649
       7 -> 23         0.00550
       7 -> 28        -0.00462
       7 -> 31        -0.00194
       7 -> 37         0.00021
       7 -> 44        -0.00093
       7 -> 48         0.00060
       7 -> 52         0.00101
       8 -> 12         0.00464
       8 -> 15         0.12276
       8 -> 19        -0.02697
       8 -> 22        -0.04457
       8 -> 25         0.00288
       8 -> 30        -0.01507
       8 -> 33         0.00503
       8 -> 35        -0.00629
       8 -> 40        -0.00258
       8 -> 42        -0.00036
       8 -> 49         0.00068
       8 -> 50         0.00036
       8 -> 53        -0.00097
       3 <- 10         0.00362
       3 <- 11         0.00938
       3 <- 14         0.00612
       3 <- 16         0.00238
       3 <- 17         0.01500
       3 <- 20        -0.00024
       3 <- 21        -0.00417
       3 <- 24         0.00379
       3 <- 26         0.00491
       3 <- 29         0.00042
       3 <- 32         0.00268
       3 <- 34        -0.00251
       3 <- 36        -0.00091
       3 <- 39         0.00101
       3 <- 41         0.00014
       3 <- 43         0.00058
       3 <- 45         0.00172
       3 <- 47         0.00141
       3 <- 51         0.00034
       3 <- 54         0.00034
       4 <- 10         0.01007
       4 <- 11        -0.00519
       4 <- 14         0.00645
       4 <- 17        -0.00406
       4 <- 20         0.00581
       4 <- 21         0.00018
       4 <- 24        -0.00435
       4 <- 26         0.00434
       4 <- 29         0.00015
       4 <- 32        -0.00161
       4 <- 34         0.00238
       4 <- 36         0.00030
       4 <- 39        -0.00023
       4 <- 43        -0.00015
       4 <- 47        -0.00146
       5 <- 12         0.00899
       5 <- 15         0.01056
       5 <- 19         0.00123
       5 <- 22         0.00191
       5 <- 25         0.00731
       5 <- 30        -0.00138
       5 <- 33        -0.00239
       5 <- 35         0.00160
       5 <- 40         0.00138
       5 <- 42         0.00054
       5 <- 49         0.00052
       5 <- 50        -0.00044
       5 <- 53        -0.00026
       6 <- 10        -0.00926
       6 <- 11        -0.01646
       6 <- 14        -0.01025
       6 <- 16        -0.01920
       6 <- 17        -0.03837
       6 <- 20        -0.01468
       6 <- 21         0.01322
       6 <- 24        -0.01281
       6 <- 26        -0.00710
       6 <- 29        -0.00670
       6 <- 32         0.00027
       6 <- 34        -0.00262
       6 <- 36         0.00137
       6 <- 39         0.00042
       6 <- 41        -0.00058
       6 <- 43         0.00042
       6 <- 47         0.00141
       6 <- 51         0.00057
       6 <- 54        -0.00023
       7 <-  9        -0.10468
       7 <- 13         0.01169
       7 <- 18        -0.01482
       7 <- 23         0.00676
       7 <- 28        -0.00575
       7 <- 31        -0.00042
       7 <- 37        -0.00016
       7 <- 44        -0.00040
       7 <- 52         0.00083
       8 <- 12         0.00019
       8 <- 15         0.02709
       8 <- 19        -0.00782
       8 <- 22        -0.01907
       8 <- 25         0.00090
       8 <- 30        -0.00958
       8 <- 33         0.00342
       8 <- 35        -0.00442
       8 <- 40        -0.00200
       8 <- 42        -0.00028
       8 <- 49         0.00046
       8 <- 50         0.00028
       8 <- 53        -0.00086

 Excited State   5:      Singlet-B2     7.5299 eV  164.66 nm  f=0.0268  <S**2>=0.000
       3 -> 12        -0.00040
       3 -> 15        -0.00161
       3 -> 19         0.00190
       3 -> 22         0.00055
       3 -> 25        -0.00033
       3 -> 30         0.00333
       3 -> 33         0.00020
       3 -> 35        -0.00109
       3 -> 40        -0.00087
       3 -> 49         0.00105
       3 -> 50        -0.00016
       4 -> 12         0.00188
       4 -> 15         0.00093
       4 -> 19         0.00068
       4 -> 22        -0.00144
       4 -> 25         0.00212
       4 -> 30        -0.00175
       4 -> 33         0.00048
       4 -> 35        -0.00065
       4 -> 40         0.00011
       4 -> 49         0.00013
       5 -> 11         0.00092
       5 -> 14         0.01112
       5 -> 16        -0.00537
       5 -> 17        -0.00048
       5 -> 20        -0.00378
       5 -> 21        -0.00400
       5 -> 24        -0.00061
       5 -> 26         0.00199
       5 -> 29         0.00148
       5 -> 32         0.00062
       5 -> 34        -0.00053
       5 -> 36        -0.00071
       5 -> 39         0.00072
       5 -> 41        -0.00054
       5 -> 43         0.00029
       5 -> 45         0.00092
       5 -> 47         0.00034
       5 -> 51        -0.00050
       6 -> 12        -0.00212
       6 -> 15        -0.00055
       6 -> 19        -0.00092
       6 -> 22         0.00086
       6 -> 25         0.00015
       6 -> 30         0.00132
       6 -> 33        -0.00049
       6 -> 35         0.00151
       6 -> 40         0.00138
       6 -> 42         0.00015
       6 -> 49        -0.00164
       6 -> 50         0.00017
       6 -> 53         0.00016
       7 -> 27         0.00063
       7 -> 38        -0.00065
       7 -> 46        -0.00272
       8 -> 10         0.03666
       8 -> 11         0.70341
       8 -> 14         0.01483
       8 -> 16         0.02073
       8 -> 17         0.05477
       8 -> 20        -0.01065
       8 -> 21        -0.00018
       8 -> 24         0.00292
       8 -> 26         0.00070
       8 -> 29         0.00438
       8 -> 32         0.00027
       8 -> 34        -0.00040
       8 -> 36        -0.00075
       8 -> 39        -0.00022
       8 -> 41        -0.00079
       8 -> 43         0.00039
       8 -> 45         0.00336
       8 -> 47         0.00067
       8 -> 51        -0.00155
       8 -> 54         0.00028
       3 <- 12         0.00032
       3 <- 15        -0.00056
       3 <- 19         0.00131
       3 <- 30         0.00165
       3 <- 33         0.00029
       3 <- 35        -0.00098
       3 <- 40        -0.00080
       3 <- 49         0.00102
       3 <- 50        -0.00011
       3 <- 53        -0.00048
       4 <- 12         0.00012
       4 <- 15         0.00097
       4 <- 22        -0.00124
       4 <- 25         0.00094
       4 <- 30        -0.00108
       4 <- 33         0.00048
       4 <- 35        -0.00048
       5 <- 10         0.00077

 The electronic state is 1-A1.
 Alpha  occ. eigenvalues --  -19.16367 -10.30820  -0.98338  -0.67506  -0.48987
 Alpha  occ. eigenvalues --   -0.43872  -0.36157  -0.28960
 Alpha virt. eigenvalues --   -0.11272   0.00094   0.03126   0.04153   0.06210
 Alpha virt. eigenvalues --    0.11813   0.15805   0.18868   0.19641   0.21732
 Alpha virt. eigenvalues --    0.23757   0.30122   0.40805   0.43215   0.50965

 Mulliken charges:
               1
     1  C   -0.024359
     2  H    0.155611
     3  H    0.155611
     4  O   -0.286862
 Sum of Mulliken charges =  -0.00000

 Dipole moment (field-independent basis, Debye):
    X=             -0.0000    Y=             -0.0000    Z=             -3.2712  Tot=              3.2712
 Quadrupole moment (field-independent basis, Debye-Ang):
   XX=            -12.3265   YY=            -11.7700   ZZ=            -11.8676
   XY=              0.0000   XZ=              0.0000   YZ=             -0.0000

 Normal termination of Gaussian 16 at Fri Sep 17 10:52:51 2021.
