 Gaussian 16, Revision C.01,
 Gaussian 16:  ES64L-G16RevC.01  3-Jul-2019

 ---------------------------------------
 #P wB97XD/6-311+G* NoSymm #P Field=X+87
 ---------------------------------------

 -------
 TitleMe
 -------
 Symbolic Z-matrix:
 Charge =  1 Multiplicity = 1

                          Input orientation:
 ---------------------------------------------------------------------
 Center     Atomic      Atomic             Coordinates (Angstroms)
 Number     Number       Type             X           Y           Z
 ---------------------------------------------------------------------
      1          6           0        0.519300    1.233000   -0.031900
      2          6           0        1.944500    1.269200   -0.036700
      3          6           0        2.620400    0.092800   -0.025000
      4          6           0       -0.196000    0.030100    0.001000
      5          1           0       -0.020700    2.174200   -0.043400
      6          1           0        2.482800    2.208900   -0.036100
      7          1           0       -1.277700    0.039900    0.011700
      8          7           0        4.092100    0.095900    0.036600
      9          8           0        4.639300   -1.021700    0.144600
     10          8           0        4.664900    1.198400   -0.023300
     11          6           0        0.494300   -1.167100    0.021000
     12          1           0       -0.032500   -2.114900    0.054500
     13          6           0        1.962900   -1.216500   -0.021100
     14          1           0        2.443600   -1.963100    0.615100
     15         35           0        2.173000   -1.949100   -1.906200
 ---------------------------------------------------------------------

 SCF Done:  E(RwB97XD) =  -3010.52661218     A.U. after   19 cycles

 Alpha  occ. eigenvalues -- -483.34060 -62.89088 -56.68777 -56.68213 -56.68204
 Alpha  occ. eigenvalues --  -19.51645 -19.51584 -14.90911 -10.62261 -10.61035
 Alpha  occ. eigenvalues --  -10.59624 -10.59150 -10.56697 -10.54595  -9.04898
 Alpha  occ. eigenvalues --   -6.87566  -6.85714  -6.85688  -2.97472  -2.96984
 Alpha  occ. eigenvalues --   -2.96962  -2.95481  -2.95480  -1.55270  -1.38288
 Alpha  occ. eigenvalues --   -1.25323  -1.15734  -1.15395  -1.07746  -1.03638
 Alpha  occ. eigenvalues --   -0.97989  -0.93571  -0.89148  -0.85533  -0.84116
 Alpha  occ. eigenvalues --   -0.83530  -0.80881  -0.80170  -0.78482  -0.74697
 Alpha  occ. eigenvalues --   -0.70625  -0.70114  -0.65925  -0.63151  -0.62462
 Alpha  occ. eigenvalues --   -0.62070  -0.61441  -0.59265  -0.57709
 Alpha virt. eigenvalues --   -0.32935  -0.24541  -0.18652  -0.16206  -0.11305
 Alpha virt. eigenvalues --   -0.08656  -0.08028  -0.07590  -0.06503  -0.05372
 Alpha virt. eigenvalues --   -0.04644  -0.04549  -0.04144  -0.03197  -0.02633

 Mulliken charges:
               1
     1  C   -0.120288
     2  C    0.185030
     3  C   -0.120523
     4  C   -0.327309
     5  H    0.367344
     6  H    0.339613
     7  H    0.370863
     8  N   -0.237513
     9  O    0.054515
    10  O    0.027905
    11  C   -0.171781
    12  H    0.378093
    13  C   -0.312130
    14  H    0.400530
    15  Br   0.165649
 Sum of Mulliken charges =   1.00000

 Dipole moment (field-independent basis, Debye):
    X=              0.3097    Y=             -0.7785    Z=             -0.6293  Tot=              1.0478
 Quadrupole moment (field-independent basis, Debye-Ang):
   XX=            -77.6392   YY=            -51.3160   ZZ=            -62.4410
   XY=             -2.3464   XZ=             -1.8751   YZ=              2.1688

 Normal termination of Gaussian 16 at Thu May  2 14:18:25 2024.
