 Gaussian 16, Revision C.01,
 Gaussian 16:  ES64L-G16RevC.01  3-Jul-2019

 ----------------------------------------
 #P wB97XD/6-311+G* NoSymm #P Field=X-175
 ----------------------------------------

 -------
 TitleMe
 -------
 Symbolic Z-matrix:
 Charge =  1 Multiplicity = 1

                          Input orientation:
 ---------------------------------------------------------------------
 Center     Atomic      Atomic             Coordinates (Angstroms)
 Number     Number       Type             X           Y           Z
 ---------------------------------------------------------------------
      1          6           0        0.519300    1.233000   -0.031900
      2          6           0        1.944500    1.269200   -0.036700
      3          6           0        2.620400    0.092800   -0.025000
      4          6           0       -0.196000    0.030100    0.001000
      5          1           0       -0.020700    2.174200   -0.043400
      6          1           0        2.482800    2.208900   -0.036100
      7          1           0       -1.277700    0.039900    0.011700
      8          7           0        4.092100    0.095900    0.036600
      9          8           0        4.639300   -1.021700    0.144600
     10          8           0        4.664900    1.198400   -0.023300
     11          6           0        0.494300   -1.167100    0.021000
     12          1           0       -0.032500   -2.114900    0.054500
     13          6           0        1.962900   -1.216500   -0.021100
     14          1           0        2.443600   -1.963100    0.615100
     15         35           0        2.173000   -1.949100   -1.906200
 ---------------------------------------------------------------------

 SCF Done:  E(RwB97XD) =  -3010.56834045     A.U. after   25 cycles

 Alpha  occ. eigenvalues -- -483.25179 -62.80178 -56.59886 -56.59304 -56.59284
 Alpha  occ. eigenvalues --  -19.35493 -19.35368 -14.75086 -10.53029 -10.52453
 Alpha  occ. eigenvalues --  -10.52150 -10.51823 -10.48932 -10.46858  -8.95966
 Alpha  occ. eigenvalues --   -6.78681  -6.76770  -6.76710  -2.88575  -2.88081
 Alpha  occ. eigenvalues --   -2.88032  -2.86504  -2.86503  -1.39187  -1.22016
 Alpha  occ. eigenvalues --   -1.16731  -1.07347  -1.06277  -0.98713  -0.93444
 Alpha  occ. eigenvalues --   -0.89895  -0.84671  -0.78693  -0.74468  -0.73009
 Alpha  occ. eigenvalues --   -0.71621  -0.70767  -0.69448  -0.66315  -0.65308
 Alpha  occ. eigenvalues --   -0.63568  -0.61805  -0.58177  -0.53720  -0.49955
 Alpha  occ. eigenvalues --   -0.49114  -0.46280  -0.44777  -0.44634
 Alpha virt. eigenvalues --   -0.24365  -0.13328  -0.11568  -0.09399  -0.07350
 Alpha virt. eigenvalues --   -0.05591  -0.04838  -0.03017  -0.01209  -0.00152
 Alpha virt. eigenvalues --    0.00963   0.01599   0.03091   0.03896   0.05244

 Mulliken charges:
               1
     1  C   -0.096893
     2  C    0.152069
     3  C    0.030309
     4  C   -0.305983
     5  H    0.298768
     6  H    0.372548
     7  H    0.240633
     8  N   -0.243002
     9  O    0.156279
    10  O    0.154345
    11  C   -0.301056
    12  H    0.312481
    13  C   -0.429890
    14  H    0.433161
    15  Br   0.226230
 Sum of Mulliken charges =   1.00000

 Dipole moment (field-independent basis, Debye):
    X=              7.8377    Y=             -1.1622    Z=             -1.0080  Tot=              7.9872
 Quadrupole moment (field-independent basis, Debye-Ang):
   XX=            -48.5861   YY=            -50.8942   ZZ=            -61.6973
   XY=             -4.1218   XZ=             -3.9579   YZ=              3.0699

 Normal termination of Gaussian 16 at Thu May  2 14:24:34 2024.
