 Gaussian 16, Revision C.01,
 Gaussian 16:  ES64L-G16RevC.01  3-Jul-2019

 ----------------------------------------
 #P wB97XD/6-311+G* NoSymm #P Field=Y-165
 ----------------------------------------

 -------
 TitleMe
 -------
 Symbolic Z-matrix:
 Charge =  1 Multiplicity = 1

                          Input orientation:
 ---------------------------------------------------------------------
 Center     Atomic      Atomic             Coordinates (Angstroms)
 Number     Number       Type             X           Y           Z
 ---------------------------------------------------------------------
      1          6           0        0.029500    1.339700    0.068200
      2          6           0        1.434800    1.286700    0.006400
      3          6           0        2.111800    0.051100   -0.005400
      4          6           0        1.445100   -1.137200    0.031200
      5          6           0       -0.687900    0.168200    0.110000
      6          1           0       -0.471300    2.298400    0.078100
      7          1           0        2.027300    2.196500   -0.032200
      8          1           0        1.989700   -2.076400    0.023200
      9          1           0       -1.771600    0.180400    0.158200
     10          7           0        3.586400    0.051000   -0.067500
     11          8           0        4.147100   -1.059700   -0.088100
     12          8           0        4.145000    1.163900   -0.090100
     13          6           0       -0.023600   -1.145800    0.083500
     14          1           0       -0.436700   -1.872500    0.788900
     15         35           0       -0.535900   -1.869700   -1.740800
 ---------------------------------------------------------------------

 SCF Done:  E(RwB97XD) =  -3010.54692646     A.U. after   21 cycles

 Alpha  occ. eigenvalues -- -483.33875 -62.88929 -56.68581 -56.68066 -56.68064
 Alpha  occ. eigenvalues --  -19.46429 -19.46042 -14.85680 -10.60479 -10.57972
 Alpha  occ. eigenvalues --  -10.57898 -10.57241 -10.56694 -10.52148  -9.04756
 Alpha  occ. eigenvalues --   -6.87320  -6.85622  -6.85615  -2.97252  -2.96797
 Alpha  occ. eigenvalues --   -2.96789  -2.95430  -2.95430  -1.49978  -1.32946
 Alpha  occ. eigenvalues --   -1.23410  -1.15284  -1.11902  -1.06378  -1.01358
 Alpha  occ. eigenvalues --   -0.96158  -0.91374  -0.85634  -0.81243  -0.80950
 Alpha  occ. eigenvalues --   -0.80387  -0.79231  -0.76392  -0.75996  -0.73410
 Alpha  occ. eigenvalues --   -0.69443  -0.67390  -0.64226  -0.61694  -0.59587
 Alpha  occ. eigenvalues --   -0.57505  -0.56941  -0.56425  -0.55805
 Alpha virt. eigenvalues --   -0.30496  -0.21732  -0.17524  -0.15646  -0.13532
 Alpha virt. eigenvalues --   -0.11025  -0.10867  -0.07779  -0.06521  -0.06046
 Alpha virt. eigenvalues --   -0.05024  -0.04462  -0.02917  -0.02662  -0.01485

 Mulliken charges:
               1
     1  C   -0.540499
     2  C    0.444745
     3  C   -0.639773
     4  C    0.265557
     5  C    0.045854
     6  H    0.398755
     7  H    0.423291
     8  H    0.316206
     9  H    0.355993
    10  N   -0.109508
    11  O   -0.051296
    12  O    0.123775
    13  C   -0.460894
    14  H    0.361287
    15  Br   0.066507
 Sum of Mulliken charges =   1.00000

 Dipole moment (field-independent basis, Debye):
    X=             -0.2375    Y=              4.1600    Z=              0.5856  Tot=              4.2077
 Quadrupole moment (field-independent basis, Debye-Ang):
   XX=            -70.2735   YY=            -54.4961   ZZ=            -64.0549
   XY=              6.6066   XZ=              0.5841   YZ=             -0.5165

 Normal termination of Gaussian 16 at Wed May  1 15:06:47 2024.
