 Gaussian 16, Revision C.01,
 Gaussian 16:  ES64L-G16RevC.01  3-Jul-2019

 ----------------------------------------
 #P wB97XD/6-311+G* NoSymm #P Field=X+145
 ----------------------------------------

 -------
 TitleMe
 -------
 Symbolic Z-matrix:
 Charge =  1 Multiplicity = 1

                          Input orientation:
 ---------------------------------------------------------------------
 Center     Atomic      Atomic             Coordinates (Angstroms)
 Number     Number       Type             X           Y           Z
 ---------------------------------------------------------------------
      1          6           0        0.519300    1.233000   -0.031900
      2          6           0        1.944500    1.269200   -0.036700
      3          6           0        2.620400    0.092800   -0.025000
      4          6           0       -0.196000    0.030100    0.001000
      5          1           0       -0.020700    2.174200   -0.043400
      6          1           0        2.482800    2.208900   -0.036100
      7          1           0       -1.277700    0.039900    0.011700
      8          7           0        4.092100    0.095900    0.036600
      9          8           0        4.639300   -1.021700    0.144600
     10          8           0        4.664900    1.198400   -0.023300
     11          6           0        0.494300   -1.167100    0.021000
     12          1           0       -0.032500   -2.114900    0.054500
     13          6           0        1.962900   -1.216500   -0.021100
     14          1           0        2.443600   -1.963100    0.615100
     15         35           0        2.173000   -1.949100   -1.906200
 ---------------------------------------------------------------------

 SCF Done:  E(RwB97XD) =  -3010.52779711     A.U. after   19 cycles

 Alpha  occ. eigenvalues -- -483.36141 -62.91173 -56.70857 -56.70300 -56.70291
 Alpha  occ. eigenvalues --  -19.55300 -19.55210 -14.94455 -10.64407 -10.63159
 Alpha  occ. eigenvalues --  -10.61288 -10.60674 -10.59061 -10.55953  -9.06986
 Alpha  occ. eigenvalues --   -6.89641  -6.87809  -6.87784  -2.99551  -2.99067
 Alpha  occ. eigenvalues --   -2.99046  -2.97580  -2.97580  -1.58889  -1.41942
 Alpha  occ. eigenvalues --   -1.27417  -1.17950  -1.17350  -1.09859  -1.05942
 Alpha  occ. eigenvalues --   -0.99865  -0.95814  -0.92168  -0.88961  -0.87342
 Alpha  occ. eigenvalues --   -0.85681  -0.83194  -0.81922  -0.80532  -0.76634
 Alpha  occ. eigenvalues --   -0.72083  -0.71814  -0.67872  -0.66604  -0.66007
 Alpha  occ. eigenvalues --   -0.65162  -0.64431  -0.61427  -0.59788
 Alpha virt. eigenvalues --   -0.35026  -0.27512  -0.20746  -0.18310  -0.14556
 Alpha virt. eigenvalues --   -0.11698  -0.11154  -0.10516  -0.09188  -0.07465
 Alpha virt. eigenvalues --   -0.07082  -0.06272  -0.06198  -0.05463  -0.04612

 Mulliken charges:
               1
     1  C   -0.129009
     2  C    0.180861
     3  C   -0.148344
     4  C   -0.317116
     5  H    0.381587
     6  H    0.332828
     7  H    0.396165
     8  N   -0.236483
     9  O    0.031737
    10  O   -0.000261
    11  C   -0.156809
    12  H    0.392185
    13  C   -0.276424
    14  H    0.393630
    15  Br   0.155454
 Sum of Mulliken charges =   1.00000

 Dipole moment (field-independent basis, Debye):
    X=             -1.3517    Y=             -0.6981    Z=             -0.5530  Tot=              1.6187
 Quadrupole moment (field-independent basis, Debye-Ang):
   XX=            -84.3848   YY=            -51.4470   ZZ=            -62.6342
   XY=             -1.9203   XZ=             -1.4243   YZ=              1.9871

 Normal termination of Gaussian 16 at Thu May  2 14:17:58 2024.
