 Gaussian 16, Revision A.03,
 Gaussian 16:  ES64L-G16RevA.03 25-Dec-2016

 --------------------------------------------------------------------
 #p B3LYP/6-311+G** #p TD=(singlets,nstates=30)IOp(6/8=3) IOp(9/40=4)
 --------------------------------------------------------------------

 --------------------------------
 Scan Step 121, Bond Length 1.105
 --------------------------------
 Symbolic Z-matrix:
 Charge =  0 Multiplicity = 1

                         Standard orientation:
 ---------------------------------------------------------------------
 Center     Atomic      Atomic             Coordinates (Angstroms)
 Number     Number       Type             X           Y           Z
 ---------------------------------------------------------------------
      1          6           0        0.000000   -0.000000   -0.478581
      2          1           0        0.000000    0.937260   -1.069931
      3          1           0       -0.000000   -0.937260   -1.069931
      4          8           0        0.000000    0.000000    0.626419
 ---------------------------------------------------------------------

 SCF Done:  E(RB3LYP) =  -114.523560147     A.U. after    9 cycles

 Excitation energies and oscillator strengths:

 Excited State   1:      Singlet-A2     4.5308 eV  273.65 nm  f=0.0000  <S**2>=0.000
       3 -> 27         0.00280
       3 -> 38         0.00237
       3 -> 45         0.00211
       4 -> 27         0.00244
       4 -> 38        -0.00068
       4 -> 45        -0.00114
       5 ->  9         0.02056
       5 -> 13        -0.00592
       5 -> 17         0.00608
       5 -> 23        -0.00152
       5 -> 29         0.00407
       5 -> 31         0.00286
       5 -> 36         0.00389
       5 -> 44         0.00068
       5 -> 47         0.00013
       5 -> 52         0.00085
       6 -> 27         0.00025
       6 -> 38        -0.00071
       6 -> 45         0.00171
       7 -> 12        -0.00062
       7 -> 16         0.00216
       7 -> 18        -0.00221
       7 -> 22         0.00124
       7 -> 24         0.00132
       7 -> 30        -0.00079
       7 -> 34         0.00039
       7 -> 35         0.00042
       7 -> 40        -0.00037
       7 -> 48         0.00053
       7 -> 51         0.00024
       7 -> 53         0.00043
       8 ->  9         0.70348
       8 -> 13        -0.06536
       8 -> 17         0.02436
       8 -> 23        -0.01167
       8 -> 29         0.00771
       8 -> 31         0.00332
       8 -> 36        -0.00088
       8 -> 44        -0.00021
       8 -> 47        -0.00021
       8 -> 52         0.00148
       3 <- 27         0.00191
       3 <- 38         0.00200
       3 <- 45         0.00220
       4 <- 27         0.00325
       4 <- 38        -0.00011
       4 <- 45        -0.00100
       5 <-  9        -0.00011
       5 <- 13        -0.00090
       5 <- 17        -0.00080
       5 <- 23         0.00054
       5 <- 29        -0.00052
       5 <- 31        -0.00105
       5 <- 36         0.00178
       5 <- 44         0.00034
       5 <- 47         0.00017
       5 <- 52         0.00022
       6 <- 27         0.00072
       6 <- 38        -0.00067
       6 <- 45         0.00133
       7 <- 12        -0.00093
       7 <- 16        -0.00595
       7 <- 18        -0.00081
       7 <- 22         0.00685
       7 <- 24        -0.00057
       7 <- 30         0.00270
       7 <- 34        -0.00133
       7 <- 35         0.00254
       7 <- 40        -0.00101
       7 <- 42         0.00030
       7 <- 48         0.00036
       7 <- 51         0.00011
       7 <- 53         0.00115
       8 <-  9        -0.01923
       8 <- 13         0.00448
       8 <- 17        -0.00394
       8 <- 23         0.00077
       8 <- 29        -0.00063
       8 <- 31         0.00142
       8 <- 36        -0.00185
       8 <- 52         0.00043
 This state for optimization and/or second-order correction.
 Total Energy, E(TD-HF/TD-DFT) =  -114.357055337
 Copying the excited state density for this state as the 1-particle RhoCI density.

 Excited State   2:      Singlet-B2     6.6726 eV  185.81 nm  f=0.0469  <S**2>=0.000
       3 -> 12         0.00128
       3 -> 16         0.00065
       3 -> 18         0.00112
       3 -> 22        -0.00026
       3 -> 24         0.00131
       3 -> 30        -0.00011
       3 -> 34         0.00012
       3 -> 35        -0.00029
       4 -> 12        -0.00411
       4 -> 16         0.00130
       4 -> 18         0.00231
       4 -> 22        -0.00334
       4 -> 24         0.00371
       4 -> 34        -0.00072
       4 -> 35         0.00078
       4 -> 40        -0.00050
       5 -> 10        -0.00384
       5 -> 11        -0.00931
       5 -> 14         0.00686
       5 -> 15        -0.00116
       5 -> 19         0.00242
       5 -> 20         0.00060
       5 -> 21         0.00498
       5 -> 26         0.00255
       5 -> 28         0.00193
       5 -> 32         0.00011
       5 -> 33        -0.00098
       5 -> 37        -0.00033
       5 -> 39        -0.00031
       5 -> 41        -0.00014
       5 -> 43        -0.00056
       5 -> 46        -0.00049
       5 -> 49         0.00014
       6 -> 12         0.00096
       6 -> 16         0.00123
       6 -> 18         0.00326
       6 -> 22        -0.00271
       6 -> 24         0.00156
       6 -> 30        -0.00038
       6 -> 34        -0.00015
       6 -> 35         0.00014
       6 -> 40         0.00021
       6 -> 42        -0.00026
       6 -> 48         0.00040
       6 -> 51        -0.00047
       7 -> 27         0.00040
       7 -> 38        -0.00035
       7 -> 45         0.00064
       8 -> 10         0.70443
       8 -> 11        -0.05599
       8 -> 14         0.00463
       8 -> 15        -0.00871
       8 -> 19         0.01636
       8 -> 20         0.01131
       8 -> 21        -0.00445
       8 -> 25         0.00065
       8 -> 26         0.00162
       8 -> 28         0.00059
       8 -> 33         0.00219
       8 -> 37         0.00050
       8 -> 39         0.00049
       8 -> 41        -0.00015
       8 -> 43         0.00068
       8 -> 46        -0.00082
       8 -> 54         0.00017
       3 <- 12         0.00034
       3 <- 16         0.00052
       3 <- 18         0.00046
       3 <- 22        -0.00036
       3 <- 24         0.00083
       3 <- 30        -0.00011
       3 <- 35        -0.00027
       4 <- 12         0.00061
       4 <- 16         0.00164
       4 <- 18         0.00235
       4 <- 22        -0.00204
       4 <- 24         0.00261
       4 <- 34        -0.00048
       4 <- 35         0.00050
       4 <- 40        -0.00021
       4 <- 42        -0.00019
       4 <- 48        -0.00011
       5 <- 10         0.00245
       5 <- 11        -0.00022
       5 <- 14         0.00495
       5 <- 15        -0.00106
       5 <- 19         0.00056
       5 <- 20         0.00046
       5 <- 21         0.00230
       5 <- 25         0.00170
       5 <- 26         0.00156
       5 <- 28         0.00049
       5 <- 32        -0.00011
       5 <- 33        -0.00096
       5 <- 37        -0.00035
       5 <- 39        -0.00017
       5 <- 43        -0.00040
       5 <- 46        -0.00042
       5 <- 49         0.00013
       6 <- 12         0.00030
       6 <- 16        -0.00014
       6 <- 18         0.00156
       6 <- 22        -0.00092
       6 <- 24         0.00058
       6 <- 30         0.00035
       6 <- 34        -0.00022
       6 <- 35         0.00031
       6 <- 40         0.00020
       6 <- 42        -0.00025
       6 <- 48         0.00033
       6 <- 51        -0.00047
       6 <- 53         0.00011
       7 <- 27         0.00031
       7 <- 38        -0.00027
       7 <- 45         0.00055
       8 <- 10        -0.00245
       8 <- 11        -0.00068
       8 <- 14        -0.00755
       8 <- 19        -0.00041
       8 <- 20        -0.00041
       8 <- 21        -0.00276
       8 <- 25        -0.00272
       8 <- 26        -0.00016
       8 <- 28        -0.00070
       8 <- 32        -0.00067
       8 <- 33         0.00128
       8 <- 37         0.00049
       8 <- 39         0.00040
       8 <- 43         0.00051
       8 <- 46        -0.00055
       8 <- 50        -0.00013

 Excited State   3:      Singlet-B2     7.4680 eV  166.02 nm  f=0.0221  <S**2>=0.000
       3 -> 12        -0.00023
       3 -> 16        -0.00067
       3 -> 18         0.00062
       3 -> 22         0.00029
       3 -> 24         0.00027
       3 -> 30         0.00167
       3 -> 34         0.00013
       3 -> 35        -0.00037
       3 -> 40         0.00034
       3 -> 42        -0.00014
       3 -> 48         0.00030
       3 -> 51        -0.00027
       4 -> 12         0.00305
       4 -> 16        -0.00065
       4 -> 18         0.00309
       4 -> 22        -0.00154
       4 -> 24         0.00323
       4 -> 30        -0.00110
       4 -> 34         0.00053
       4 -> 35        -0.00044
       4 -> 42        -0.00018
       4 -> 48         0.00021
       4 -> 51        -0.00014
       5 -> 10        -0.00763
       5 -> 11         0.00024
       5 -> 14         0.00652
       5 -> 15        -0.00682
       5 -> 19        -0.00360
       5 -> 20        -0.00333
       5 -> 21         0.00101
       5 -> 25         0.00141
       5 -> 26        -0.00021
       5 -> 28         0.00153
       5 -> 32        -0.00055
       5 -> 33        -0.00148
       5 -> 37        -0.00012
       5 -> 39         0.00043
       5 -> 41        -0.00083
       5 -> 46         0.00081
       5 -> 49        -0.00013
       5 -> 50         0.00043
       6 -> 12        -0.00324
       6 -> 16        -0.00190
       6 -> 18        -0.00132
       6 -> 22         0.00145
       6 -> 30         0.00067
       6 -> 34        -0.00047
       6 -> 35         0.00147
       6 -> 40        -0.00093
       6 -> 42         0.00018
       6 -> 48        -0.00087
       6 -> 51         0.00065
       6 -> 53         0.00012
       7 -> 27        -0.00035
       7 -> 38        -0.00110
       7 -> 45        -0.00151
       8 -> 10         0.05660
       8 -> 11         0.70391
       8 -> 14        -0.01053
       8 -> 15         0.01514
       8 -> 19        -0.02547
       8 -> 20         0.01115
       8 -> 21        -0.00223
       8 -> 25         0.00057
       8 -> 26        -0.00162
       8 -> 28        -0.00032
       8 -> 32        -0.00038
       8 -> 41        -0.00136
       8 -> 43         0.00017
       8 -> 46         0.00141
       8 -> 49        -0.00031
       8 -> 50         0.00082
       8 -> 54        -0.00016
       3 <- 12         0.00033
       3 <- 16        -0.00025
       3 <- 18         0.00080
       3 <- 24         0.00039
       3 <- 30         0.00100
       3 <- 34         0.00022
       3 <- 35        -0.00042
       3 <- 40         0.00030
       3 <- 42        -0.00012
       3 <- 48         0.00025
       3 <- 51        -0.00017
       3 <- 53        -0.00024
       4 <- 12         0.00036
       4 <- 16         0.00057
       4 <- 18         0.00085
       4 <- 22        -0.00118
       4 <- 24         0.00134
       4 <- 30        -0.00048
       4 <- 34         0.00048
       4 <- 42        -0.00019
       4 <- 48         0.00014
       4 <- 51        -0.00019
       5 <- 10         0.00130
       5 <- 11        -0.00091
       5 <- 14         0.00232
       5 <- 15        -0.00044
       5 <- 19         0.00083
       5 <- 20        -0.00024
       5 <- 21         0.00085
       5 <- 25         0.00119
       5 <- 26        -0.00044
       5 <- 28         0.00077
       5 <- 32         0.00078
       5 <- 33        -0.00092
       5 <- 37         0.00018
       5 <- 39         0.00018
       5 <- 41        -0.00086
       5 <- 46         0.00075
       5 <- 50         0.00036
       6 <- 12        -0.00034
       6 <- 16        -0.00035
       6 <- 18        -0.00013
       6 <- 22         0.00052
       6 <- 30         0.00032
       6 <- 34        -0.00028
       6 <- 35         0.00112
       6 <- 40        -0.00068
       6 <- 42         0.00012
       6 <- 48        -0.00072
       6 <- 51         0.00054
       7 <- 38        -0.00088
       7 <- 45        -0.00128
       8 <- 10        -0.00077
       8 <- 14        -0.00416
       8 <- 15         0.00057
       8 <- 19         0.00321
       8 <- 20        -0.00133
       8 <- 21        -0.00210
       8 <- 25         0.00015
       8 <- 26        -0.00163
       8 <- 28        -0.00024
       8 <- 32         0.00128
       8 <- 33         0.00061
       8 <- 37        -0.00012
       8 <- 39        -0.00033
       8 <- 41        -0.00116
       8 <- 46         0.00113
       8 <- 49        -0.00011
       8 <- 50         0.00061

 Excited State   4:      Singlet-A1     7.6251 eV  162.60 nm  f=0.0537  <S**2>=0.000
       3 -> 10         0.00172
       3 -> 11        -0.00100
       3 -> 14         0.00063
       3 -> 15        -0.00030
       3 -> 19         0.00067
       3 -> 20         0.00130
       3 -> 21         0.00047
       3 -> 25        -0.00037
       3 -> 26         0.00095
       3 -> 28         0.00114
       3 -> 32        -0.00024
       3 -> 33        -0.00044
       3 -> 37        -0.00027
       3 -> 39         0.00011
       3 -> 41        -0.00021
       3 -> 49         0.00016
       3 -> 50         0.00034
       3 -> 54        -0.00021
       4 -> 10         0.00520
       4 -> 11         0.00727
       4 -> 14         0.00549
       4 -> 19         0.00042
       4 -> 20         0.00505
       4 -> 21         0.00192
       4 -> 25         0.00720
       4 -> 26         0.00115
       4 -> 28        -0.00045
       4 -> 32         0.00046
       4 -> 33        -0.00056
       4 -> 39        -0.00022
       4 -> 41         0.00016
       4 -> 43         0.00015
       4 -> 46        -0.00023
       4 -> 49        -0.00015
       4 -> 50         0.00012
       5 -> 12         0.00724
       5 -> 16         0.00071
       5 -> 18         0.01143
       5 -> 22        -0.00150
       5 -> 24         0.00520
       5 -> 34        -0.00015
       5 -> 35         0.00081
       5 -> 51         0.00031
       5 -> 53        -0.00015
       6 -> 10         0.01308
       6 -> 11        -0.00359
       6 -> 14         0.00432
       6 -> 15         0.00143
       6 -> 19         0.00401
       6 -> 20         0.00448
       6 -> 21         0.00161
       6 -> 25         0.00279
       6 -> 26         0.00038
       6 -> 28        -0.00132
       6 -> 32         0.00062
       6 -> 33        -0.00026
       6 -> 43         0.00012
       6 -> 49        -0.00051
       6 -> 50        -0.00040
       7 ->  9         0.01356
       7 -> 13         0.00858
       7 -> 17         0.00393
       7 -> 23         0.00518
       7 -> 29        -0.00020
       7 -> 31         0.00085
       7 -> 36         0.00056
       7 -> 44         0.00065
       7 -> 47        -0.00035
       7 -> 52        -0.00011
       8 -> 12         0.70574
       8 -> 16        -0.01697
       8 -> 18         0.02916
       8 -> 22         0.00511
       8 -> 24         0.00268
       8 -> 30         0.00109
       8 -> 34         0.00153
       8 -> 35        -0.00208
       8 -> 40        -0.00073
       8 -> 42         0.00043
       8 -> 48        -0.00037
       8 -> 51         0.00030
       8 -> 53        -0.00021
       3 <- 10         0.00059
       3 <- 11        -0.00016
       3 <- 14         0.00037
       3 <- 19         0.00024
       3 <- 20         0.00060
       3 <- 21         0.00039
       3 <- 26         0.00056
       3 <- 28         0.00073
       3 <- 32        -0.00026
       3 <- 33        -0.00026
       3 <- 37        -0.00021
       3 <- 41        -0.00016
       3 <- 46         0.00019
       3 <- 49         0.00012
       3 <- 50         0.00030
       3 <- 54        -0.00019
       4 <- 10         0.00473
       4 <- 11         0.00193
       4 <- 14         0.00402
       4 <- 15        -0.00046
       4 <- 19         0.00028
       4 <- 20         0.00287
       4 <- 21         0.00077
       4 <- 25         0.00401
       4 <- 26         0.00072
       4 <- 32         0.00035
       4 <- 33        -0.00092
       4 <- 39        -0.00027
       4 <- 46        -0.00021
       4 <- 49        -0.00012
       4 <- 50         0.00012
       5 <- 12         0.00277
       5 <- 16         0.00192
       5 <- 18         0.00410
       5 <- 22        -0.00042
       5 <- 24         0.00281
       5 <- 34        -0.00034
       5 <- 35         0.00074
       5 <- 40         0.00010
       5 <- 51         0.00020
       5 <- 53        -0.00013
       6 <- 10         0.00353
       6 <- 11        -0.00037
       6 <- 14         0.00177
       6 <- 15         0.00045
       6 <- 19         0.00135
       6 <- 20         0.00221
       6 <- 21         0.00059
       6 <- 25         0.00144
       6 <- 26         0.00048
       6 <- 28        -0.00080
       6 <- 32         0.00045
       6 <- 33        -0.00031
       6 <- 41         0.00014
       6 <- 49        -0.00039
       6 <- 50        -0.00041
       7 <-  9         0.00158
       7 <- 13         0.00226
       7 <- 17         0.00123
       7 <- 23         0.00270
       7 <- 29        -0.00022
       7 <- 31         0.00060
       7 <- 36         0.00045
       7 <- 44         0.00054
       7 <- 47        -0.00030
       8 <- 12        -0.00150
       8 <- 16        -0.00728
       8 <- 18        -0.00265
       8 <- 22         0.00080
       8 <- 24        -0.00212
       8 <- 34         0.00079
       8 <- 35        -0.00109
       8 <- 40        -0.00067
       8 <- 42         0.00036
       8 <- 48        -0.00042
       8 <- 51         0.00024
       8 <- 53        -0.00022

 Excited State   5:      Singlet-A2     8.1275 eV  152.55 nm  f=0.0000  <S**2>=0.000
       3 -> 27        -0.00063
       3 -> 38        -0.00057
       3 -> 45        -0.00033
       4 -> 27         0.00016
       4 -> 38         0.00054
       5 ->  9        -0.00881
       5 -> 13        -0.00191
       5 -> 17         0.00606
       5 -> 23        -0.00148
       5 -> 31        -0.00172
       5 -> 36        -0.00119
       5 -> 44        -0.00023
       5 -> 52        -0.00012
       6 -> 27         0.00022
       6 -> 38         0.00029
       6 -> 45        -0.00034
       7 -> 12        -0.00051
       7 -> 16        -0.00180
       7 -> 18         0.00188
       7 -> 22        -0.00070
       7 -> 24        -0.00015
       7 -> 30         0.00010
       7 -> 35        -0.00016
       7 -> 40         0.00013
       7 -> 48        -0.00012
       8 ->  9         0.06530
       8 -> 13         0.70360
       8 -> 17         0.01504
       8 -> 23         0.01842
       8 -> 31        -0.00136
       8 -> 36        -0.00016
       8 -> 47         0.00018
       8 -> 52        -0.00017
       3 <- 27        -0.00024
       3 <- 38        -0.00040
       3 <- 45        -0.00042
       4 <- 27        -0.00022
       5 <-  9        -0.00026
       5 <- 13        -0.00030
       5 <- 17         0.00060
       5 <- 36        -0.00027
       6 <- 38         0.00021
       7 <- 12        -0.00066
       7 <- 16        -0.00083
       7 <- 18         0.00067
       7 <- 22        -0.00121
       7 <- 24        -0.00037
       7 <- 30         0.00019
       7 <- 34         0.00044
       7 <- 35        -0.00072
       7 <- 40         0.00040
       7 <- 42        -0.00017
       7 <- 53        -0.00013
       8 <-  9         0.00276
       8 <- 13         0.00142
       8 <- 17         0.00023
       8 <- 23        -0.00024
       8 <- 31        -0.00014
       8 <- 36         0.00022

 Excited State   6:      Singlet-B1    10.3023 eV  120.35 nm  f=0.0003  <S**2>=0.000
       3 ->  9        -0.03005
       3 -> 13         0.00839
       3 -> 17        -0.00781
       3 -> 23         0.00551
       3 -> 29        -0.00347
       3 -> 31        -0.00052
       3 -> 36        -0.00018
       3 -> 44         0.00080
       3 -> 47        -0.00027
       3 -> 52         0.00108
       4 ->  9         0.01636
       4 -> 13        -0.00289

 The electronic state is 1-A1.
 Alpha  occ. eigenvalues --  -19.14488 -10.26273  -1.13304  -0.63009  -0.52608
 Alpha  occ. eigenvalues --   -0.47937  -0.44904  -0.27332
 Alpha virt. eigenvalues --   -0.03770   0.01057   0.04117   0.04322   0.06768
 Alpha virt. eigenvalues --    0.13375   0.18320   0.18947   0.22017   0.22835
 Alpha virt. eigenvalues --    0.27194   0.34670   0.47862   0.48513   0.51092

 Mulliken charges:
               1
     1  C    0.051394
     2  H    0.083085
     3  H    0.083085
     4  O   -0.217565
 Sum of Mulliken charges =  -0.00000

 Dipole moment (field-independent basis, Debye):
    X=             -0.0000    Y=              0.0000    Z=             -1.9762  Tot=              1.9762
 Quadrupole moment (field-independent basis, Debye-Ang):
   XX=            -11.4499   YY=            -11.8144   ZZ=            -12.6924
   XY=              0.0000   XZ=              0.0000   YZ=             -0.0000

 Normal termination of Gaussian 16 at Fri Sep 17 10:52:39 2021.
