 Gaussian 16, Revision C.01,
 Gaussian 16:  ES64L-G16RevC.01  3-Jul-2019

 ----------------------------------------
 #P wB97XD/6-311+G* NoSymm #P Field=Y+175
 ----------------------------------------

 -------
 TitleMe
 -------
 Symbolic Z-matrix:
 Charge =  1 Multiplicity = 1

                          Input orientation:
 ---------------------------------------------------------------------
 Center     Atomic      Atomic             Coordinates (Angstroms)
 Number     Number       Type             X           Y           Z
 ---------------------------------------------------------------------
      1          6           0        0.029500    1.339700    0.068200
      2          6           0        1.434800    1.286700    0.006400
      3          6           0        2.111800    0.051100   -0.005400
      4          6           0        1.445100   -1.137200    0.031200
      5          6           0       -0.687900    0.168200    0.110000
      6          1           0       -0.471300    2.298400    0.078100
      7          1           0        2.027300    2.196500   -0.032200
      8          1           0        1.989700   -2.076400    0.023200
      9          1           0       -1.771600    0.180400    0.158200
     10          7           0        3.586400    0.051000   -0.067500
     11          8           0        4.147100   -1.059700   -0.088100
     12          8           0        4.145000    1.163900   -0.090100
     13          6           0       -0.023600   -1.145800    0.083500
     14          1           0       -0.436700   -1.872500    0.788900
     15         35           0       -0.535900   -1.869700   -1.740800
 ---------------------------------------------------------------------

 SCF Done:  E(RwB97XD) =  -3010.55677427     A.U. after   20 cycles

 Alpha  occ. eigenvalues -- -483.28608 -62.83593 -56.63320 -56.62703 -56.62698
 Alpha  occ. eigenvalues --  -19.45473 -19.45267 -14.84810 -10.57505 -10.56353
 Alpha  occ. eigenvalues --  -10.56294 -10.55838 -10.55639 -10.53516  -8.99369
 Alpha  occ. eigenvalues --   -6.82136  -6.80124  -6.80102  -2.92018  -2.91487
 Alpha  occ. eigenvalues --   -2.91468  -2.89860  -2.89860  -1.49124  -1.32115
 Alpha  occ. eigenvalues --   -1.21756  -1.12773  -1.11204  -1.02244  -1.00451
 Alpha  occ. eigenvalues --   -0.94501  -0.90246  -0.84949  -0.80341  -0.79887
 Alpha  occ. eigenvalues --   -0.79398  -0.77606  -0.75481  -0.75029  -0.71299
 Alpha  occ. eigenvalues --   -0.68498  -0.66862  -0.62658  -0.58909  -0.56720
 Alpha  occ. eigenvalues --   -0.55689  -0.54988  -0.53093  -0.52642
 Alpha virt. eigenvalues --   -0.28526  -0.20503  -0.15480  -0.14794  -0.11733
 Alpha virt. eigenvalues --   -0.11293  -0.07515  -0.07068  -0.05875  -0.03673
 Alpha virt. eigenvalues --   -0.02620  -0.01727  -0.01033  -0.00157   0.00108

 Mulliken charges:
               1
     1  C   -0.605469
     2  C    0.622691
     3  C   -0.821497
     4  C    0.369085
     5  C   -0.069158
     6  H    0.256346
     7  H    0.298287
     8  H    0.428597
     9  H    0.346378
    10  N   -0.102114
    11  O    0.120906
    12  O   -0.070029
    13  C   -0.519237
    14  H    0.447755
    15  Br   0.297458
 Sum of Mulliken charges =   1.00000

 Dipole moment (field-independent basis, Debye):
    X=             -1.3871    Y=             -5.6555    Z=             -0.7077  Tot=              5.8659
 Quadrupole moment (field-independent basis, Debye-Ang):
   XX=            -72.1333   YY=            -50.1348   ZZ=            -61.2174
   XY=             -4.3066   XZ=              1.6855   YZ=              3.9943

 Normal termination of Gaussian 16 at Wed May  1 15:10:34 2024.
