 Gaussian 16, Revision C.01,
 Gaussian 16:  ES64L-G16RevC.01  3-Jul-2019

 ---------------------------------------
 #P wB97XD/6-311+G* NoSymm #P Field=Z-58
 ---------------------------------------

 -------
 TitleMe
 -------
 Symbolic Z-matrix:
 Charge =  1 Multiplicity = 1

                          Input orientation:
 ---------------------------------------------------------------------
 Center     Atomic      Atomic             Coordinates (Angstroms)
 Number     Number       Type             X           Y           Z
 ---------------------------------------------------------------------
      1          6           0        0.029500    1.339700    0.068200
      2          6           0        1.434800    1.286700    0.006400
      3          6           0        2.111800    0.051100   -0.005400
      4          6           0        1.445100   -1.137200    0.031200
      5          6           0       -0.687900    0.168200    0.110000
      6          1           0       -0.471300    2.298400    0.078100
      7          1           0        2.027300    2.196500   -0.032200
      8          1           0        1.989700   -2.076400    0.023200
      9          1           0       -1.771600    0.180400    0.158200
     10          7           0        3.586400    0.051000   -0.067500
     11          8           0        4.147100   -1.059700   -0.088100
     12          8           0        4.145000    1.163900   -0.090100
     13          6           0       -0.023600   -1.145800    0.083500
     14          1           0       -0.436700   -1.872500    0.788900
     15         35           0       -0.535900   -1.869700   -1.740800
 ---------------------------------------------------------------------

 SCF Done:  E(RwB97XD) =  -3010.53644224     A.U. after   18 cycles

 Alpha  occ. eigenvalues -- -483.31994 -62.87034 -56.66707 -56.66163 -56.66160
 Alpha  occ. eigenvalues --  -19.45905 -19.45827 -14.85407 -10.58565 -10.57629
 Alpha  occ. eigenvalues --  -10.57254 -10.57067 -10.56795 -10.52978  -9.02851
 Alpha  occ. eigenvalues --   -6.85475  -6.83687  -6.83672  -2.95392  -2.94916
 Alpha  occ. eigenvalues --   -2.94903  -2.93472  -2.93472  -1.49665  -1.32639
 Alpha  occ. eigenvalues --   -1.22750  -1.14293  -1.11840  -1.04949  -1.01079
 Alpha  occ. eigenvalues --   -0.95568  -0.91005  -0.85296  -0.80786  -0.80684
 Alpha  occ. eigenvalues --   -0.80018  -0.78316  -0.76125  -0.75960  -0.72552
 Alpha  occ. eigenvalues --   -0.69409  -0.67607  -0.63940  -0.60487  -0.57501
 Alpha  occ. eigenvalues --   -0.56985  -0.56209  -0.55815  -0.55609
 Alpha virt. eigenvalues --   -0.29822  -0.21333  -0.16054  -0.13526  -0.09180
 Alpha virt. eigenvalues --   -0.06464  -0.06241  -0.05625  -0.04316  -0.03347
 Alpha virt. eigenvalues --   -0.03121  -0.02673  -0.01905  -0.01638  -0.01228

 Mulliken charges:
               1
     1  C   -0.588702
     2  C    0.536250
     3  C   -0.722561
     4  C    0.294690
     5  C    0.022237
     6  H    0.336014
     7  H    0.366877
     8  H    0.375490
     9  H    0.353194
    10  N   -0.106440
    11  O    0.031456
    12  O    0.028018
    13  C   -0.472063
    14  H    0.424115
    15  Br   0.121424
 Sum of Mulliken charges =   1.00000

 Dipole moment (field-independent basis, Debye):
    X=             -0.6878    Y=             -0.3695    Z=              0.9831  Tot=              1.2555
 Quadrupole moment (field-independent basis, Debye-Ang):
   XX=            -71.0534   YY=            -52.2917   ZZ=            -63.7281
   XY=              1.1416   XZ=              1.5726   YZ=              0.8045

 Normal termination of Gaussian 16 at Wed May  1 15:22:42 2024.
