 Gaussian 16, Revision C.01,
 Gaussian 16:  ES64L-G16RevC.01  3-Jul-2019

 ---------------------------------------
 #P wB97XD/6-311+G* NoSymm #P Field=X+77
 ---------------------------------------

 -------
 TitleMe
 -------
 Symbolic Z-matrix:
 Charge =  1 Multiplicity = 1

                          Input orientation:
 ---------------------------------------------------------------------
 Center     Atomic      Atomic             Coordinates (Angstroms)
 Number     Number       Type             X           Y           Z
 ---------------------------------------------------------------------
      1          6           0        0.519300    1.233000   -0.031900
      2          6           0        1.944500    1.269200   -0.036700
      3          6           0        2.620400    0.092800   -0.025000
      4          6           0       -0.196000    0.030100    0.001000
      5          1           0       -0.020700    2.174200   -0.043400
      6          1           0        2.482800    2.208900   -0.036100
      7          1           0       -1.277700    0.039900    0.011700
      8          7           0        4.092100    0.095900    0.036600
      9          8           0        4.639300   -1.021700    0.144600
     10          8           0        4.664900    1.198400   -0.023300
     11          6           0        0.494300   -1.167100    0.021000
     12          1           0       -0.032500   -2.114900    0.054500
     13          6           0        1.962900   -1.216500   -0.021100
     14          1           0        2.443600   -1.963100    0.615100
     15         35           0        2.173000   -1.949100   -1.906200
 ---------------------------------------------------------------------

 SCF Done:  E(RwB97XD) =  -3010.52679006     A.U. after   19 cycles

 Alpha  occ. eigenvalues -- -483.33706 -62.88733 -56.68423 -56.67858 -56.67849
 Alpha  occ. eigenvalues --  -19.51014 -19.50959 -14.90299 -10.61896 -10.60672
 Alpha  occ. eigenvalues --  -10.59342 -10.58887 -10.56297 -10.54366  -9.04543
 Alpha  occ. eigenvalues --   -6.87213  -6.85358  -6.85331  -2.97119  -2.96630
 Alpha  occ. eigenvalues --   -2.96608  -2.95124  -2.95123  -1.54646  -1.37657
 Alpha  occ. eigenvalues --   -1.24969  -1.15367  -1.15055  -1.07386  -1.03242
 Alpha  occ. eigenvalues --   -0.97669  -0.93202  -0.88631  -0.84954  -0.83614
 Alpha  occ. eigenvalues --   -0.83141  -0.80470  -0.79831  -0.78134  -0.74368
 Alpha  occ. eigenvalues --   -0.70376  -0.69815  -0.65604  -0.62643  -0.61936
 Alpha  occ. eigenvalues --   -0.61484  -0.60800  -0.58896  -0.57348
 Alpha virt. eigenvalues --   -0.32585  -0.24036  -0.18292  -0.15842  -0.10841
 Alpha virt. eigenvalues --   -0.08226  -0.07552  -0.07133  -0.06190  -0.05041
 Alpha virt. eigenvalues --   -0.04343  -0.04235  -0.03793  -0.02867  -0.02250

 Mulliken charges:
               1
     1  C   -0.118902
     2  C    0.185300
     3  C   -0.115501
     4  C   -0.328580
     5  H    0.364858
     6  H    0.340810
     7  H    0.366381
     8  N   -0.237771
     9  O    0.058420
    10  O    0.032739
    11  C   -0.174802
    12  H    0.375648
    13  C   -0.317879
    14  H    0.401742
    15  Br   0.167536
 Sum of Mulliken charges =   1.00000

 Dipole moment (field-independent basis, Debye):
    X=              0.5945    Y=             -0.7928    Z=             -0.6429  Tot=              1.1812
 Quadrupole moment (field-independent basis, Debye-Ang):
   XX=            -76.4974   YY=            -51.2945   ZZ=            -62.4082
   XY=             -2.4192   XZ=             -1.9534   YZ=              2.2011

 Normal termination of Gaussian 16 at Thu May  2 14:18:32 2024.
