 Gaussian 16, Revision C.01,
 Gaussian 16:  ES64L-G16RevC.01  3-Jul-2019

 ---------------------------------------
 #P wB97XD/6-311+G* NoSymm #P Field=X-48
 ---------------------------------------

 -------
 TitleMe
 -------
 Symbolic Z-matrix:
 Charge =  1 Multiplicity = 1

                          Input orientation:
 ---------------------------------------------------------------------
 Center     Atomic      Atomic             Coordinates (Angstroms)
 Number     Number       Type             X           Y           Z
 ---------------------------------------------------------------------
      1          6           0        0.029500    1.339700    0.068200
      2          6           0        1.434800    1.286700    0.006400
      3          6           0        2.111800    0.051100   -0.005400
      4          6           0        1.445100   -1.137200    0.031200
      5          6           0       -0.687900    0.168200    0.110000
      6          1           0       -0.471300    2.298400    0.078100
      7          1           0        2.027300    2.196500   -0.032200
      8          1           0        1.989700   -2.076400    0.023200
      9          1           0       -1.771600    0.180400    0.158200
     10          7           0        3.586400    0.051000   -0.067500
     11          8           0        4.147100   -1.059700   -0.088100
     12          8           0        4.145000    1.163900   -0.090100
     13          6           0       -0.023600   -1.145800    0.083500
     14          1           0       -0.436700   -1.872500    0.788900
     15         35           0       -0.535900   -1.869700   -1.740800
 ---------------------------------------------------------------------

 SCF Done:  E(RwB97XD) =  -3010.53512962     A.U. after   21 cycles

 Alpha  occ. eigenvalues -- -483.30789 -62.85822 -56.65504 -56.64947 -56.64945
 Alpha  occ. eigenvalues --  -19.43208 -19.43137 -14.82769 -10.57723 -10.56480
 Alpha  occ. eigenvalues --  -10.56035 -10.55842 -10.55764 -10.52297  -9.01635
 Alpha  occ. eigenvalues --   -6.84282  -6.82456  -6.82443  -2.94194  -2.93708
 Alpha  occ. eigenvalues --   -2.93696  -2.92236  -2.92235  -1.46980  -1.29925
 Alpha  occ. eigenvalues --   -1.21660  -1.13029  -1.10800  -1.03737  -0.99506
 Alpha  occ. eigenvalues --   -0.94541  -0.89801  -0.83850  -0.79511  -0.78810
 Alpha  occ. eigenvalues --   -0.77898  -0.77057  -0.75034  -0.73508  -0.71370
 Alpha  occ. eigenvalues --   -0.68539  -0.66618  -0.62737  -0.59347  -0.56141
 Alpha  occ. eigenvalues --   -0.54776  -0.54225  -0.53260  -0.52848
 Alpha virt. eigenvalues --   -0.28804  -0.19414  -0.14987  -0.11978  -0.09060
 Alpha virt. eigenvalues --   -0.06351  -0.05450  -0.04770  -0.03855  -0.02372
 Alpha virt. eigenvalues --   -0.01898  -0.01455  -0.01265  -0.00657   0.00409

 Mulliken charges:
               1
     1  C   -0.563938
     2  C    0.496990
     3  C   -0.699905
     4  C    0.305541
     5  C   -0.009267
     6  H    0.323868
     7  H    0.374804
     8  H    0.380768
     9  H    0.328872
    10  N   -0.109412
    11  O    0.052780
    12  O    0.049769
    13  C   -0.476451
    14  H    0.396107
    15  Br   0.149475
 Sum of Mulliken charges =   1.00000

 Dipole moment (field-independent basis, Debye):
    X=              0.6029    Y=             -0.4262    Z=              0.0959  Tot=              0.7446
 Quadrupole moment (field-independent basis, Debye-Ang):
   XX=            -67.9368   YY=            -52.1480   ZZ=            -62.9749
   XY=              1.0638   XZ=              0.7430   YZ=              1.3331

 Normal termination of Gaussian 16 at Wed May  1 14:48:44 2024.
