 Gaussian 16, Revision A.03,
 Gaussian 16:  ES64L-G16RevA.03 25-Dec-2016

 --------------------------------------------------------------------
 #p B3LYP/6-311+G** #p TD=(singlets,nstates=30)IOp(6/8=3) IOp(9/40=4)
 --------------------------------------------------------------------

 -------------------------------
 Scan Step 290, Bond Length 1.95
 -------------------------------
 Symbolic Z-matrix:
 Charge =  0 Multiplicity = 1

                         Standard orientation:
 ---------------------------------------------------------------------
 Center     Atomic      Atomic             Coordinates (Angstroms)
 Number     Number       Type             X           Y           Z
 ---------------------------------------------------------------------
      1          6           0        0.000000    0.000000   -0.901081
      2          1           0        0.000000    0.937260   -1.492431
      3          1           0       -0.000000   -0.937260   -1.492431
      4          8           0        0.000000   -0.000000    1.048919
 ---------------------------------------------------------------------

 SCF Done:  E(RB3LYP) =  -114.310280144     A.U. after   13 cycles

 Excitation energies and oscillator strengths:

 Excited State   1:      Singlet-A2     1.0557 eV 1174.40 nm  f=0.0000  <S**2>=0.000
       3 -> 27         0.00057
       3 -> 38         0.00033
       3 -> 47         0.00327
       4 -> 27         0.00028
       4 -> 47        -0.00078
       5 -> 14         0.00104
       5 -> 18         0.00129
       5 -> 23         0.00117
       5 -> 28         0.00093
       5 -> 37         0.00056
       5 -> 44         0.00016
       5 -> 52         0.00013
       6 -> 27        -0.00051
       6 -> 38        -0.00047
       6 -> 47         0.00078
       7 -> 12        -0.00145
       7 -> 16         0.00540
       7 -> 19        -0.00496
       7 -> 22        -0.00113
       7 -> 25        -0.00043
       7 -> 30        -0.00205
       7 -> 33         0.00025
       7 -> 49         0.00012
       7 -> 53         0.00035
       8 ->  9         0.71212
       8 -> 14        -0.00490
       8 -> 18         0.02022
       8 -> 23        -0.00029
       8 -> 28         0.00971
       8 -> 31         0.00157
       8 -> 37         0.00045
       8 -> 46        -0.00027
       8 -> 52         0.00178
       3 <- 27         0.00010
       3 <- 38         0.00012
       3 <- 47         0.00329
       4 <- 27         0.00055
       4 <- 38         0.00015
       4 <- 47        -0.00059
       5 <-  9         0.00063
       5 <- 14        -0.00026
       5 <- 18        -0.00027
       5 <- 23         0.00013
       5 <- 28        -0.00022
       5 <- 31         0.00018
       5 <- 37         0.00032
       6 <- 38        -0.00034
       6 <- 47         0.00055
       7 <- 12         0.00229
       7 <- 16        -0.01044
       7 <- 19         0.00629
       7 <- 22         0.00501
       7 <- 25        -0.00063
       7 <- 30         0.00566
       7 <- 33        -0.00033
       7 <- 49        -0.00046
       7 <- 53         0.00143
       8 <-  9        -0.08621
       8 <- 14        -0.00076
       8 <- 18        -0.00805
       8 <- 23        -0.00048
       8 <- 28        -0.00281
       8 <- 31        -0.00086
       8 <- 37        -0.00014
       8 <- 46         0.00013
       8 <- 52         0.00040
 This state for optimization and/or second-order correction.
 Total Energy, E(TD-HF/TD-DFT) =  -114.271483052
 Copying the excited state density for this state as the 1-particle RhoCI density.

 Excited State   2:      Singlet-A1     2.7524 eV  450.46 nm  f=0.0195  <S**2>=0.000
       3 -> 10        -0.01129
       3 -> 11        -0.00186
       3 -> 17        -0.00281
       3 -> 20        -0.00307
       3 -> 21         0.00072
       3 -> 26         0.00057
       3 -> 29         0.00020
       3 -> 32         0.00251
       3 -> 34         0.00089
       3 -> 36        -0.00086
       3 -> 39        -0.00026
       3 -> 43         0.00041
       3 -> 45        -0.00133
       3 -> 48         0.00231
       3 -> 50         0.00168
       3 -> 54        -0.00015
       4 -> 10         0.00029
       4 -> 11         0.00864
       4 -> 13         0.00115
       4 -> 15        -0.00670
       4 -> 17         0.00182
       4 -> 20         0.00129
       4 -> 21         0.00017
       4 -> 24        -0.00348
       4 -> 26         0.00250
       4 -> 32        -0.00095
       4 -> 34        -0.00059
       4 -> 39        -0.00030
       4 -> 43        -0.00038
       4 -> 45         0.00072
       4 -> 48        -0.00062
       4 -> 50        -0.00021
       4 -> 54         0.00012
       5 -> 12         0.00729
       5 -> 16         0.00082
       5 -> 19         0.00090
       5 -> 22         0.00598
       5 -> 25        -0.00332
       5 -> 30         0.00031
       5 -> 33        -0.00217
       5 -> 35         0.00268
       5 -> 40        -0.00084
       5 -> 42        -0.00097
       5 -> 51        -0.00091
       6 -> 10         0.26697
       6 -> 11         0.02616
       6 -> 13        -0.02751
       6 -> 15        -0.01700
       6 -> 17        -0.01390
       6 -> 20         0.00021
       6 -> 21         0.00327
       6 -> 24        -0.00605
       6 -> 26        -0.00206
       6 -> 29        -0.00161
       6 -> 32         0.00483
       6 -> 34         0.00135
       6 -> 36         0.00081
       6 -> 39        -0.00158
       6 -> 43         0.00075
       6 -> 45        -0.00100
       6 -> 48         0.00065
       6 -> 50         0.00041
       6 -> 54        -0.00099
       7 ->  9         0.67231
       7 -> 14        -0.00834
       7 -> 18        -0.00779
       7 -> 23        -0.00317
       7 -> 28         0.00184
       7 -> 31        -0.00330
       7 -> 37         0.00136
       7 -> 44        -0.00095
       7 -> 52         0.00104
       8 -> 12        -0.00677
       8 -> 16         0.02746
       8 -> 19        -0.01603
       8 -> 22        -0.00866
       8 -> 30        -0.00658
       8 -> 33         0.00071
       8 -> 35        -0.00035
       8 -> 42         0.00013
       8 -> 49        -0.00010
       8 -> 51         0.00011
       8 -> 53        -0.00046
       3 <- 10        -0.00949
       3 <- 11        -0.00189
       3 <- 13        -0.00012
       3 <- 15        -0.00041
       3 <- 17        -0.00169
       3 <- 20        -0.00283
       3 <- 21         0.00032
       3 <- 24        -0.00040
       3 <- 26        -0.00018
       3 <- 29         0.00046
       3 <- 32         0.00210
       3 <- 34         0.00045
       3 <- 36        -0.00094
       3 <- 39        -0.00018
       3 <- 43         0.00043
       3 <- 45        -0.00141
       3 <- 48         0.00231
       3 <- 50         0.00169
       4 <- 10         0.00135
       4 <- 11         0.00678
       4 <- 13         0.00112
       4 <- 15        -0.00489
       4 <- 17         0.00118
       4 <- 20         0.00193
       4 <- 24        -0.00278
       4 <- 26         0.00232
       4 <- 29        -0.00042
       4 <- 32        -0.00090
       4 <- 34        -0.00051
       4 <- 36         0.00019
       4 <- 39        -0.00034
       4 <- 43        -0.00034
       4 <- 45         0.00063
       4 <- 48        -0.00037
       4 <- 54         0.00010
       5 <- 12         0.00487
       5 <- 16         0.00065
       5 <- 19         0.00079
       5 <- 22         0.00456
       5 <- 25        -0.00273
       5 <- 30         0.00032
       5 <- 33        -0.00187
       5 <- 35         0.00237
       5 <- 40        -0.00078
       5 <- 42        -0.00088
       5 <- 51        -0.00087
       6 <- 10         0.09515
       6 <- 11         0.01220
       6 <- 13        -0.01468
       6 <- 15        -0.00997
       6 <- 17        -0.00911
       6 <- 20        -0.00119
       6 <- 21         0.00254
       6 <- 24        -0.00414
       6 <- 26        -0.00084
       6 <- 29        -0.00058
       6 <- 32         0.00448
       6 <- 34         0.00150
       6 <- 36         0.00035
       6 <- 39        -0.00141
       6 <- 43         0.00064
       6 <- 45        -0.00072
       6 <- 48         0.00036
       6 <- 50         0.00027
       6 <- 54        -0.00093
       7 <-  9        -0.12876
       7 <- 14         0.00184
       7 <- 18        -0.01007
       7 <- 23        -0.00012
       7 <- 28        -0.00099
       7 <- 31        -0.00156
       7 <- 37         0.00066
       7 <- 44        -0.00087
       7 <- 46        -0.00047
       7 <- 52         0.00098
       8 <- 12        -0.00335
       8 <- 16         0.01564
       8 <- 19        -0.01030
       8 <- 22        -0.00619
       8 <- 25         0.00012
       8 <- 30        -0.00550
       8 <- 33         0.00058
       8 <- 35        -0.00026
       8 <- 42         0.00010
       8 <- 49        -0.00021
       8 <- 53        -0.00044

 Excited State   3:      Singlet-B2     2.7545 eV  450.11 nm  f=0.0012  <S**2>=0.000
       3 -> 12        -0.00101
       3 -> 16         0.00083
       3 -> 19        -0.00332
       3 -> 22         0.00113
       3 -> 25        -0.00087
       3 -> 30        -0.00215
       3 -> 33         0.00035
       3 -> 35         0.00100
       3 -> 40        -0.00104
       3 -> 42        -0.00028
       3 -> 49        -0.00407
       3 -> 51         0.00014
       3 -> 53         0.00022
       4 -> 12         0.00030
       4 -> 16        -0.00111
       4 -> 19         0.00026
       4 -> 22         0.00139
       4 -> 25         0.00040
       4 -> 30         0.00063
       4 -> 33        -0.00026
       4 -> 35         0.00038
       4 -> 40         0.00019
       4 -> 49         0.00072
       5 -> 10         0.00864
       5 -> 11         0.00081
       5 -> 13        -0.00202
       5 -> 15         0.00238
       5 -> 17        -0.00052
       5 -> 20         0.00177
       5 -> 21         0.00221
       5 -> 24         0.00122
       5 -> 26        -0.00019
       5 -> 29        -0.00201
       5 -> 32        -0.00058
       5 -> 39         0.00049
       5 -> 41         0.00032
       5 -> 48        -0.00026
       5 -> 50         0.00018
       5 -> 54        -0.00015
       6 -> 12         0.00234
       6 -> 16        -0.00291
       6 -> 19         0.00436
       6 -> 22        -0.00070
       6 -> 25         0.00115
       6 -> 30         0.00049
       6 -> 33        -0.00023
       6 -> 35        -0.00096
       6 -> 40         0.00057
       6 -> 42         0.00051
       6 -> 49         0.00092
       6 -> 53        -0.00044
       7 -> 27        -0.00042
       7 -> 38         0.00023
       7 -> 47         0.00258
       8 -> 10         0.70691
       8 -> 11         0.04073
       8 -> 13        -0.03863
       8 -> 15        -0.01691
       8 -> 17        -0.01645
       8 -> 20         0.00718
       8 -> 21         0.00449
       8 -> 24        -0.00481
       8 -> 26        -0.00350
       8 -> 29        -0.01369
       8 -> 32         0.00185
       8 -> 34        -0.00087
       8 -> 36         0.00187
       8 -> 39         0.00022
       8 -> 41        -0.00017
       8 -> 45        -0.00073
       8 -> 48        -0.00315
       8 -> 50         0.00104
       8 -> 54        -0.00252
       3 <- 12        -0.00035
       3 <- 16         0.00032
       3 <- 19        -0.00168
       3 <- 22         0.00086
       3 <- 25        -0.00079
       3 <- 30        -0.00089
       3 <- 33         0.00033
       3 <- 35         0.00060
       3 <- 40        -0.00090
       3 <- 42        -0.00013
       3 <- 49        -0.00412
       3 <- 51         0.00014
       3 <- 53         0.00063
       4 <- 12         0.00012
       4 <- 16        -0.00146
       4 <- 19         0.00019
       4 <- 22         0.00180
       4 <- 25         0.00017
       4 <- 30         0.00094
       4 <- 33        -0.00026
       4 <- 35         0.00053
       4 <- 49         0.00050
       5 <- 10        -0.00097
       5 <- 11        -0.00041
       5 <- 13        -0.00033
       5 <- 15         0.00197
       5 <- 17         0.00019
       5 <- 20         0.00075
       5 <- 21         0.00136
       5 <- 24         0.00131
       5 <- 29        -0.00045
       5 <- 32        -0.00020
       5 <- 39         0.00026
       5 <- 41         0.00034
       5 <- 45        -0.00016
       5 <- 48        -0.00028
       6 <- 12        -0.00118
       6 <- 16         0.00841
       6 <- 19        -0.00495
       6 <- 22        -0.00521
       6 <- 25         0.00140
       6 <- 30        -0.00631
       6 <- 33         0.00013
       6 <- 35        -0.00073
       6 <- 40         0.00055
       6 <- 42         0.00047
       6 <- 49         0.00147
       6 <- 53        -0.00146
       7 <- 27        -0.00044
       7 <- 38         0.00019
       7 <- 47         0.00226
       8 <- 10        -0.05976
       8 <- 11        -0.00690
       8 <- 13         0.00657
       8 <- 15         0.00223
       8 <- 17         0.00290
       8 <- 20        -0.00372
       8 <- 21        -0.00090
       8 <- 24         0.00133
       8 <- 26         0.00082
       8 <- 29         0.00306
       8 <- 32         0.00189
       8 <- 34         0.00073
       8 <- 36        -0.00095
       8 <- 39        -0.00074
       8 <- 41         0.00013
       8 <- 43         0.00026
       8 <- 45        -0.00137
       8 <- 48        -0.00267
       8 <- 50         0.00104
       8 <- 54        -0.00065

 Excited State   4:      Singlet-B1     3.0346 eV  408.57 nm  f=0.0001  <S**2>=0.000
       3 ->  9        -0.01731
       3 -> 14         0.00048
       3 -> 18        -0.00332
       3 -> 23         0.00104
       3 -> 28        -0.00144
       3 -> 31        -0.00112
       3 -> 37         0.00017
       3 -> 44         0.00016
       3 -> 46        -0.00146
       3 -> 52         0.00045
       4 ->  9        -0.00457
       4 -> 14         0.00067
       4 -> 18         0.00026
       4 -> 23         0.00051
       4 -> 28         0.00065
       4 -> 31        -0.00075
       4 -> 46         0.00012
       4 -> 52        -0.00012
       5 -> 27        -0.00207
       5 -> 47         0.00029
       6 ->  9         0.44893
       6 -> 14        -0.01203
       6 -> 18         0.01130
       6 -> 23        -0.00744
       6 -> 28         0.00378
       6 -> 31         0.00029
       6 -> 37        -0.00017
       6 -> 44        -0.00084
       6 -> 46         0.00212
       6 -> 52         0.00031
       7 -> 10         0.55194
       7 -> 11         0.03263
       7 -> 13        -0.03225
       7 -> 15        -0.01581
       7 -> 17        -0.01294
       7 -> 20         0.00465
       7 -> 21         0.00249
       7 -> 24        -0.00599
       7 -> 26        -0.00438
       7 -> 29        -0.00833
       7 -> 32         0.00178
       7 -> 34        -0.00081
       7 -> 36         0.00095
       7 -> 41        -0.00013
       7 -> 43         0.00045
       7 -> 45        -0.00109
       7 -> 48         0.00285
       7 -> 50         0.00088
       7 -> 54        -0.00118
       8 -> 27         0.00013
       8 -> 47         0.00345
       3 <-  9        -0.00576
       3 <- 14        -0.00045
       3 <- 18        -0.00212
       3 <- 23        -0.00013
       3 <- 28        -0.00093
       3 <- 31        -0.00065
       3 <- 44        -0.00015
       3 <- 46        -0.00142
       3 <- 52         0.00061
       4 <-  9        -0.00185
       4 <- 14         0.00077
       4 <- 18         0.00105
       4 <- 23         0.00057
       4 <- 28         0.00135
       4 <- 31        -0.00057
       4 <- 44        -0.00036
       5 <- 27        -0.00199
       5 <- 47         0.00028
       6 <-  9        -0.06404
       6 <- 14         0.00232
       6 <- 18        -0.00687
       6 <- 23         0.00088
       6 <- 28        -0.00417
       6 <- 31        -0.00230
       6 <- 37         0.00014
       6 <- 44         0.00040
       6 <- 46         0.00211
       6 <- 52        -0.00077
       7 <- 10        -0.07121
       7 <- 11        -0.00833
       7 <- 13         0.01073
       7 <- 15         0.00509
       7 <- 17         0.00385
       7 <- 20        -0.00057
       7 <- 21        -0.00269
       7 <- 24         0.00256
       7 <- 26         0.00159
       7 <- 29         0.00244
       7 <- 36        -0.00026
       7 <- 39        -0.00035
       7 <- 41         0.00024
       7 <- 43         0.00024
       7 <- 45        -0.00078
       7 <- 48         0.00262
       7 <- 50         0.00115
       7 <- 54         0.00021
       8 <- 27         0.00041
       8 <- 47         0.00315

 Excited State   5:      Singlet-B1     3.5941 eV  344.96 nm  f=0.0053  <S**2>=0.000
       3 ->  9        -0.00682
       3 -> 14         0.00031
       3 -> 23         0.00022
       3 -> 28         0.00156
       3 -> 31         0.00077
       3 -> 44         0.00038
       3 -> 46         0.00317
       3 -> 52         0.00044
       4 ->  9         0.02823
       4 -> 14        -0.00574
       4 -> 18        -0.00053
       4 -> 23        -0.00459
       4 -> 28        -0.00029
       4 -> 31        -0.00087
       4 -> 37        -0.00035
       4 -> 44         0.00037
       4 -> 46        -0.00091
       4 -> 52        -0.00021
       5 -> 27         0.00541
       5 -> 38         0.00378
       6 ->  9         0.54930
       6 -> 14        -0.01033
       6 -> 18         0.00505
       6 -> 23        -0.00675
       6 -> 28        -0.00114
       6 -> 31         0.00446
       6 -> 37        -0.00286
       6 -> 44        -0.00142
       6 -> 46         0.00192
       6 -> 52         0.00108
       7 -> 10        -0.44332
       7 -> 11        -0.01972
       7 -> 13         0.02075
       7 -> 15         0.01708
       7 -> 17         0.00364
       7 -> 20         0.00235
       7 -> 21        -0.00108
       7 -> 24         0.00574
       7 -> 26         0.00275
       7 -> 29         0.00509
       7 -> 34         0.00307
       7 -> 36         0.00149
       7 -> 39        -0.00059
       7 -> 43        -0.00022
       7 -> 45         0.00044
       7 -> 48         0.00096
       7 -> 50         0.00049
       7 -> 54         0.00141
       8 -> 27        -0.00040
       8 -> 38        -0.00016
       8 -> 47         0.00112
       3 <-  9        -0.00231
       3 <- 14        -0.00097
       3 <- 18        -0.00040
       3 <- 23        -0.00067
       3 <- 28         0.00122
       3 <- 31        -0.00027
       3 <- 37         0.00033
       3 <- 44         0.00038
       3 <- 46         0.00325
       3 <- 52         0.00011
       4 <-  9         0.01537
       4 <- 14        -0.00298
       4 <- 18         0.00036
       4 <- 23        -0.00303
       4 <- 31        -0.00066
       4 <- 37        -0.00031
       4 <- 44         0.00043
       4 <- 46        -0.00057
       4 <- 52        -0.00015
       5 <- 27         0.00397
       5 <- 38         0.00326
       6 <-  9         0.00714
       6 <- 14         0.00156
       6 <- 18         0.00068
       6 <- 23        -0.00034
       6 <- 28        -0.00175
       6 <- 31         0.00455
       6 <- 37        -0.00270
       6 <- 44        -0.00089
       6 <- 46         0.00117
       6 <- 52         0.00111
       7 <- 10        -0.01085
       7 <- 11        -0.00205
       7 <- 13         0.00426
       7 <- 15         0.00784
       7 <- 17         0.00097
       7 <- 20         0.00494
       7 <- 21        -0.00031
       7 <- 24         0.00395
       7 <- 26         0.00109
       7 <- 29         0.00094
       7 <- 32        -0.00117
       7 <- 34         0.00214
       7 <- 36         0.00234
       7 <- 39        -0.00028
       7 <- 43        -0.00032
       7 <- 45         0.00056
       7 <- 48         0.00104
       7 <- 50         0.00078
       7 <- 54         0.00113
       8 <- 47         0.00129

 Excited State   6:      Singlet-A2     6.7033 eV  184.96 nm  f=0.0000  <S**2>=0.000
       3 -> 27        -0.00093
       3 -> 38        -0.00024
       4 -> 27        -0.00604
       4 -> 38         0.00044

 The electronic state is 1-A1.
 Alpha  occ. eigenvalues --  -19.17820 -10.34348  -0.88106  -0.72069  -0.49490
 Alpha  occ. eigenvalues --   -0.37566  -0.29866  -0.28533
 Alpha virt. eigenvalues --   -0.18158  -0.10408  -0.00315   0.04025   0.06077
 Alpha virt. eigenvalues --    0.06082   0.11475   0.12871   0.18572   0.20830
 Alpha virt. eigenvalues --    0.23865   0.30413   0.38471   0.39073   0.50386

 Mulliken charges:
               1
     1  C   -0.110795
     2  H    0.195019
     3  H    0.195019
     4  O   -0.279243
 Sum of Mulliken charges =  -0.00000

 Dipole moment (field-independent basis, Debye):
    X=             -0.0000    Y=              0.0000    Z=             -4.3709  Tot=              4.3709
 Quadrupole moment (field-independent basis, Debye-Ang):
   XX=            -13.1259   YY=            -12.1131   ZZ=            -10.2864
   XY=              0.0000   XZ=              0.0000   YZ=             -0.0000

 Normal termination of Gaussian 16 at Fri Sep 17 10:53:15 2021.
