 Gaussian 16, Revision A.03,
 Gaussian 16:  ES64L-G16RevA.03 25-Dec-2016

 --------------------------------------------------------------------
 #p B3LYP/6-311+G** #p TD=(singlets,nstates=30)IOp(6/8=3) IOp(9/40=4)
 --------------------------------------------------------------------

 ----------------------------
 Scan Step 0, Bond Length 0.5
 ----------------------------
 Symbolic Z-matrix:
 Charge =  0 Multiplicity = 1

                         Standard orientation:
 ---------------------------------------------------------------------
 Center     Atomic      Atomic             Coordinates (Angstroms)
 Number     Number       Type             X           Y           Z
 ---------------------------------------------------------------------
      1          6           0        0.000000    0.000000   -0.176081
      2          1           0        0.000000    0.937260   -0.767431
      3          1           0       -0.000000   -0.937260   -0.767431
      4          8           0        0.000000   -0.000000    0.323919
 ---------------------------------------------------------------------

 SCF Done:  E(RB3LYP) =  -108.787978210     A.U. after   11 cycles

 Excitation energies and oscillator strengths:

 Excited State   1:      Singlet-B2     4.2926 eV  288.83 nm  f=0.1649  <S**2>=0.000
       3 -> 11         0.00058
       3 -> 14         0.00181
       3 -> 19         0.00064
       3 -> 22         0.00165
       3 -> 25        -0.00188
       3 -> 31        -0.00041
       3 -> 38        -0.00034
       3 -> 40        -0.00070
       3 -> 42         0.00025
       3 -> 46         0.00014
       3 -> 53         0.00014
       4 ->  9        -0.00220
       4 -> 12         0.00126
       4 -> 13         0.00266
       4 -> 16         0.00105
       4 -> 17         0.00116
       4 -> 20         0.00187
       4 -> 21         0.00153
       4 -> 24         0.00086
       4 -> 28        -0.00053
       4 -> 30         0.00174
       4 -> 32         0.00012
       4 -> 33         0.00088
       4 -> 37        -0.00044
       4 -> 43         0.00040
       4 -> 44        -0.00022
       4 -> 47        -0.00058
       4 -> 48        -0.00015
       4 -> 51        -0.00015
       4 -> 54        -0.00014
       5 -> 26         0.00222
       5 -> 35         0.00097
       5 -> 45         0.00058
       6 -> 11         0.01186
       6 -> 14        -0.00018
       6 -> 19         0.00401
       6 -> 22         0.00068
       6 -> 25         0.00254
       6 -> 29        -0.00123
       6 -> 31         0.00088
       6 -> 42        -0.00019
       6 -> 50         0.00019
       7 -> 11         0.00712
       7 -> 14         0.00653
       7 -> 19         0.00383
       7 -> 22         0.00066
       7 -> 25        -0.00351
       7 -> 29        -0.00044
       7 -> 31         0.00124
       7 -> 38         0.00067
       7 -> 42        -0.00032
       7 -> 46         0.00049
       7 -> 50         0.00035
       7 -> 53        -0.00019
       8 ->  9         0.70348
       8 -> 12        -0.01019
       8 -> 13         0.07220
       8 -> 16        -0.01292
       8 -> 17        -0.02422
       8 -> 20         0.00724
       8 -> 21         0.01261
       8 -> 24        -0.00119
       8 -> 28        -0.00148
       8 -> 30        -0.00367
       8 -> 32        -0.00121
       8 -> 33        -0.00178
       8 -> 37        -0.00076
       8 -> 39        -0.00037
       8 -> 43         0.00071
       8 -> 44         0.00071
       8 -> 47         0.00041
       8 -> 48         0.00025
       3 <- 11         0.00032
       3 <- 14         0.00138
       3 <- 19         0.00033
       3 <- 22         0.00141
       3 <- 25        -0.00148
       3 <- 29        -0.00017
       3 <- 31        -0.00042
       3 <- 38        -0.00037
       3 <- 40        -0.00067
       3 <- 42         0.00026
       3 <- 46         0.00016
       3 <- 53         0.00016
       4 <-  9        -0.00087
       4 <- 13         0.00215
       4 <- 16         0.00085
       4 <- 17        -0.00025
       4 <- 20         0.00135
       4 <- 21         0.00127
       4 <- 24         0.00036
       4 <- 28        -0.00106
       4 <- 30         0.00140
       4 <- 33         0.00036
       4 <- 37        -0.00029
       4 <- 39         0.00016
       4 <- 43         0.00031
       4 <- 44        -0.00020
       4 <- 47        -0.00055
       5 <- 26         0.00194
       5 <- 35         0.00081
       5 <- 45         0.00049
       6 <- 11         0.00431
       6 <- 14        -0.00145
       6 <- 19         0.00194
       6 <- 25         0.00205
       6 <- 29        -0.00111
       6 <- 31         0.00083
       6 <- 40         0.00011
       6 <- 42        -0.00014
       6 <- 50         0.00018
       7 <- 11         0.00117
       7 <- 14         0.00343
       7 <- 19         0.00078
       7 <- 22         0.00042
       7 <- 25        -0.00250
       7 <- 29        -0.00135
       7 <- 31         0.00110
       7 <- 38         0.00042
       7 <- 42        -0.00022
       7 <- 46         0.00051
       7 <- 50         0.00047
       8 <-  9        -0.01829
       8 <- 12        -0.00864
       8 <- 13         0.03004
       8 <- 16         0.00658
       8 <- 17        -0.00341
       8 <- 20         0.00231
       8 <- 21         0.00719
       8 <- 24         0.00223
       8 <- 28        -0.00132
       8 <- 30        -0.00255
       8 <- 32        -0.00153
       8 <- 33        -0.00126
       8 <- 37        -0.00077
       8 <- 39        -0.00040
       8 <- 43         0.00070
       8 <- 44         0.00038
       8 <- 47         0.00039
       8 <- 48         0.00015
 This state for optimization and/or second-order correction.
 Total Energy, E(TD-HF/TD-DFT) =  -108.630227690
 Copying the excited state density for this state as the 1-particle RhoCI density.

 Excited State   2:      Singlet-A2     4.7041 eV  263.57 nm  f=0.0000  <S**2>=0.000
       3 -> 26        -0.00229
       3 -> 35        -0.00101
       3 -> 45        -0.00026
       4 -> 10        -0.00076
       4 -> 15        -0.00108
       4 -> 18        -0.00139
       4 -> 23        -0.00011
       4 -> 27        -0.00166
       4 -> 34         0.00030
       4 -> 36        -0.00084
       4 -> 49        -0.00016
       4 -> 52        -0.00019
       5 -> 11         0.00014
       5 -> 14        -0.00021
       5 -> 19         0.00027
       5 -> 22        -0.00056
       5 -> 25        -0.00020
       5 -> 29         0.00040
       5 -> 38         0.00036
       5 -> 42        -0.00035
       5 -> 46        -0.00022
       5 -> 50         0.00013
       6 -> 26         0.00324
       6 -> 35        -0.00101
       6 -> 45        -0.00026
       7 -> 26         0.00113
       7 -> 35         0.00027
       7 -> 45        -0.00011
       8 -> 10         0.70676
       8 -> 15         0.00635
       8 -> 18         0.02236
       8 -> 23        -0.00318
       8 -> 27        -0.00085
       8 -> 34         0.00375
       8 -> 36        -0.00098
       8 -> 41         0.00089
       8 -> 49         0.00016
       8 -> 52         0.00022
       3 <- 26        -0.00193
       3 <- 35        -0.00087
       3 <- 45        -0.00026
       4 <- 10        -0.00024
       4 <- 18        -0.00072
       4 <- 27        -0.00054
       4 <- 34         0.00055
       4 <- 36        -0.00052
       5 <- 11         0.00034
       5 <- 14        -0.00039
       5 <- 19         0.00077
       5 <- 22        -0.00064
       5 <- 25        -0.00041
       5 <- 29         0.00106
       5 <- 38         0.00053
       5 <- 42        -0.00039
       5 <- 46        -0.00025
       5 <- 53        -0.00016
       6 <- 26         0.00326
       6 <- 35        -0.00114
       6 <- 45        -0.00027
       7 <- 26         0.00099
       7 <- 35         0.00015
       7 <- 45        -0.00015
       8 <- 10         0.00292
       8 <- 18        -0.00782
       8 <- 27        -0.00114
       8 <- 34         0.00352
       8 <- 36        -0.00085
       8 <- 41         0.00050
       8 <- 52         0.00011

 Excited State   3:      Singlet-B2     5.5129 eV  224.90 nm  f=0.0403  <S**2>=0.000
       3 -> 11        -0.00036
       3 -> 14         0.00036
       3 -> 19        -0.00070
       3 -> 25         0.00019
       3 -> 31         0.00014
       3 -> 38         0.00020
       3 -> 40         0.00031
       3 -> 42        -0.00014
       3 -> 53        -0.00019
       4 ->  9         0.00044
       4 -> 13         0.00067
       4 -> 16         0.00116
       4 -> 17        -0.00090
       4 -> 20        -0.00044
       4 -> 21         0.00067
       4 -> 24         0.00084
       4 -> 28        -0.00021
       4 -> 30        -0.00181
       4 -> 32        -0.00016
       4 -> 37         0.00053
       4 -> 39        -0.00077
       4 -> 43        -0.00031
       4 -> 47         0.00031
       5 -> 26        -0.00097
       5 -> 35        -0.00099
       5 -> 45        -0.00052
       6 -> 11         0.00118
       6 -> 14        -0.00475
       6 -> 19         0.00188
       6 -> 22         0.00032
       6 -> 25         0.00199
       6 -> 29        -0.00257
       6 -> 31        -0.00071
       6 -> 38         0.00016
       6 -> 40        -0.00028
       6 -> 42        -0.00028
       6 -> 50         0.00010
       7 -> 11        -0.00111
       7 -> 14        -0.00269
       7 -> 19        -0.00183
       7 -> 22        -0.00092
       7 -> 25         0.00215
       7 -> 29        -0.00036
       7 -> 31        -0.00027
       7 -> 38        -0.00061
       7 -> 40         0.00035
       7 -> 42         0.00019
       7 -> 46        -0.00059
       7 -> 50        -0.00027
       7 -> 53         0.00026
       8 ->  9         0.00606
       8 -> 12         0.70512
       8 -> 13         0.04855
       8 -> 16         0.01882
       8 -> 17        -0.00364
       8 -> 20         0.01563
       8 -> 21         0.00483
       8 -> 24        -0.00115
       8 -> 28         0.00189
       8 -> 30        -0.00353
       8 -> 32         0.00045
       8 -> 33         0.00034
       8 -> 37        -0.00098
       8 -> 39         0.00111
       8 -> 43         0.00102
       8 -> 44        -0.00017
       8 -> 48        -0.00011
       8 -> 54        -0.00011
       3 <- 11        -0.00021
       3 <- 14         0.00015
       3 <- 19        -0.00026
       3 <- 29         0.00021
       3 <- 31         0.00020
       3 <- 38         0.00024
       3 <- 40         0.00024
       3 <- 42        -0.00015
       3 <- 50        -0.00011
       3 <- 53        -0.00022
       4 <-  9        -0.00080
       4 <- 12        -0.00021
       4 <- 13         0.00075
       4 <- 16         0.00065
       4 <- 17         0.00017
       4 <- 20        -0.00026
       4 <- 21         0.00049
       4 <- 24         0.00084
       4 <- 30        -0.00129
       4 <- 32        -0.00046
       4 <- 33         0.00022
       4 <- 37         0.00033
       4 <- 39        -0.00053
       4 <- 43        -0.00035
       4 <- 44         0.00011
       4 <- 47         0.00028
       5 <- 26        -0.00065
       5 <- 35        -0.00088
       5 <- 45        -0.00048
       6 <- 11         0.00117
       6 <- 14        -0.00098
       6 <- 22         0.00040
       6 <- 25         0.00179
       6 <- 29        -0.00188
       6 <- 31        -0.00082
       6 <- 38         0.00027
       6 <- 40        -0.00022
       6 <- 42        -0.00026
       7 <- 11         0.00030
       7 <- 14        -0.00101
       7 <- 19        -0.00050
       7 <- 22        -0.00068
       7 <- 25         0.00124
       7 <- 29         0.00023
       7 <- 31        -0.00011
       7 <- 38        -0.00034
       7 <- 40         0.00019
       7 <- 42         0.00010
       7 <- 46        -0.00050
       7 <- 50        -0.00032
       7 <- 53         0.00019
       8 <-  9        -0.00790
       8 <- 12         0.00041
       8 <- 13         0.01329
       8 <- 16         0.00351
       8 <- 17        -0.00344
       8 <- 20        -0.00321
       8 <- 21         0.00305
       8 <- 24         0.00039
       8 <- 30        -0.00267
       8 <- 32         0.00025
       8 <- 33         0.00039
       8 <- 37        -0.00089
       8 <- 39         0.00111
       8 <- 43         0.00087
       8 <- 44        -0.00011

 Excited State   4:      Singlet-A1     5.8565 eV  211.70 nm  f=0.0015  <S**2>=0.000
       3 ->  9         0.00212
       3 -> 12         0.00013
       3 -> 13        -0.00019
       3 -> 16        -0.00196
       3 -> 17        -0.00164
       3 -> 20         0.00016
       3 -> 21         0.00108
       3 -> 24        -0.00173
       3 -> 28        -0.00029
       3 -> 30         0.00074
       3 -> 32         0.00045
       3 -> 33        -0.00085
       3 -> 37         0.00076
       3 -> 39         0.00033
       3 -> 44        -0.00021
       3 -> 51        -0.00012
       3 -> 54         0.00020
       4 -> 11        -0.00461
       4 -> 14        -0.00356
       4 -> 19        -0.00467
       4 -> 22        -0.00266
       4 -> 25         0.00291
       4 -> 29        -0.00188
       4 -> 31        -0.00016
       4 -> 38         0.00053
       4 -> 40        -0.00017
       4 -> 42         0.00013
       4 -> 46        -0.00013
       4 -> 53         0.00012
       5 -> 10        -0.00123
       5 -> 15        -0.00320
       5 -> 18         0.00128
       5 -> 23         0.00374
       5 -> 27         0.00087
       5 -> 34        -0.00037
       5 -> 36        -0.00044
       6 ->  9        -0.00698
       6 -> 12        -0.01044
       6 -> 13         0.00153
       6 -> 16         0.00849
       6 -> 17        -0.00076
       6 -> 20        -0.00374
       6 -> 21        -0.00465
       6 -> 24         0.00333
       6 -> 28        -0.00363
       6 -> 30         0.00036
       6 -> 32        -0.00292
       6 -> 33        -0.00322
       6 -> 37        -0.00235
       6 -> 39         0.00108
       6 -> 43         0.00051
       6 -> 44        -0.00107
       6 -> 47         0.00022
       6 -> 48         0.00043
       6 -> 51         0.00022
       7 ->  9         0.02999
       7 -> 12        -0.01164
       7 -> 13        -0.00655
       7 -> 16         0.00156
       7 -> 17        -0.01602
       7 -> 20        -0.00171
       7 -> 21        -0.00304
       7 -> 24        -0.00254
       7 -> 28        -0.00347
       7 -> 30        -0.00145
       7 -> 32         0.00147
       7 -> 33         0.00021
       7 -> 37        -0.00083
       7 -> 39        -0.00028
       7 -> 44         0.00037
       7 -> 47        -0.00016
       7 -> 54        -0.00019
       8 -> 11         0.70372
       8 -> 14         0.05638
       8 -> 19        -0.02632
       8 -> 22        -0.00210
       8 -> 25        -0.01185
       8 -> 29        -0.00069
       8 -> 31         0.00246
       8 -> 38         0.00347
       8 -> 40        -0.00236
       8 -> 42         0.00177
       8 -> 46        -0.00131
       8 -> 50         0.00020
       3 <-  9         0.00150
       3 <- 12         0.00020
       3 <- 13        -0.00012
       3 <- 16        -0.00138
       3 <- 17        -0.00102
       3 <- 20         0.00017
       3 <- 21         0.00087
       3 <- 24        -0.00130
       3 <- 28        -0.00024
       3 <- 30         0.00062
       3 <- 32         0.00034
       3 <- 33        -0.00067
       3 <- 37         0.00064
       3 <- 39         0.00029
       3 <- 44        -0.00016
       3 <- 51        -0.00011
       3 <- 54         0.00018
       4 <- 11        -0.00231
       4 <- 14        -0.00160
       4 <- 19        -0.00297
       4 <- 22        -0.00184
       4 <- 25         0.00180
       4 <- 29        -0.00140
       4 <- 38         0.00043
       4 <- 40        -0.00017
       4 <- 42         0.00013
       4 <- 53         0.00012
       5 <- 10        -0.00081
       5 <- 15        -0.00215
       5 <- 18         0.00088
       5 <- 23         0.00281
       5 <- 27         0.00070
       5 <- 34        -0.00032
       5 <- 36        -0.00038
       6 <-  9        -0.00717
       6 <- 12        -0.00485
       6 <- 13         0.00205
       6 <- 16         0.00562
       6 <- 17        -0.00093
       6 <- 20        -0.00152
       6 <- 21        -0.00416
       6 <- 24         0.00233
       6 <- 28        -0.00268
       6 <- 30         0.00014
       6 <- 32        -0.00216
       6 <- 33        -0.00253
       6 <- 37        -0.00209
       6 <- 39         0.00069
       6 <- 43         0.00045
       6 <- 44        -0.00100
       6 <- 47         0.00018
       6 <- 48         0.00039
       6 <- 51         0.00020
       7 <-  9         0.00573
       7 <- 12        -0.00333
       7 <- 13        -0.00174
       7 <- 16         0.00133
       7 <- 17        -0.00667
       7 <- 20        -0.00045
       7 <- 21        -0.00182
       7 <- 24        -0.00135
       7 <- 28        -0.00234
       7 <- 30        -0.00102
       7 <- 32         0.00105
       7 <- 33         0.00023
       7 <- 37        -0.00066
       7 <- 39        -0.00032
       7 <- 44         0.00030
       7 <- 54        -0.00016
       8 <- 11        -0.01825
       8 <- 14         0.00388
       8 <- 19        -0.01777
       8 <- 22        -0.00488
       8 <- 25        -0.00722
       8 <- 29        -0.00083
       8 <- 31         0.00225
       8 <- 38         0.00292
       8 <- 40        -0.00169
       8 <- 42         0.00148
       8 <- 46        -0.00118
       8 <- 50         0.00022

 Excited State   5:      Singlet-A2     8.6860 eV  142.74 nm  f=0.0000  <S**2>=0.000
       3 -> 26         0.00086
       3 -> 35         0.00031
       4 -> 10        -0.00120
       4 -> 15        -0.00247
       4 -> 18         0.00104
       4 -> 23         0.00176
       4 -> 27        -0.00019
       4 -> 34         0.00011
       4 -> 36         0.00058
       4 -> 41        -0.00038
       4 -> 49        -0.00012
       5 -> 14         0.00017
       5 -> 19        -0.00023
       5 -> 22         0.00036
       5 -> 25         0.00038
       5 -> 29        -0.00013
       5 -> 38        -0.00013
       5 -> 42         0.00018
       6 -> 26        -0.00113
       6 -> 35         0.00029
       7 -> 26        -0.00064
       7 -> 35        -0.00020
       8 -> 10        -0.00488
       8 -> 15         0.70528
       8 -> 18        -0.04890
       8 -> 23        -0.01294
       8 -> 27        -0.00016
       8 -> 34        -0.00126
       8 -> 36         0.00161
       8 -> 41        -0.00024
       8 -> 52        -0.00013
       3 <- 26         0.00069
       3 <- 35         0.00020
       4 <- 10         0.00016
       4 <- 18         0.00038
       4 <- 23         0.00011
       4 <- 27         0.00017
       4 <- 34        -0.00020
       4 <- 36         0.00023
       5 <- 11         0.00041
       5 <- 19         0.00028
       5 <- 22         0.00033
       5 <- 25         0.00052
       5 <- 29         0.00016
       5 <- 31        -0.00018
       5 <- 38        -0.00022
       5 <- 40         0.00016
       5 <- 42         0.00016
       6 <- 26        -0.00099
       6 <- 35         0.00032
       7 <- 26        -0.00021
       7 <- 35        -0.00028
       7 <- 45        -0.00014
       8 <- 10         0.00032
       8 <- 15         0.00282
       8 <- 18         0.00299
       8 <- 23         0.00082
       8 <- 34        -0.00144
       8 <- 36         0.00048
       8 <- 41        -0.00015

 Excited State   6:      Singlet-A1     8.6969 eV  142.56 nm  f=0.0570  <S**2>=0.000
       3 ->  9        -0.00045
       3 -> 12         0.00016
       3 -> 13        -0.00056
       3 -> 16         0.00090
       3 -> 17         0.00036
       3 -> 20        -0.00046
       3 -> 21        -0.00053
       3 -> 24         0.00078
       3 -> 28         0.00024
       3 -> 30        -0.00105
       3 -> 32        -0.00051
       3 -> 37         0.00014
       3 -> 39        -0.00024
       3 -> 43        -0.00022
       3 -> 47         0.00031
       3 -> 48        -0.00024

 The electronic state is 1-A1.
 Alpha  occ. eigenvalues --  -19.55727 -10.81841  -1.15947  -1.06695  -1.04517
 Alpha  occ. eigenvalues --   -0.56125  -0.40488  -0.19602
 Alpha virt. eigenvalues --   -0.00751   0.01937   0.04444   0.04589   0.13558
 Alpha virt. eigenvalues --    0.16454   0.16785   0.18501   0.20931   0.22565
 Alpha virt. eigenvalues --    0.29869   0.36870   0.50165   0.56515   0.64469

 Mulliken charges:
               1
     1  C    0.122932
     2  H   -0.146655
     3  H   -0.146655
     4  O    0.170379
 Sum of Mulliken charges =  -0.00000

 Dipole moment (field-independent basis, Debye):
    X=              0.0000    Y=             -0.0000    Z=              1.7738  Tot=              1.7738
 Quadrupole moment (field-independent basis, Debye-Ang):
   XX=             -9.8422   YY=            -14.6924   ZZ=            -13.9410
   XY=             -0.0000   XZ=             -0.0000   YZ=              0.0000

 Normal termination of Gaussian 16 at Fri Sep 17 10:52:15 2021.
