 Gaussian 16, Revision C.01,
 Gaussian 16:  ES64L-G16RevC.01  3-Jul-2019

 ----------------------------------------
 #P wB97XD/6-311+G* NoSymm #P Field=Z-272
 ----------------------------------------

 -------
 TitleMe
 -------
 Symbolic Z-matrix:
 Charge =  1 Multiplicity = 1

                          Input orientation:
 ---------------------------------------------------------------------
 Center     Atomic      Atomic             Coordinates (Angstroms)
 Number     Number       Type             X           Y           Z
 ---------------------------------------------------------------------
      1          6           0        0.029500    1.339700    0.068200
      2          6           0        1.434800    1.286700    0.006400
      3          6           0        2.111800    0.051100   -0.005400
      4          6           0        1.445100   -1.137200    0.031200
      5          6           0       -0.687900    0.168200    0.110000
      6          1           0       -0.471300    2.298400    0.078100
      7          1           0        2.027300    2.196500   -0.032200
      8          1           0        1.989700   -2.076400    0.023200
      9          1           0       -1.771600    0.180400    0.158200
     10          7           0        3.586400    0.051000   -0.067500
     11          8           0        4.147100   -1.059700   -0.088100
     12          8           0        4.145000    1.163900   -0.090100
     13          6           0       -0.023600   -1.145800    0.083500
     14          1           0       -0.436700   -1.872500    0.788900
     15         35           0       -0.535900   -1.869700   -1.740800
 ---------------------------------------------------------------------

 SCF Done:  E(RwB97XD) =  -3010.56037041     A.U. after   20 cycles

 Alpha  occ. eigenvalues -- -483.35796 -62.90874 -56.70485 -56.70028 -56.70027
 Alpha  occ. eigenvalues --  -19.46961 -19.46861 -14.86438 -10.60568 -10.59010
 Alpha  occ. eigenvalues --  -10.58490 -10.58309 -10.57977 -10.54089  -9.06717
 Alpha  occ. eigenvalues --   -6.89170  -6.87646  -6.87640  -2.99128  -2.98716
 Alpha  occ. eigenvalues --   -2.98710  -2.97489  -2.97489  -1.50675  -1.33645
 Alpha  occ. eigenvalues --   -1.24195  -1.16347  -1.13135  -1.07798  -1.02204
 Alpha  occ. eigenvalues --   -0.96949  -0.92212  -0.86331  -0.81998  -0.81722
 Alpha  occ. eigenvalues --   -0.81068  -0.79404  -0.77227  -0.77122  -0.74687
 Alpha  occ. eigenvalues --   -0.70639  -0.68863  -0.65779  -0.63517  -0.61618
 Alpha  occ. eigenvalues --   -0.58381  -0.58023  -0.57092  -0.56612
 Alpha virt. eigenvalues --   -0.31689  -0.22794  -0.21974  -0.18633  -0.16058
 Alpha virt. eigenvalues --   -0.14945  -0.13864  -0.10804  -0.09372  -0.09167
 Alpha virt. eigenvalues --   -0.06280  -0.05275  -0.04058  -0.03060  -0.02836

 Mulliken charges:
               1
     1  C   -0.635126
     2  C    0.596519
     3  C   -0.735477
     4  C    0.309278
     5  C    0.081374
     6  H    0.348088
     7  H    0.372894
     8  H    0.385215
     9  H    0.365370
    10  N   -0.110623
    11  O    0.037887
    12  O    0.032952
    13  C   -0.463833
    14  H    0.496803
    15  Br  -0.081322
 Sum of Mulliken charges =   1.00000

 Dipole moment (field-independent basis, Debye):
    X=             -0.1658    Y=              0.4080    Z=              4.7184  Tot=              4.7389
 Quadrupole moment (field-independent basis, Debye-Ang):
   XX=            -70.3726   YY=            -53.4598   ZZ=            -68.4169
   XY=              0.5892   XZ=              3.2726   YZ=             -2.3938

 Normal termination of Gaussian 16 at Wed May  1 15:13:22 2024.
