 Gaussian 16, Revision C.01,
 Gaussian 16:  ES64L-G16RevC.01  3-Jul-2019

 ----------------------------------------
 #P wB97XD/6-311+G* NoSymm #P Field=Z-291
 ----------------------------------------

 -------
 TitleMe
 -------
 Symbolic Z-matrix:
 Charge =  1 Multiplicity = 1

                          Input orientation:
 ---------------------------------------------------------------------
 Center     Atomic      Atomic             Coordinates (Angstroms)
 Number     Number       Type             X           Y           Z
 ---------------------------------------------------------------------
      1          6           0        0.029500    1.339700    0.068200
      2          6           0        1.434800    1.286700    0.006400
      3          6           0        2.111800    0.051100   -0.005400
      4          6           0        1.445100   -1.137200    0.031200
      5          6           0       -0.687900    0.168200    0.110000
      6          1           0       -0.471300    2.298400    0.078100
      7          1           0        2.027300    2.196500   -0.032200
      8          1           0        1.989700   -2.076400    0.023200
      9          1           0       -1.771600    0.180400    0.158200
     10          7           0        3.586400    0.051000   -0.067500
     11          8           0        4.147100   -1.059700   -0.088100
     12          8           0        4.145000    1.163900   -0.090100
     13          6           0       -0.023600   -1.145800    0.083500
     14          1           0       -0.436700   -1.872500    0.788900
     15         35           0       -0.535900   -1.869700   -1.740800
 ---------------------------------------------------------------------

 SCF Done:  E(RwB97XD) =  -3010.56402407     A.U. after   20 cycles

 Alpha  occ. eigenvalues -- -483.36168 -62.91249 -56.70855 -56.70406 -56.70404
 Alpha  occ. eigenvalues --  -19.47068 -19.46966 -14.86541 -10.60768 -10.59146
 Alpha  occ. eigenvalues --  -10.58615 -10.58433 -10.58096 -10.54203  -9.07093
 Alpha  occ. eigenvalues --   -6.89532  -6.88030  -6.88026  -2.99493  -2.99086
 Alpha  occ. eigenvalues --   -2.99082  -2.97878  -2.97878  -1.50776  -1.33746
 Alpha  occ. eigenvalues --   -1.24342  -1.16565  -1.13262  -1.08059  -1.02317
 Alpha  occ. eigenvalues --   -0.97084  -0.92333  -0.86435  -0.82122  -0.81825
 Alpha  occ. eigenvalues --   -0.81172  -0.79517  -0.77347  -0.77235  -0.74903
 Alpha  occ. eigenvalues --   -0.70761  -0.68992  -0.65948  -0.63855  -0.62010
 Alpha  occ. eigenvalues --   -0.58546  -0.58138  -0.57189  -0.56709
 Alpha virt. eigenvalues --   -0.31893  -0.23740  -0.22391  -0.19188  -0.16786
 Alpha virt. eigenvalues --   -0.15573  -0.14402  -0.11469  -0.09969  -0.09748
 Alpha virt. eigenvalues --   -0.06657  -0.05587  -0.04297  -0.03310  -0.03058

 Mulliken charges:
               1
     1  C   -0.639623
     2  C    0.601656
     3  C   -0.736432
     4  C    0.309180
     5  C    0.085940
     6  H    0.349493
     7  H    0.373731
     8  H    0.386324
     9  H    0.366696
    10  N   -0.111443
    11  O    0.038862
    12  O    0.033743
    13  C   -0.461331
    14  H    0.503127
    15  Br  -0.099922
 Sum of Mulliken charges =   1.00000

 Dipole moment (field-independent basis, Debye):
    X=             -0.1187    Y=              0.4758    Z=              5.0574  Tot=              5.0811
 Quadrupole moment (field-independent basis, Debye-Ang):
   XX=            -70.3144   YY=            -53.5692   ZZ=            -68.8925
   XY=              0.5426   XZ=              3.4244   YZ=             -2.6836

 Normal termination of Gaussian 16 at Wed May  1 15:12:41 2024.
