 Gaussian 16, Revision C.01,
 Gaussian 16:  ES64L-G16RevC.01  3-Jul-2019

 ---------------------------------------
 #P wB97XD/6-311+G* NoSymm #P Field=Z+38
 ---------------------------------------

 -------
 TitleMe
 -------
 Symbolic Z-matrix:
 Charge =  1 Multiplicity = 1

                          Input orientation:
 ---------------------------------------------------------------------
 Center     Atomic      Atomic             Coordinates (Angstroms)
 Number     Number       Type             X           Y           Z
 ---------------------------------------------------------------------
      1          6           0        0.029500    1.339700    0.068200
      2          6           0        1.434800    1.286700    0.006400
      3          6           0        2.111800    0.051100   -0.005400
      4          6           0        1.445100   -1.137200    0.031200
      5          6           0       -0.687900    0.168200    0.110000
      6          1           0       -0.471300    2.298400    0.078100
      7          1           0        2.027300    2.196500   -0.032200
      8          1           0        1.989700   -2.076400    0.023200
      9          1           0       -1.771600    0.180400    0.158200
     10          7           0        3.586400    0.051000   -0.067500
     11          8           0        4.147100   -1.059700   -0.088100
     12          8           0        4.145000    1.163900   -0.090100
     13          6           0       -0.023600   -1.145800    0.083500
     14          1           0       -0.436700   -1.872500    0.788900
     15         35           0       -0.535900   -1.869700   -1.740800
 ---------------------------------------------------------------------

 SCF Done:  E(RwB97XD) =  -3010.53586492     A.U. after   18 cycles

 Alpha  occ. eigenvalues -- -483.30501 -62.85518 -56.65219 -56.64635 -56.64633
 Alpha  occ. eigenvalues --  -19.45512 -19.45443 -14.85016 -10.57804 -10.57083
 Alpha  occ. eigenvalues --  -10.56787 -10.56589 -10.56349 -10.52570  -9.01319
 Alpha  occ. eigenvalues --   -6.84018  -6.82110  -6.82096  -2.93917  -2.93411
 Alpha  occ. eigenvalues --   -2.93398  -2.91873  -2.91872  -1.49278  -1.32255
 Alpha  occ. eigenvalues --   -1.22210  -1.13576  -1.11328  -1.03736  -1.00648
 Alpha  occ. eigenvalues --   -0.95019  -0.90544  -0.84902  -0.80378  -0.80241
 Alpha  occ. eigenvalues --   -0.79610  -0.77920  -0.75720  -0.75518  -0.71774
 Alpha  occ. eigenvalues --   -0.68931  -0.67145  -0.63143  -0.59600  -0.56749
 Alpha  occ. eigenvalues --   -0.55817  -0.55554  -0.55224  -0.54508
 Alpha virt. eigenvalues --   -0.29138  -0.20938  -0.15087  -0.12919  -0.08785
 Alpha virt. eigenvalues --   -0.06141  -0.05758  -0.04929  -0.03527  -0.02973
 Alpha virt. eigenvalues --   -0.02164  -0.01981  -0.00560  -0.00374   0.01064

 Mulliken charges:
               1
     1  C   -0.570265
     2  C    0.503834
     3  C   -0.712097
     4  C    0.281431
     5  C   -0.008391
     6  H    0.332791
     7  H    0.366135
     8  H    0.372782
     9  H    0.349447
    10  N   -0.107794
    11  O    0.031110
    12  O    0.028114
    13  C   -0.467939
    14  H    0.390655
    15  Br   0.210189
 Sum of Mulliken charges =   1.00000

 Dipole moment (field-independent basis, Debye):
    X=             -0.9214    Y=             -0.7307    Z=             -0.6784  Tot=              1.3576
 Quadrupole moment (field-independent basis, Debye-Ang):
   XX=            -71.3802   YY=            -51.7944   ZZ=            -61.9238
   XY=              1.4053   XZ=              0.8073   YZ=              2.2228

 Normal termination of Gaussian 16 at Wed May  1 15:24:55 2024.
