 Gaussian 16, Revision A.03,
 Gaussian 16:  ES64L-G16RevA.03 25-Dec-2016

 --------------------------------------------------------------------
 #p B3LYP/6-311+G** #p TD=(singlets,nstates=30)IOp(6/8=3) IOp(9/40=4)
 --------------------------------------------------------------------

 ------------------------------
 Scan Step 52, Bond Length 0.76
 ------------------------------
 Symbolic Z-matrix:
 Charge =  0 Multiplicity = 1

                         Standard orientation:
 ---------------------------------------------------------------------
 Center     Atomic      Atomic             Coordinates (Angstroms)
 Number     Number       Type             X           Y           Z
 ---------------------------------------------------------------------
      1          6           0        0.000000    0.000000   -0.306081
      2          1           0        0.000000    0.937260   -0.897431
      3          1           0       -0.000000   -0.937260   -0.897431
      4          8           0        0.000000   -0.000000    0.453919
 ---------------------------------------------------------------------

 SCF Done:  E(RB3LYP) =  -113.584366771     A.U. after    9 cycles

 Excitation energies and oscillator strengths:

 Excited State   1:      Singlet-B2     5.2578 eV  235.81 nm  f=0.1085  <S**2>=0.000
       3 -> 11         0.00077
       3 -> 16         0.00046
       3 -> 19         0.00083
       3 -> 23         0.00023
       3 -> 24        -0.00101
       3 -> 29        -0.00022
       3 -> 32        -0.00011
       3 -> 40         0.00013
       3 -> 43         0.00019
       3 -> 50        -0.00014
       3 -> 53         0.00013
       4 ->  9        -0.00280
       4 -> 12         0.00433
       4 -> 14         0.00415
       4 -> 15         0.00162
       4 -> 18         0.00337
       4 -> 20         0.00179
       4 -> 21         0.00204
       4 -> 25         0.00151
       4 -> 26        -0.00083
       4 -> 30        -0.00104
       4 -> 31         0.00141
       4 -> 34         0.00044
       4 -> 38         0.00077
       4 -> 41        -0.00052
       4 -> 44        -0.00037
       4 -> 46        -0.00072
       4 -> 49         0.00029
       5 -> 28         0.00150
       5 -> 35         0.00060
       5 -> 45         0.00085
       6 -> 11        -0.00698
       6 -> 16         0.00207
       6 -> 19         0.00048
       6 -> 23        -0.00164
       6 -> 24        -0.00442
       6 -> 29        -0.00089
       6 -> 32        -0.00104
       6 -> 36         0.00066
       6 -> 43         0.00034
       6 -> 47         0.00013
       7 -> 11         0.00460
       7 -> 16         0.00403
       7 -> 19         0.00292
       7 -> 23        -0.00092
       7 -> 24        -0.00205
       7 -> 29         0.00054
       7 -> 32         0.00036
       7 -> 36        -0.00051
       7 -> 43        -0.00040
       7 -> 47         0.00046
       7 -> 50         0.00046
       7 -> 53        -0.00012
       8 ->  9         0.70585
       8 -> 12        -0.00071
       8 -> 14         0.03657
       8 -> 15        -0.00928
       8 -> 18        -0.02149
       8 -> 20         0.00617
       8 -> 21         0.00937
       8 -> 25        -0.00036
       8 -> 30        -0.00124
       8 -> 31        -0.00318
       8 -> 34        -0.00124
       8 -> 38         0.00108
       8 -> 39         0.00032
       8 -> 41        -0.00067
       8 -> 44         0.00018
       8 -> 46         0.00092
       8 -> 49        -0.00033
       8 -> 51         0.00010
       8 -> 54         0.00010
       3 <- 11         0.00029
       3 <- 16         0.00013
       3 <- 19         0.00054
       3 <- 23         0.00015
       3 <- 24        -0.00076
       3 <- 29        -0.00020
       3 <- 32        -0.00013
       3 <- 40         0.00014
       3 <- 43         0.00017
       3 <- 53         0.00014
       4 <-  9        -0.00160
       4 <- 12        -0.00023
       4 <- 14         0.00338
       4 <- 15         0.00189
       4 <- 18         0.00080
       4 <- 20         0.00089
       4 <- 21         0.00145
       4 <- 25         0.00147
       4 <- 26        -0.00127
       4 <- 30        -0.00034
       4 <- 31         0.00052
       4 <- 34         0.00027
       4 <- 38         0.00048
       4 <- 39         0.00017
       4 <- 41        -0.00045
       4 <- 44        -0.00028
       4 <- 46        -0.00064
       4 <- 49         0.00023
       5 <- 28         0.00121
       5 <- 35         0.00048
       5 <- 45         0.00072
       6 <- 11        -0.00072
       6 <- 16         0.00214
       6 <- 19         0.00152
       6 <- 23        -0.00075
       6 <- 24        -0.00339
       6 <- 29        -0.00063
       6 <- 32        -0.00084
       6 <- 36         0.00056
       6 <- 43         0.00019
       7 <- 11         0.00096
       7 <- 16         0.00225
       7 <- 19         0.00054
       7 <- 23        -0.00034
       7 <- 24        -0.00087
       7 <- 29         0.00114
       7 <- 32         0.00023
       7 <- 36        -0.00022
       7 <- 43        -0.00030
       7 <- 47         0.00047
       7 <- 50         0.00053
       8 <-  9        -0.00637
       8 <- 12        -0.00386
       8 <- 14         0.01690
       8 <- 15         0.00444
       8 <- 18         0.00142
       8 <- 21         0.00477
       8 <- 25         0.00316
       8 <- 26         0.00046
       8 <- 30        -0.00092
       8 <- 31        -0.00189
       8 <- 34        -0.00148
       8 <- 38         0.00103
       8 <- 39         0.00027
       8 <- 41        -0.00052
       8 <- 46         0.00074
       8 <- 49        -0.00027
 This state for optimization and/or second-order correction.
 Total Energy, E(TD-HF/TD-DFT) =  -113.391145667
 Copying the excited state density for this state as the 1-particle RhoCI density.

 Excited State   2:      Singlet-A2     5.4505 eV  227.47 nm  f=0.0000  <S**2>=0.000
       3 -> 28        -0.00214
       3 -> 35        -0.00149
       3 -> 45        -0.00063
       4 -> 10        -0.00184
       4 -> 13        -0.00366
       4 -> 17        -0.00482
       4 -> 22         0.00260
       4 -> 27        -0.00248
       4 -> 33        -0.00047
       4 -> 37        -0.00215
       4 -> 42        -0.00027
       4 -> 48        -0.00012
       4 -> 52        -0.00041
       5 -> 11         0.00039
       5 -> 19         0.00038
       5 -> 23        -0.00124
       5 -> 32        -0.00016
       5 -> 36        -0.00040
       5 -> 43        -0.00043
       5 -> 47        -0.00048
       5 -> 50         0.00019
       5 -> 53        -0.00014
       6 -> 28        -0.00368
       6 -> 35         0.00056
       6 -> 45         0.00027
       7 -> 28        -0.00019
       7 -> 45        -0.00065
       8 -> 10         0.70382
       8 -> 13         0.06147
       8 -> 17         0.02980
       8 -> 22         0.00033
       8 -> 27         0.00293
       8 -> 33         0.00318
       8 -> 37        -0.00223
       8 -> 48         0.00011
       8 -> 52         0.00053
       3 <- 28        -0.00169
       3 <- 35        -0.00128
       3 <- 45        -0.00062
       4 <- 10        -0.00018
       4 <- 13        -0.00097
       4 <- 17        -0.00058
       4 <- 27        -0.00023
       4 <- 33         0.00088
       4 <- 37        -0.00109
       4 <- 42        -0.00033
       5 <- 11         0.00076
       5 <- 16        -0.00077
       5 <- 19         0.00211
       5 <- 23        -0.00227
       5 <- 24        -0.00155
       5 <- 29        -0.00142
       5 <- 32         0.00041
       5 <- 36        -0.00109
       5 <- 43        -0.00055
       5 <- 47        -0.00042
       5 <- 53        -0.00039
       6 <- 28        -0.00376
       6 <- 35         0.00065
       6 <- 45         0.00028
       7 <- 45        -0.00060
       8 <- 10        -0.00125
       8 <- 13        -0.00728
       8 <- 17        -0.00514
       8 <- 22         0.00024
       8 <- 27        -0.00040
       8 <- 33         0.00302
       8 <- 37        -0.00185
       8 <- 42         0.00012
       8 <- 52         0.00017

 Excited State   3:      Singlet-B2     6.1077 eV  203.00 nm  f=0.0286  <S**2>=0.000
       3 -> 11        -0.00011
       3 -> 16         0.00053
       3 -> 19        -0.00021
       3 -> 23         0.00025
       3 -> 24        -0.00042
       3 -> 29         0.00061
       3 -> 32         0.00013
       3 -> 36        -0.00025
       3 -> 43        -0.00025
       3 -> 47         0.00017
       3 -> 50         0.00015
       3 -> 53        -0.00014
       4 ->  9         0.00296
       4 -> 12         0.00033
       4 -> 14         0.00178
       4 -> 15         0.00329
       4 -> 18        -0.00211
       4 -> 20        -0.00019
       4 -> 21         0.00140
       4 -> 25         0.00082
       4 -> 26         0.00090
       4 -> 30        -0.00142
       4 -> 31        -0.00186
       4 -> 34        -0.00018
       4 -> 38        -0.00012
       4 -> 39        -0.00093
       4 -> 41         0.00041
       4 -> 46         0.00061
       4 -> 49        -0.00023
       4 -> 51        -0.00013
       5 -> 28        -0.00097
       5 -> 35        -0.00131
       5 -> 45        -0.00083
       6 -> 11         0.00120
       6 -> 16         0.00500
       6 -> 19        -0.00033
       6 -> 23        -0.00065
       6 -> 24        -0.00349
       6 -> 29        -0.00166
       6 -> 32         0.00052
       6 -> 36         0.00027
       6 -> 40        -0.00035
       6 -> 43         0.00018
       7 -> 11        -0.00274
       7 -> 16        -0.00189
       7 -> 19        -0.00216
       7 -> 23         0.00110
       7 -> 24         0.00169
       7 -> 32        -0.00027
       7 -> 36         0.00093
       7 -> 40        -0.00024
       7 -> 43         0.00043
       7 -> 47        -0.00066
       7 -> 50        -0.00046
       7 -> 53         0.00018
       8 ->  9         0.00028
       8 -> 12         0.70593
       8 -> 14         0.02455
       8 -> 15         0.02630
       8 -> 18         0.01213
       8 -> 20         0.01578
       8 -> 21         0.00454
       8 -> 25        -0.00069
       8 -> 26         0.00129
       8 -> 30        -0.00212
       8 -> 31        -0.00057
       8 -> 34        -0.00032
       8 -> 39         0.00125
       8 -> 41        -0.00094
       8 -> 46        -0.00062
       8 -> 49         0.00028
       8 -> 54        -0.00015
       3 <- 11         0.00013
       3 <- 16         0.00054
       3 <- 24        -0.00047
       3 <- 29         0.00041
       3 <- 32         0.00014
       3 <- 36        -0.00026
       3 <- 43        -0.00022
       3 <- 47         0.00013
       3 <- 53        -0.00022
       4 <-  9        -0.00132
       4 <- 14         0.00153
       4 <- 15         0.00069
       4 <- 18         0.00064
       4 <- 20        -0.00042
       4 <- 21         0.00096
       4 <- 25         0.00094
       4 <- 26         0.00084
       4 <- 30        -0.00117
       4 <- 31        -0.00078
       4 <- 34        -0.00071
       4 <- 39        -0.00071
       4 <- 41         0.00042
       4 <- 46         0.00059
       4 <- 49        -0.00013
       4 <- 51        -0.00012
       5 <- 28        -0.00053
       5 <- 35        -0.00111
       5 <- 45        -0.00072
       6 <- 16         0.00116
       6 <- 19         0.00080
       6 <- 23        -0.00099
       6 <- 24        -0.00213
       6 <- 29        -0.00096
       6 <- 32         0.00062
       6 <- 36         0.00043
       6 <- 40        -0.00033
       7 <- 11        -0.00032
       7 <- 16        -0.00080
       7 <- 19        -0.00036
       7 <- 23         0.00036
       7 <- 24         0.00068
       7 <- 29        -0.00040
       7 <- 32        -0.00011
       7 <- 36         0.00056
       7 <- 40        -0.00018
       7 <- 43         0.00030
       7 <- 47        -0.00058
       7 <- 50        -0.00049
       8 <-  9        -0.00355
       8 <- 12         0.00134
       8 <- 14         0.00917
       8 <- 15         0.00306
       8 <- 18        -0.00135
       8 <- 20        -0.00262
       8 <- 21         0.00317
       8 <- 25         0.00062
       8 <- 26        -0.00035
       8 <- 30        -0.00183
       8 <- 31        -0.00077
       8 <- 38        -0.00012
       8 <- 39         0.00102
       8 <- 41        -0.00081
       8 <- 46        -0.00051
       8 <- 49         0.00014

 Excited State   4:      Singlet-A1     6.2557 eV  198.19 nm  f=0.0226  <S**2>=0.000
       3 ->  9         0.00121
       3 -> 12        -0.00061
       3 -> 14         0.00011
       3 -> 15        -0.00064
       3 -> 18        -0.00139
       3 -> 21         0.00058
       3 -> 25        -0.00043
       3 -> 26        -0.00019
       3 -> 30         0.00099
       3 -> 31        -0.00016
       3 -> 34         0.00030
       3 -> 38        -0.00031
       3 -> 39         0.00031
       3 -> 46        -0.00010
       3 -> 51         0.00022
       3 -> 54        -0.00017
       4 -> 11        -0.00670
       4 -> 16        -0.00757
       4 -> 19        -0.00486
       4 -> 23        -0.00185
       4 -> 24         0.00350
       4 -> 29        -0.00067
       4 -> 32         0.00012
       4 -> 36        -0.00103
       4 -> 43         0.00028
       4 -> 50         0.00029
       5 -> 10        -0.00498
       5 -> 13         0.00274
       5 -> 17        -0.00433
       5 -> 22        -0.00346
       5 -> 27        -0.00101
       5 -> 33        -0.00093
       5 -> 37        -0.00057
       5 -> 42        -0.00027
       5 -> 48         0.00032
       6 ->  9         0.00789
       6 -> 12         0.01029
       6 -> 14        -0.00569
       6 -> 15        -0.00400
       6 -> 18        -0.00351
       6 -> 20         0.00672
       6 -> 21        -0.00041
       6 -> 25        -0.00663
       6 -> 26         0.00123
       6 -> 30        -0.00080
       6 -> 31         0.00125
       6 -> 34         0.00151
       6 -> 38        -0.00082
       6 -> 39        -0.00122
       6 -> 44         0.00045
       6 -> 46         0.00013
       6 -> 49         0.00042
       7 ->  9         0.01109
       7 -> 12        -0.00796
       7 -> 14        -0.00048
       7 -> 15         0.00191
       7 -> 18        -0.00868
       7 -> 20        -0.00040
       7 -> 25        -0.00046
       7 -> 26        -0.00130
       7 -> 30         0.00027
       7 -> 31        -0.00119
       7 -> 34         0.00079
       7 -> 44        -0.00010
       7 -> 49         0.00017
       7 -> 51        -0.00026
       8 -> 11         0.70511
       8 -> 16         0.04762
       8 -> 19        -0.01417
       8 -> 23         0.00093
       8 -> 24        -0.00353
       8 -> 29         0.00413
       8 -> 32         0.00173
       8 -> 36        -0.00293
       8 -> 40         0.00024
       8 -> 43         0.00170
       8 -> 47        -0.00066
       3 <-  9         0.00059
       3 <- 12        -0.00028
       3 <- 15        -0.00037
       3 <- 18        -0.00084
       3 <- 21         0.00033
       3 <- 25        -0.00037
       3 <- 26        -0.00017
       3 <- 30         0.00065
       3 <- 34         0.00027
       3 <- 38        -0.00022
       3 <- 39         0.00027
       3 <- 46        -0.00015
       3 <- 51         0.00019
       3 <- 54        -0.00016
       4 <- 11        -0.00250
       4 <- 16        -0.00282
       4 <- 19        -0.00265
       4 <- 23        -0.00141
       4 <- 24         0.00186
       4 <- 29        -0.00031
       4 <- 32         0.00022
       4 <- 36        -0.00087
       4 <- 43         0.00025
       4 <- 50         0.00025
       5 <- 10        -0.00236
       5 <- 13         0.00136
       5 <- 17        -0.00237
       5 <- 22        -0.00226
       5 <- 27        -0.00070
       5 <- 33        -0.00074
       5 <- 37        -0.00047
       5 <- 42        -0.00023
       5 <- 48         0.00028
       6 <-  9         0.00713
       6 <- 12         0.00442
       6 <- 14        -0.00442
       6 <- 15        -0.00337
       6 <- 18        -0.00207
       6 <- 20         0.00378
       6 <- 21         0.00057
       6 <- 25        -0.00428
       6 <- 26         0.00067
       6 <- 30        -0.00014
       6 <- 31         0.00119
       6 <- 34         0.00111
       6 <- 38        -0.00089
       6 <- 39        -0.00096
       6 <- 44         0.00047
       6 <- 46         0.00014
       6 <- 49         0.00034
       7 <-  9         0.00335
       7 <- 12        -0.00273
       7 <- 14         0.00014
       7 <- 15         0.00118
       7 <- 18        -0.00405
       7 <- 25        -0.00028
       7 <- 26        -0.00076
       7 <- 30         0.00020
       7 <- 31        -0.00092
       7 <- 34         0.00054
       7 <- 39        -0.00011
       7 <- 44        -0.00011
       7 <- 46         0.00012
       7 <- 49         0.00011
       7 <- 51        -0.00025
       8 <- 11        -0.00645
       8 <- 16         0.00472
       8 <- 19        -0.01369
       8 <- 23        -0.00282
       8 <- 29         0.00260
       8 <- 32         0.00148
       8 <- 36        -0.00224
       8 <- 43         0.00136
       8 <- 47        -0.00069

 Excited State   5:      Singlet-A2     7.7870 eV  159.22 nm  f=0.0000  <S**2>=0.000
       3 -> 28        -0.00259
       3 -> 35        -0.00190
       3 -> 45        -0.00076
       4 -> 10        -0.00326
       4 -> 13        -0.00980
       4 -> 17        -0.00057
       4 -> 22         0.00329
       4 -> 27        -0.00076
       4 -> 33        -0.00175
       4 -> 37        -0.00309
       4 -> 42        -0.00022
       4 -> 52        -0.00048
       5 -> 16         0.00125
       5 -> 19         0.00037
       5 -> 23        -0.00170
       5 -> 24        -0.00033
       5 -> 29         0.00027
       5 -> 32        -0.00012
       5 -> 36        -0.00050
       5 -> 43        -0.00060
       5 -> 47        -0.00054
       5 -> 53        -0.00019
       6 -> 28        -0.00263
       6 -> 35         0.00085
       7 -> 28        -0.00016
       7 -> 35        -0.00011
       7 -> 45        -0.00082
       8 -> 10        -0.06284
       8 -> 13         0.70308
       8 -> 17         0.03369
       8 -> 22        -0.02317
       8 -> 27         0.00307
       8 -> 33         0.00251
       8 -> 37        -0.00248
       8 -> 52         0.00052
       3 <- 28        -0.00173
       3 <- 35        -0.00157
       3 <- 45        -0.00085
       4 <- 10        -0.00034
       4 <- 13        -0.00080
       4 <- 33         0.00061
       4 <- 37        -0.00113
       4 <- 42        -0.00036
       4 <- 52        -0.00015
       5 <- 11        -0.00028
       5 <- 16         0.00036
       5 <- 19         0.00094
       5 <- 23        -0.00266
       5 <- 24        -0.00151
       5 <- 29        -0.00038
       5 <- 32         0.00075
       5 <- 36        -0.00149
       5 <- 43        -0.00085
       5 <- 47        -0.00026
       5 <- 53        -0.00042
       6 <- 28        -0.00306
       6 <- 35         0.00039
       6 <- 45         0.00026
       7 <- 28        -0.00017
       7 <- 35         0.00016
       7 <- 45        -0.00049
       8 <- 10        -0.00692
       8 <- 13        -0.00418
       8 <- 17        -0.00277
       8 <- 22         0.00072
       8 <- 27        -0.00043
       8 <- 33         0.00257
       8 <- 37        -0.00170
       8 <- 42         0.00014
       8 <- 52         0.00020

 Excited State   6:      Singlet-B2     9.3660 eV  132.38 nm  f=0.1051  <S**2>=0.000
       3 -> 11         0.00037
       3 -> 16        -0.00076
       3 -> 19         0.00076
       3 -> 23        -0.00039
       3 -> 24         0.00026
       3 -> 29        -0.00067
       3 -> 32         0.00055
       3 -> 40        -0.00039
       3 -> 43        -0.00030
       3 -> 47        -0.00022
       4 ->  9         0.00422
       4 -> 12        -0.00492
       4 -> 14        -0.01041
       4 -> 18        -0.00206
       4 -> 20        -0.00643
       4 -> 21        -0.00812
       4 -> 25        -0.00311
       4 -> 26        -0.00034

 The electronic state is 1-A1.
 Alpha  occ. eigenvalues --  -19.15523 -10.25719  -1.32606  -0.70308  -0.66623
 Alpha  occ. eigenvalues --   -0.57872  -0.54672  -0.21838
 Alpha virt. eigenvalues --    0.01189   0.02728   0.04438   0.04562   0.12383
 Alpha virt. eigenvalues --    0.14427   0.17649   0.19415   0.21704   0.24660
 Alpha virt. eigenvalues --    0.25414   0.36546   0.50591   0.55387   0.56322

 Mulliken charges:
               1
     1  C    0.330807
     2  H   -0.058732
     3  H   -0.058732
     4  O   -0.213343
 Sum of Mulliken charges =   0.00000

 Dipole moment (field-independent basis, Debye):
    X=              0.0000    Y=              0.0000    Z=              0.4878  Tot=              0.4878
 Quadrupole moment (field-independent basis, Debye-Ang):
   XX=            -10.4308   YY=            -13.0338   ZZ=            -13.4936
   XY=             -0.0000   XZ=             -0.0000   YZ=              0.0000

 Normal termination of Gaussian 16 at Fri Sep 17 10:52:24 2021.
