 Gaussian 16, Revision C.01,
 Gaussian 16:  ES64L-G16RevC.01  3-Jul-2019

 ----------------------------------------
 #P wB97XD/6-311+G* NoSymm #P Field=Z+116
 ----------------------------------------

 -------
 TitleMe
 -------
 Symbolic Z-matrix:
 Charge =  1 Multiplicity = 1

                          Input orientation:
 ---------------------------------------------------------------------
 Center     Atomic      Atomic             Coordinates (Angstroms)
 Number     Number       Type             X           Y           Z
 ---------------------------------------------------------------------
      1          6           0        0.029500    1.339700    0.068200
      2          6           0        1.434800    1.286700    0.006400
      3          6           0        2.111800    0.051100   -0.005400
      4          6           0        1.445100   -1.137200    0.031200
      5          6           0       -0.687900    0.168200    0.110000
      6          1           0       -0.471300    2.298400    0.078100
      7          1           0        2.027300    2.196500   -0.032200
      8          1           0        1.989700   -2.076400    0.023200
      9          1           0       -1.771600    0.180400    0.158200
     10          7           0        3.586400    0.051000   -0.067500
     11          8           0        4.147100   -1.059700   -0.088100
     12          8           0        4.145000    1.163900   -0.090100
     13          6           0       -0.023600   -1.145800    0.083500
     14          1           0       -0.436700   -1.872500    0.788900
     15         35           0       -0.535900   -1.869700   -1.740800
 ---------------------------------------------------------------------

 SCF Done:  E(RwB97XD) =  -3010.54002886     A.U. after   18 cycles

 Alpha  occ. eigenvalues -- -483.29381 -62.84377 -56.64101 -56.63486 -56.63484
 Alpha  occ. eigenvalues --  -19.45227 -19.45164 -14.84728 -10.57250 -10.56671
 Alpha  occ. eigenvalues --  -10.56445 -10.56232 -10.56022 -10.52279  -9.00163
 Alpha  occ. eigenvalues --   -6.82922  -6.80919  -6.80906  -2.92807  -2.92276
 Alpha  occ. eigenvalues --   -2.92264  -2.90663  -2.90663  -1.48992  -1.31971
 Alpha  occ. eigenvalues --   -1.21814  -1.13072  -1.10941  -1.02795  -1.00330
 Alpha  occ. eigenvalues --   -0.94601  -0.90204  -0.84612  -0.80097  -0.79897
 Alpha  occ. eigenvalues --   -0.79305  -0.77637  -0.75421  -0.75194  -0.71217
 Alpha  occ. eigenvalues --   -0.68575  -0.66810  -0.62513  -0.59044  -0.56431
 Alpha  occ. eigenvalues --   -0.55513  -0.54984  -0.54159  -0.53367
 Alpha virt. eigenvalues --   -0.28637  -0.20664  -0.14564  -0.12593  -0.10141
 Alpha virt. eigenvalues --   -0.07404  -0.07044  -0.05489  -0.03692  -0.03335
 Alpha virt. eigenvalues --   -0.02319  -0.00924  -0.00578   0.00332   0.01239

 Mulliken charges:
               1
     1  C   -0.556657
     2  C    0.474171
     3  C   -0.701672
     4  C    0.269216
     5  C   -0.034941
     6  H    0.331207
     7  H    0.366422
     8  H    0.371365
     9  H    0.347259
    10  N   -0.110155
    11  O    0.031912
    12  O    0.029222
    13  C   -0.462518
    14  H    0.363141
    15  Br   0.282028
 Sum of Mulliken charges =   1.00000

 Dipole moment (field-independent basis, Debye):
    X=             -1.1128    Y=             -1.0323    Z=             -2.0375  Tot=              2.5408
 Quadrupole moment (field-independent basis, Debye-Ang):
   XX=            -71.6576   YY=            -51.3978   ZZ=            -60.5690
   XY=              1.6279   XZ=              0.1792   YZ=              3.3755

 Normal termination of Gaussian 16 at Wed May  1 15:26:27 2024.
