 Gaussian 16, Revision C.01,
 Gaussian 16:  ES64L-G16RevC.01  3-Jul-2019

 ----------------------------------------
 #P wB97XD/6-311+G* NoSymm #P Field=X-136
 ----------------------------------------

 -------
 TitleMe
 -------
 Symbolic Z-matrix:
 Charge =  1 Multiplicity = 1

                          Input orientation:
 ---------------------------------------------------------------------
 Center     Atomic      Atomic             Coordinates (Angstroms)
 Number     Number       Type             X           Y           Z
 ---------------------------------------------------------------------
      1          6           0        0.029500    1.339700    0.068200
      2          6           0        1.434800    1.286700    0.006400
      3          6           0        2.111800    0.051100   -0.005400
      4          6           0        1.445100   -1.137200    0.031200
      5          6           0       -0.687900    0.168200    0.110000
      6          1           0       -0.471300    2.298400    0.078100
      7          1           0        2.027300    2.196500   -0.032200
      8          1           0        1.989700   -2.076400    0.023200
      9          1           0       -1.771600    0.180400    0.158200
     10          7           0        3.586400    0.051000   -0.067500
     11          8           0        4.147100   -1.059700   -0.088100
     12          8           0        4.145000    1.163900   -0.090100
     13          6           0       -0.023600   -1.145800    0.083500
     14          1           0       -0.436700   -1.872500    0.788900
     15         35           0       -0.535900   -1.869700   -1.740800
 ---------------------------------------------------------------------

 SCF Done:  E(RwB97XD) =  -3010.54180140     A.U. after   23 cycles

 Alpha  occ. eigenvalues -- -483.30330 -62.85374 -56.65039 -56.64505 -56.64503
 Alpha  occ. eigenvalues --  -19.38837 -19.38768 -14.78449 -10.57081 -10.55176
 Alpha  occ. eigenvalues --  -10.54932 -10.54082 -10.53653 -10.51584  -9.01194
 Alpha  occ. eigenvalues --   -6.83796  -6.82041  -6.82027  -2.93719  -2.93251
 Alpha  occ. eigenvalues --   -2.93238  -2.91834  -2.91833  -1.42591  -1.25483
 Alpha  occ. eigenvalues --   -1.20383  -1.11706  -1.09430  -1.02946  -0.97201
 Alpha  occ. eigenvalues --   -0.93284  -0.88121  -0.82218  -0.78037  -0.76769
 Alpha  occ. eigenvalues --   -0.75006  -0.74302  -0.73039  -0.70244  -0.68998
 Alpha  occ. eigenvalues --   -0.67336  -0.65144  -0.61502  -0.58345  -0.55848
 Alpha  occ. eigenvalues --   -0.53840  -0.49791  -0.48478  -0.48266
 Alpha virt. eigenvalues --   -0.27735  -0.16903  -0.14416  -0.11919  -0.09444
 Alpha virt. eigenvalues --   -0.08376  -0.06838  -0.06099  -0.03384  -0.02541
 Alpha virt. eigenvalues --   -0.01942  -0.00726  -0.00590  -0.00203   0.00452

 Mulliken charges:
               1
     1  C   -0.537018
     2  C    0.450682
     3  C   -0.659782
     4  C    0.326713
     5  C   -0.028008
     6  H    0.305301
     7  H    0.389797
     8  H    0.393473
     9  H    0.286738
    10  N   -0.115068
    11  O    0.094332
    12  O    0.091810
    13  C   -0.484089
    14  H    0.381822
    15  Br   0.103298
 Sum of Mulliken charges =   1.00000

 Dipole moment (field-independent basis, Debye):
    X=              3.2676    Y=             -0.1355    Z=              0.3053  Tot=              3.2846
 Quadrupole moment (field-independent basis, Debye-Ang):
   XX=            -61.8561   YY=            -52.4781   ZZ=            -63.6660
   XY=              0.5944   XZ=              0.0525   YZ=              0.7335

 Normal termination of Gaussian 16 at Wed May  1 14:50:37 2024.
