 Gaussian 16, Revision C.01,
 Gaussian 16:  ES64L-G16RevC.01  3-Jul-2019

 ----------------------------------------
 #P wB97XD/6-311+G* NoSymm #P Field=Z-223
 ----------------------------------------

 -------
 TitleMe
 -------
 Symbolic Z-matrix:
 Charge =  1 Multiplicity = 1

                          Input orientation:
 ---------------------------------------------------------------------
 Center     Atomic      Atomic             Coordinates (Angstroms)
 Number     Number       Type             X           Y           Z
 ---------------------------------------------------------------------
      1          6           0        0.029500    1.339700    0.068200
      2          6           0        1.434800    1.286700    0.006400
      3          6           0        2.111800    0.051100   -0.005400
      4          6           0        1.445100   -1.137200    0.031200
      5          6           0       -0.687900    0.168200    0.110000
      6          1           0       -0.471300    2.298400    0.078100
      7          1           0        2.027300    2.196500   -0.032200
      8          1           0        1.989700   -2.076400    0.023200
      9          1           0       -1.771600    0.180400    0.158200
     10          7           0        3.586400    0.051000   -0.067500
     11          8           0        4.147100   -1.059700   -0.088100
     12          8           0        4.145000    1.163900   -0.090100
     13          6           0       -0.023600   -1.145800    0.083500
     14          1           0       -0.436700   -1.872500    0.788900
     15         35           0       -0.535900   -1.869700   -1.740800
 ---------------------------------------------------------------------

 SCF Done:  E(RwB97XD) =  -3010.55211095     A.U. after   21 cycles

 Alpha  occ. eigenvalues -- -483.34864 -62.89935 -56.69560 -56.69083 -56.69082
 Alpha  occ. eigenvalues --  -19.46695 -19.46601 -14.86181 -10.60071 -10.58671
 Alpha  occ. eigenvalues --  -10.58181 -10.58001 -10.57681 -10.53808  -9.05773
 Alpha  occ. eigenvalues --   -6.88265  -6.86681  -6.86673  -2.98214  -2.97787
 Alpha  occ. eigenvalues --   -2.97779  -2.96511  -2.96511  -1.50424  -1.33395
 Alpha  occ. eigenvalues --   -1.23830  -1.15815  -1.12818  -1.07132  -1.01924
 Alpha  occ. eigenvalues --   -0.96610  -0.91912  -0.86073  -0.81689  -0.81468
 Alpha  occ. eigenvalues --   -0.80807  -0.79127  -0.76941  -0.76836  -0.74148
 Alpha  occ. eigenvalues --   -0.70334  -0.68545  -0.65350  -0.62693  -0.60622
 Alpha  occ. eigenvalues --   -0.57978  -0.57694  -0.56847  -0.56370
 Alpha virt. eigenvalues --   -0.31204  -0.22191  -0.19483  -0.17113  -0.14826
 Alpha virt. eigenvalues --   -0.13192  -0.11869  -0.09277  -0.07900  -0.07640
 Alpha virt. eigenvalues --   -0.05376  -0.04533  -0.03555  -0.02546  -0.02234

 Mulliken charges:
               1
     1  C   -0.623832
     2  C    0.583430
     3  C   -0.733204
     4  C    0.308317
     5  C    0.069038
     6  H    0.344722
     7  H    0.370971
     8  H    0.382542
     9  H    0.362132
    10  N   -0.108815
    11  O    0.035690
    12  O    0.031184
    13  C   -0.468641
    14  H    0.480398
    15  Br  -0.033934
 Sum of Mulliken charges =   1.00000

 Dipole moment (field-independent basis, Debye):
    X=             -0.2865    Y=              0.2325    Z=              3.8521  Tot=              3.8697
 Quadrupole moment (field-independent basis, Debye-Ang):
   XX=            -70.5239   YY=            -53.1828   ZZ=            -67.2433
   XY=              0.7113   XZ=              2.8823   YZ=             -1.6525

 Normal termination of Gaussian 16 at Wed May  1 15:18:29 2024.
