 Gaussian 16, Revision A.03,
 Gaussian 16:  ES64L-G16RevA.03 25-Dec-2016

 --------------------------------------------------------------------
 #p B3LYP/6-311+G** #p TD=(singlets,nstates=30)IOp(6/8=3) IOp(9/40=4)
 --------------------------------------------------------------------

 -------------------------------
 Scan Step 13, Bond Length 0.565
 -------------------------------
 Symbolic Z-matrix:
 Charge =  0 Multiplicity = 1

                         Standard orientation:
 ---------------------------------------------------------------------
 Center     Atomic      Atomic             Coordinates (Angstroms)
 Number     Number       Type             X           Y           Z
 ---------------------------------------------------------------------
      1          6           0        0.000000    0.000000   -0.208581
      2          1           0        0.000000    0.937260   -0.799931
      3          1           0       -0.000000   -0.937260   -0.799931
      4          8           0        0.000000   -0.000000    0.356419
 ---------------------------------------------------------------------

 SCF Done:  E(RB3LYP) =  -110.782111800     A.U. after   10 cycles

 Excitation energies and oscillator strengths:

 Excited State   1:      Singlet-B2     4.4064 eV  281.37 nm  f=0.1477  <S**2>=0.000
       3 -> 11         0.00074
       3 -> 15         0.00117
       3 -> 19         0.00075
       3 -> 22         0.00102
       3 -> 25         0.00136
       3 -> 31        -0.00031
       3 -> 40        -0.00048
       3 -> 43         0.00024
       3 -> 54         0.00016
       4 ->  9        -0.00247
       4 -> 12         0.00177
       4 -> 13         0.00294
       4 -> 16         0.00124
       4 -> 17         0.00179
       4 -> 20         0.00207
       4 -> 21         0.00154
       4 -> 24         0.00114
       4 -> 26        -0.00072
       4 -> 30         0.00148
       4 -> 32        -0.00090
       4 -> 33        -0.00062
       4 -> 38        -0.00051
       4 -> 42         0.00044
       4 -> 44        -0.00025
       4 -> 47        -0.00068
       4 -> 49        -0.00011
       4 -> 53        -0.00014
       5 -> 28         0.00213
       5 -> 35         0.00096
       5 -> 45         0.00067
       6 -> 11        -0.00812
       6 -> 15         0.00238
       6 -> 19        -0.00156
       6 -> 22        -0.00011
       6 -> 25         0.00387
       6 -> 29         0.00098
       6 -> 31        -0.00072
       6 -> 40        -0.00015
       6 -> 43         0.00018
       6 -> 46         0.00025
       7 -> 11         0.00863
       7 -> 15         0.00482
       7 -> 19         0.00389
       7 -> 22         0.00067
       7 -> 25         0.00203
       7 -> 29        -0.00101
       7 -> 31         0.00103
       7 -> 37        -0.00063
       7 -> 43        -0.00033
       7 -> 46         0.00046
       7 -> 50         0.00041
       7 -> 54        -0.00015
       8 ->  9         0.70432
       8 -> 12        -0.00544
       8 -> 13         0.06291
       8 -> 16        -0.00574
       8 -> 17        -0.02376
       8 -> 20         0.00590
       8 -> 21         0.01151
       8 -> 24        -0.00051
       8 -> 26        -0.00103
       8 -> 30        -0.00352
       8 -> 32         0.00203
       8 -> 33         0.00047
       8 -> 38        -0.00097
       8 -> 39        -0.00022
       8 -> 42         0.00074
       8 -> 44         0.00054
       8 -> 47         0.00056
       8 -> 49         0.00026
       3 <- 11         0.00037
       3 <- 15         0.00079
       3 <- 19         0.00045
       3 <- 22         0.00086
       3 <- 25         0.00104
       3 <- 31        -0.00033
       3 <- 37         0.00011
       3 <- 40        -0.00047
       3 <- 43         0.00025
       3 <- 54         0.00017
       4 <-  9        -0.00097
       4 <- 12        -0.00013
       4 <- 13         0.00241
       4 <- 16         0.00135
       4 <- 20         0.00137
       4 <- 21         0.00128
       4 <- 24         0.00067
       4 <- 26        -0.00126
       4 <- 30         0.00115
       4 <- 32        -0.00044
       4 <- 33        -0.00019
       4 <- 38        -0.00034
       4 <- 39         0.00014
       4 <- 42         0.00035
       4 <- 44        -0.00021
       4 <- 47        -0.00063
       5 <- 28         0.00183
       5 <- 35         0.00079
       5 <- 45         0.00057
       6 <- 11        -0.00258
       6 <- 15         0.00267
       6 <- 19        -0.00057
       6 <- 22         0.00043
       6 <- 25         0.00301
       6 <- 29         0.00062
       6 <- 31        -0.00065
       6 <- 40        -0.00015
       6 <- 43         0.00014
       6 <- 46         0.00022
       7 <- 11         0.00213
       7 <- 15         0.00235
       7 <- 19         0.00098
       7 <- 22         0.00034
       7 <- 25         0.00123
       7 <- 29        -0.00168
       7 <- 31         0.00089
       7 <- 37        -0.00039
       7 <- 43        -0.00022
       7 <- 46         0.00049
       7 <- 50         0.00051
       8 <-  9        -0.01360
       8 <- 12        -0.00746
       8 <- 13         0.02588
       8 <- 16         0.00763
       8 <- 17        -0.00024
       8 <- 20         0.00147
       8 <- 21         0.00619
       8 <- 24         0.00271
       8 <- 26        -0.00083
       8 <- 30        -0.00241
       8 <- 32         0.00191
       8 <- 33        -0.00013
       8 <- 38        -0.00095
       8 <- 39        -0.00026
       8 <- 42         0.00069
       8 <- 44         0.00023
       8 <- 47         0.00050
       8 <- 49         0.00016
 This state for optimization and/or second-order correction.
 Total Energy, E(TD-HF/TD-DFT) =  -110.620180455
 Copying the excited state density for this state as the 1-particle RhoCI density.

 Excited State   2:      Singlet-A2     4.7939 eV  258.63 nm  f=0.0000  <S**2>=0.000
       3 -> 28        -0.00199
       3 -> 35        -0.00102
       3 -> 45        -0.00030
       4 -> 10        -0.00077
       4 -> 14        -0.00079
       4 -> 18        -0.00214
       4 -> 23        -0.00059
       4 -> 27        -0.00190
       4 -> 34         0.00026
       4 -> 36        -0.00102
       4 -> 48        -0.00015
       4 -> 52        -0.00020
       5 -> 11         0.00018
       5 -> 15        -0.00020
       5 -> 19         0.00030
       5 -> 22        -0.00066
       5 -> 25         0.00024
       5 -> 29         0.00036
       5 -> 37        -0.00032
       5 -> 40         0.00015
       5 -> 43        -0.00035
       5 -> 46        -0.00026
       5 -> 50         0.00016
       6 -> 28        -0.00317
       6 -> 35         0.00074
       6 -> 45         0.00018
       7 -> 28         0.00143
       7 -> 35        -0.00021
       7 -> 45        -0.00025
       8 -> 10         0.70669
       8 -> 14        -0.00283
       8 -> 18         0.02505
       8 -> 23        -0.00361
       8 -> 34         0.00350
       8 -> 36        -0.00141
       8 -> 41         0.00063
       8 -> 48         0.00015
       8 -> 52         0.00027
       3 <- 28        -0.00167
       3 <- 35        -0.00088
       3 <- 45        -0.00029
       4 <- 10        -0.00021
       4 <- 14         0.00025
       4 <- 18        -0.00080
       4 <- 23        -0.00013
       4 <- 27        -0.00050
       4 <- 34         0.00063
       4 <- 36        -0.00062
       5 <- 11         0.00043
       5 <- 15        -0.00045
       5 <- 19         0.00100
       5 <- 22        -0.00081
       5 <- 25         0.00065
       5 <- 29         0.00117
       5 <- 31         0.00011
       5 <- 37        -0.00055
       5 <- 40         0.00011
       5 <- 43        -0.00039
       5 <- 46        -0.00029
       5 <- 54        -0.00017
       6 <- 28        -0.00311
       6 <- 35         0.00088
       6 <- 45         0.00017
       7 <- 28         0.00143
       7 <- 35        -0.00033
       7 <- 45        -0.00029
       8 <- 10         0.00288
       8 <- 14         0.00195
       8 <- 18        -0.00754
       8 <- 23        -0.00013
       8 <- 27        -0.00086
       8 <- 34         0.00332
       8 <- 36        -0.00114
       8 <- 41         0.00035
       8 <- 52         0.00011

 Excited State   3:      Singlet-B2     5.5098 eV  225.02 nm  f=0.0388  <S**2>=0.000
       3 -> 11        -0.00026
       3 -> 15         0.00040
       3 -> 19        -0.00049
       3 -> 22         0.00024
       3 -> 29        -0.00013
       3 -> 31         0.00013
       3 -> 37        -0.00015
       3 -> 40         0.00022
       3 -> 43        -0.00017
       3 -> 54        -0.00019
       4 ->  9         0.00080
       4 -> 12         0.00012
       4 -> 13         0.00085
       4 -> 16         0.00163
       4 -> 17        -0.00081
       4 -> 20        -0.00056
       4 -> 21         0.00089
       4 -> 24         0.00089
       4 -> 26         0.00011
       4 -> 30        -0.00201
       4 -> 32         0.00013
       4 -> 38         0.00045
       4 -> 39        -0.00088
       4 -> 42        -0.00030
       4 -> 47         0.00038
       5 -> 28        -0.00099
       5 -> 35        -0.00109
       5 -> 45        -0.00057
       6 -> 11        -0.00091
       6 -> 15         0.00409
       6 -> 19        -0.00200
       6 -> 22        -0.00029
       6 -> 25         0.00166
       6 -> 29         0.00227
       6 -> 31         0.00054
       6 -> 37         0.00045
       6 -> 40         0.00038
       6 -> 43         0.00028
       6 -> 46        -0.00019
       6 -> 50        -0.00019
       6 -> 54         0.00014
       7 -> 11        -0.00106
       7 -> 15        -0.00377
       7 -> 19        -0.00116
       7 -> 22        -0.00019
       7 -> 25        -0.00281
       7 -> 29        -0.00097
       7 -> 31        -0.00044
       7 -> 37         0.00054
       7 -> 40         0.00015
       7 -> 46        -0.00058
       7 -> 50        -0.00026
       7 -> 54         0.00018
       8 ->  9         0.00247
       8 -> 12         0.70539
       8 -> 13         0.04184
       8 -> 16         0.02437
       8 -> 17         0.00247
       8 -> 20         0.01560
       8 -> 21         0.00533
       8 -> 24        -0.00102
       8 -> 26         0.00204
       8 -> 30        -0.00316
       8 -> 32        -0.00044
       8 -> 33        -0.00027
       8 -> 38        -0.00084
       8 -> 39         0.00131
       8 -> 42         0.00094
       8 -> 44        -0.00017
       8 -> 47        -0.00020
       8 -> 51        -0.00012
       8 -> 53        -0.00012
       3 <- 15         0.00031
       3 <- 19        -0.00018
       3 <- 25         0.00019
       3 <- 31         0.00015
       3 <- 37        -0.00018
       3 <- 40         0.00019
       3 <- 43        -0.00017
       3 <- 54        -0.00023
       4 <-  9        -0.00098
       4 <- 12        -0.00021
       4 <- 13         0.00095
       4 <- 16         0.00065
       4 <- 17         0.00045
       4 <- 20        -0.00036
       4 <- 21         0.00062
       4 <- 24         0.00093
       4 <- 26         0.00026
       4 <- 30        -0.00139
       4 <- 32         0.00024
       4 <- 33        -0.00046
       4 <- 38         0.00029
       4 <- 39        -0.00063
       4 <- 42        -0.00033
       4 <- 44         0.00010
       4 <- 47         0.00035
       5 <- 28        -0.00064
       5 <- 35        -0.00096
       5 <- 45        -0.00052
       6 <- 11        -0.00081
       6 <- 15         0.00084
       6 <- 19         0.00011
       6 <- 22        -0.00055
       6 <- 25         0.00156
       6 <- 29         0.00174
       6 <- 31         0.00071
       6 <- 37         0.00045
       6 <- 40         0.00030
       6 <- 43         0.00022
       6 <- 46        -0.00015
       6 <- 50        -0.00013
       6 <- 54         0.00012
       7 <- 11         0.00035
       7 <- 15        -0.00129
       7 <- 19        -0.00053
       7 <- 22        -0.00017
       7 <- 25        -0.00172
       7 <- 29        -0.00020
       7 <- 31        -0.00032
       7 <- 37         0.00022
       7 <- 46        -0.00051
       7 <- 50        -0.00034
       8 <-  9        -0.00683
       8 <- 12         0.00065
       8 <- 13         0.01275
       8 <- 16         0.00476
       8 <- 17        -0.00187
       8 <- 20        -0.00328
       8 <- 21         0.00319
       8 <- 24         0.00054
       8 <- 30        -0.00248
       8 <- 32        -0.00041
       8 <- 33        -0.00035
       8 <- 38        -0.00069
       8 <- 39         0.00123
       8 <- 42         0.00082
       8 <- 44        -0.00012
       8 <- 47        -0.00017

 Excited State   4:      Singlet-A1     5.7620 eV  215.17 nm  f=0.0001  <S**2>=0.000
       3 ->  9         0.00168
       3 -> 12        -0.00028
       3 -> 13         0.00013
       3 -> 16        -0.00113
       3 -> 17        -0.00184
       3 -> 20        -0.00012
       3 -> 21         0.00105
       3 -> 24        -0.00120
       3 -> 26        -0.00037
       3 -> 30         0.00066
       3 -> 32         0.00037
       3 -> 33         0.00099
       3 -> 38         0.00056
       3 -> 39         0.00033
       3 -> 44        -0.00020
       3 -> 51        -0.00011
       3 -> 53         0.00016
       4 -> 11        -0.00536
       4 -> 15        -0.00473
       4 -> 19        -0.00480
       4 -> 22        -0.00276
       4 -> 25        -0.00318
       4 -> 29        -0.00087
       4 -> 37        -0.00084
       4 -> 40        -0.00013
       4 -> 43         0.00016
       4 -> 46        -0.00012
       5 -> 10        -0.00211
       5 -> 14        -0.00392
       5 -> 18        -0.00029
       5 -> 23         0.00378
       5 -> 27        -0.00014
       5 -> 34        -0.00065
       5 -> 36        -0.00056
       6 ->  9         0.01038
       6 -> 12         0.00814
       6 -> 13        -0.00311
       6 -> 16        -0.00684
       6 -> 17        -0.00504
       6 -> 20         0.00387
       6 -> 21         0.00292
       6 -> 24        -0.00493
       6 -> 26         0.00217
       6 -> 30        -0.00040
       6 -> 32        -0.00357
       6 -> 33         0.00012
       6 -> 38         0.00184
       6 -> 39        -0.00109
       6 -> 42        -0.00035
       6 -> 44         0.00094
       6 -> 47        -0.00021
       6 -> 49        -0.00038
       6 -> 51        -0.00015
       7 ->  9         0.01169
       7 -> 12        -0.01165
       7 -> 13        -0.00163
       7 -> 16         0.00577
       7 -> 17        -0.01021
       7 -> 20        -0.00302
       7 -> 21        -0.00222
       7 -> 24        -0.00045
       7 -> 26        -0.00405
       7 -> 30        -0.00105
       7 -> 32         0.00064
       7 -> 33         0.00114
       7 -> 38        -0.00098
       7 -> 39         0.00026
       7 -> 42         0.00015
       7 -> 44        -0.00017
       7 -> 51         0.00011
       7 -> 53        -0.00014
       8 -> 11         0.70428
       8 -> 15         0.05720
       8 -> 19        -0.02385
       8 -> 22        -0.00151
       8 -> 25         0.01043
       8 -> 29        -0.00230
       8 -> 31         0.00228
       8 -> 37        -0.00366
       8 -> 40        -0.00090
       8 -> 43         0.00188
       8 -> 46        -0.00119
       8 -> 50         0.00024
       3 <-  9         0.00106
       3 <- 13         0.00012
       3 <- 16        -0.00078
       3 <- 17        -0.00120
       3 <- 21         0.00079
       3 <- 24        -0.00090
       3 <- 26        -0.00030
       3 <- 30         0.00054
       3 <- 32         0.00025
       3 <- 33         0.00078
       3 <- 38         0.00046
       3 <- 39         0.00028
       3 <- 44        -0.00017
       3 <- 51        -0.00010
       3 <- 53         0.00014
       4 <- 11        -0.00247
       4 <- 15        -0.00208
       4 <- 19        -0.00292
       4 <- 22        -0.00193
       4 <- 25        -0.00187
       4 <- 29        -0.00064
       4 <- 37        -0.00071
       4 <- 40        -0.00013
       4 <- 43         0.00016
       5 <- 10        -0.00130
       5 <- 14        -0.00251
       5 <- 18        -0.00019
       5 <- 23         0.00277
       5 <- 34        -0.00055
       5 <- 36        -0.00048
       6 <-  9         0.00815
       6 <- 12         0.00407
       6 <- 13        -0.00274
       6 <- 16        -0.00496
       6 <- 17        -0.00256
       6 <- 20         0.00192
       6 <- 21         0.00292
       6 <- 24        -0.00339
       6 <- 26         0.00155
       6 <- 32        -0.00267
       6 <- 38         0.00171
       6 <- 39        -0.00076
       6 <- 42        -0.00031
       6 <- 44         0.00088
       6 <- 47        -0.00014
       6 <- 49        -0.00034
       6 <- 51        -0.00015
       7 <-  9         0.00176
       7 <- 12        -0.00457
       7 <- 13         0.00020
       7 <- 16         0.00373
       7 <- 17        -0.00491
       7 <- 20        -0.00122
       7 <- 21        -0.00177
       7 <- 24        -0.00017
       7 <- 26        -0.00280
       7 <- 30        -0.00087
       7 <- 32         0.00050
       7 <- 33         0.00087
       7 <- 38        -0.00083
       7 <- 44        -0.00018
       7 <- 53        -0.00012
       8 <- 11        -0.01511
       8 <- 15         0.00502
       8 <- 19        -0.01713
       8 <- 22        -0.00465
       8 <- 25         0.00588
       8 <- 29        -0.00190
       8 <- 31         0.00209
       8 <- 37        -0.00297
       8 <- 40        -0.00051
       8 <- 43         0.00154
       8 <- 46        -0.00109
       8 <- 50         0.00025

 Excited State   5:      Singlet-A2     8.5106 eV  145.68 nm  f=0.0000  <S**2>=0.000
       3 -> 28         0.00189
       3 -> 35         0.00099
       3 -> 45         0.00024
       4 -> 10        -0.00099
       4 -> 14        -0.00406
       4 -> 18         0.00162
       4 -> 23         0.00249
       4 -> 27         0.00020
       4 -> 34         0.00030
       4 -> 36         0.00145
       4 -> 41        -0.00031
       5 -> 19        -0.00039
       5 -> 22         0.00078
       5 -> 25        -0.00062
       5 -> 29        -0.00018
       5 -> 37         0.00028
       5 -> 40        -0.00015
       5 -> 43         0.00041
       5 -> 46         0.00025
       6 -> 28         0.00206
       6 -> 35        -0.00060
       7 -> 28        -0.00118
       7 -> 45         0.00018
       8 -> 10         0.00522
       8 -> 14         0.70334
       8 -> 18        -0.07096
       8 -> 23        -0.01555
       8 -> 27        -0.00117
       8 -> 34        -0.00229
       8 -> 36         0.00230
       8 -> 41        -0.00027
       8 -> 52        -0.00024
       3 <- 28         0.00135
       3 <- 35         0.00078
       3 <- 45         0.00026
       4 <- 10         0.00026
       4 <- 14        -0.00022
       4 <- 18         0.00061
       4 <- 23         0.00020
       4 <- 27         0.00030
       4 <- 34        -0.00043
       4 <- 36         0.00057
       5 <- 11         0.00044
       5 <- 22         0.00082
       5 <- 25        -0.00098
       5 <- 29        -0.00014
       5 <- 31        -0.00033
       5 <- 37         0.00063
       5 <- 43         0.00042
       5 <- 54         0.00011
       6 <- 28         0.00209
       6 <- 35        -0.00058
       6 <- 45        -0.00015
       7 <- 28        -0.00085
       7 <- 35        -0.00010
       8 <- 10         0.00256
       8 <- 14         0.00040
       8 <- 18         0.00446
       8 <- 23         0.00083
       8 <- 27         0.00027
       8 <- 34        -0.00252
       8 <- 36         0.00100
       8 <- 41        -0.00023

 Excited State   6:      Singlet-B2     8.7519 eV  141.67 nm  f=0.1416  <S**2>=0.000
       3 -> 11         0.00071
       3 -> 15        -0.00135
       3 -> 19         0.00153
       3 -> 22        -0.00106
       3 -> 25        -0.00044
       3 -> 29         0.00101
       3 -> 31         0.00068
       3 -> 40         0.00065
       3 -> 43        -0.00030
       4 ->  9         0.00207
       4 -> 12        -0.00224
       4 -> 13        -0.00533

 The electronic state is 1-A1.
 Alpha  occ. eigenvalues --  -19.34208 -10.53564  -1.22408  -0.93672  -0.91184
 Alpha  occ. eigenvalues --   -0.57615  -0.50047  -0.19489
 Alpha virt. eigenvalues --   -0.00038   0.02387   0.04429   0.04700   0.14045
 Alpha virt. eigenvalues --    0.16525   0.17269   0.18243   0.21637   0.22128
 Alpha virt. eigenvalues --    0.28977   0.36690   0.50571   0.57355   0.62514

 Mulliken charges:
               1
     1  C    0.159653
     2  H   -0.136512
     3  H   -0.136512
     4  O    0.113371
 Sum of Mulliken charges =  -0.00000

 Dipole moment (field-independent basis, Debye):
    X=              0.0000    Y=              0.0000    Z=              1.7126  Tot=              1.7126
 Quadrupole moment (field-independent basis, Debye-Ang):
   XX=             -9.9854   YY=            -14.4042   ZZ=            -13.7546
   XY=             -0.0000   XZ=             -0.0000   YZ=              0.0000

 Normal termination of Gaussian 16 at Fri Sep 17 10:52:16 2021.
