 Gaussian 16, Revision A.03,
 Gaussian 16:  ES64L-G16RevA.03 25-Dec-2016

 --------------------------------------------------------------------
 #p B3LYP/6-311+G** #p TD=(singlets,nstates=30)IOp(6/8=3) IOp(9/40=4)
 --------------------------------------------------------------------

 -------------------------------
 Scan Step 176, Bond Length 1.38
 -------------------------------
 Symbolic Z-matrix:
 Charge =  0 Multiplicity = 1

                         Standard orientation:
 ---------------------------------------------------------------------
 Center     Atomic      Atomic             Coordinates (Angstroms)
 Number     Number       Type             X           Y           Z
 ---------------------------------------------------------------------
      1          6           0        0.000000    0.000000   -0.616081
      2          1           0        0.000000    0.937260   -1.207431
      3          1           0       -0.000000   -0.937260   -1.207431
      4          8           0        0.000000   -0.000000    0.763919
 ---------------------------------------------------------------------

 SCF Done:  E(RB3LYP) =  -114.507362461     A.U. after    9 cycles

 Excitation energies and oscillator strengths:

 Excited State   1:      Singlet-A2     2.9647 eV  418.20 nm  f=0.0000  <S**2>=0.000
       3 -> 27         0.00187
       3 -> 38         0.00153
       3 -> 46         0.00295
       4 -> 27         0.00125
       4 -> 38        -0.00034
       4 -> 46        -0.00141
       5 ->  9         0.01591
       5 -> 13        -0.00041
       5 -> 18         0.00447
       5 -> 23         0.00114
       5 -> 29         0.00393
       5 -> 31        -0.00096
       5 -> 37         0.00244
       5 -> 44         0.00049
       5 -> 48         0.00012
       5 -> 52         0.00058
       6 -> 27        -0.00047
       6 -> 38        -0.00088
       6 -> 46         0.00168
       7 -> 12        -0.00067
       7 -> 15         0.00381
       7 -> 19        -0.00340
       7 -> 25         0.00130
       7 -> 30        -0.00116
       7 -> 33         0.00044
       7 -> 42        -0.00011
       7 -> 49         0.00018
       7 -> 50         0.00028
       7 -> 53         0.00048
       8 ->  9         0.70692
       8 -> 13        -0.02515
       8 -> 18         0.02227
       8 -> 23        -0.00715
       8 -> 29         0.01064
       8 -> 31        -0.00065
       8 -> 37         0.00052
       8 -> 48        -0.00028
       8 -> 52         0.00187
       3 <- 27         0.00109
       3 <- 38         0.00120
       3 <- 46         0.00303
       4 <- 27         0.00197
       4 <- 38         0.00018
       4 <- 46        -0.00116
       5 <-  9        -0.00057
       5 <- 13        -0.00071
       5 <- 18        -0.00096
       5 <- 23         0.00043
       5 <- 29        -0.00068
       5 <- 31         0.00059
       5 <- 37         0.00126
       5 <- 44         0.00017
       5 <- 48         0.00011
       5 <- 52         0.00015
       6 <- 27         0.00015
       6 <- 38        -0.00076
       6 <- 46         0.00131
       7 <- 12        -0.00032
       7 <- 15        -0.00875
       7 <- 19         0.00180
       7 <- 22         0.00746
       7 <- 25         0.00026
       7 <- 30         0.00444
       7 <- 33        -0.00100
       7 <- 35         0.00179
       7 <- 40         0.00081
       7 <- 49        -0.00014
       7 <- 50         0.00018
       7 <- 53         0.00140
       8 <-  9        -0.03400
       8 <- 13         0.00168
       8 <- 18        -0.00529
       8 <- 23         0.00063
       8 <- 29        -0.00165
       8 <- 31        -0.00053
       8 <- 37        -0.00092
       8 <- 52         0.00052
 This state for optimization and/or second-order correction.
 Total Energy, E(TD-HF/TD-DFT) =  -114.398412601
 Copying the excited state density for this state as the 1-particle RhoCI density.

 Excited State   2:      Singlet-B2     6.9510 eV  178.37 nm  f=0.0139  <S**2>=0.000
       3 -> 12         0.00179
       3 -> 15         0.00045
       3 -> 19         0.00152
       3 -> 22        -0.00034
       3 -> 25         0.00107
       3 -> 30         0.00017
       3 -> 33         0.00030
       3 -> 35        -0.00068
       3 -> 40        -0.00037
       3 -> 49         0.00034
       3 -> 53        -0.00012
       4 -> 12        -0.00194
       4 -> 15         0.00221
       4 -> 19         0.00160
       4 -> 22        -0.00316
       4 -> 25         0.00289
       4 -> 30         0.00025
       4 -> 33        -0.00012
       4 -> 35         0.00025
       4 -> 40         0.00042
       4 -> 42        -0.00013
       5 -> 10        -0.00861
       5 -> 11        -0.00448
       5 -> 14         0.00785
       5 -> 16        -0.00040
       5 -> 17         0.00493
       5 -> 20         0.00175
       5 -> 21        -0.00548
       5 -> 24        -0.00109
       5 -> 26         0.00183
       5 -> 28         0.00097
       5 -> 32        -0.00102
       5 -> 34        -0.00098
       5 -> 36        -0.00024
       5 -> 39        -0.00011
       5 -> 41        -0.00059
       5 -> 43        -0.00038
       5 -> 54         0.00013
       6 -> 12        -0.00167
       6 -> 15         0.00118
       6 -> 19         0.00040
       6 -> 22        -0.00185
       6 -> 25         0.00079
       6 -> 30        -0.00041
       6 -> 33        -0.00035
       6 -> 35         0.00090
       6 -> 40         0.00023
       6 -> 42        -0.00012
       6 -> 49         0.00026
       6 -> 50        -0.00015
       7 -> 38        -0.00077
       7 -> 46        -0.00021
       8 -> 10         0.70381
       8 -> 11        -0.05713
       8 -> 14         0.02720
       8 -> 16        -0.00061
       8 -> 17         0.01280
       8 -> 20         0.01661
       8 -> 21         0.00174
       8 -> 24         0.00030
       8 -> 26         0.00347
       8 -> 28         0.00176
       8 -> 32         0.00086
       8 -> 34         0.00033
       8 -> 36         0.00015
       8 -> 39         0.00028
       8 -> 41        -0.00032
       8 -> 43         0.00059
       8 -> 47         0.00023
       8 -> 51        -0.00033
       8 -> 54         0.00029
       3 <- 12         0.00039
       3 <- 15         0.00044
       3 <- 19         0.00059
       3 <- 22        -0.00058
       3 <- 25         0.00055
       3 <- 33         0.00026
       3 <- 35        -0.00059
       3 <- 40        -0.00036
       3 <- 49         0.00039
       3 <- 53        -0.00014
       4 <- 12         0.00077
       4 <- 15         0.00202
       4 <- 19         0.00152
       4 <- 22        -0.00206
       4 <- 25         0.00192
       4 <- 30         0.00016
       4 <- 42        -0.00022
       4 <- 50        -0.00014
       5 <- 10         0.00213
       5 <- 11        -0.00025
       5 <- 14         0.00440
       5 <- 16        -0.00039
       5 <- 17         0.00029
       5 <- 20         0.00045
       5 <- 21        -0.00138
       5 <- 24        -0.00231
       5 <- 26         0.00127
       5 <- 28         0.00014
       5 <- 32        -0.00084
       5 <- 34        -0.00079
       5 <- 36        -0.00020
       5 <- 41        -0.00042
       5 <- 43        -0.00032
       6 <- 12        -0.00016
       6 <- 15        -0.00066
       6 <- 19         0.00085
       6 <- 25         0.00026
       6 <- 30         0.00064
       6 <- 33        -0.00040
       6 <- 35         0.00088
       6 <- 40         0.00020
       6 <- 49         0.00019
       6 <- 50        -0.00017
       6 <- 53         0.00022
       7 <- 38        -0.00058
       7 <- 46        -0.00013
       8 <- 10        -0.00140
       8 <- 11        -0.00117
       8 <- 14        -0.00375
       8 <- 16        -0.00074
       8 <- 17        -0.00135
       8 <- 20        -0.00061
       8 <- 21         0.00134
       8 <- 24         0.00122
       8 <- 26        -0.00099
       8 <- 28        -0.00023
       8 <- 32         0.00060
       8 <- 34        -0.00011
       8 <- 36         0.00033
       8 <- 43         0.00031
       8 <- 45         0.00021

 Excited State   3:      Singlet-B1     7.2299 eV  171.49 nm  f=0.0015  <S**2>=0.000
       3 ->  9        -0.03319
       3 -> 13         0.00354
       3 -> 18        -0.00627
       3 -> 23         0.00309
       3 -> 29        -0.00191
       3 -> 31        -0.00047
       3 -> 44         0.00049
       3 -> 48         0.00048
       3 -> 52         0.00110
       4 ->  9         0.01610
       4 -> 13        -0.00272
       4 -> 18         0.00074
       4 -> 23        -0.00249
       4 -> 29         0.00016
       4 -> 31        -0.00208
       4 -> 37        -0.00045
       4 -> 48        -0.00149
       4 -> 52        -0.00087
       5 -> 27        -0.00126
       5 -> 38         0.00200
       5 -> 46         0.00205
       6 ->  9         0.70570
       6 -> 13        -0.02772
       6 -> 18         0.02050
       6 -> 23        -0.01204
       6 -> 29         0.00641
       6 -> 31         0.00397
       6 -> 37        -0.00257
       6 -> 44        -0.00345
       6 -> 48         0.00511
       6 -> 52         0.00182
       7 -> 10        -0.00060
       7 -> 11        -0.00015
       7 -> 14        -0.00196
       7 -> 16        -0.01148
       7 -> 17         0.00022
       7 -> 20         0.00187
       7 -> 21        -0.00213
       7 -> 24         0.00120
       7 -> 26         0.00036
       7 -> 28        -0.00466
       7 -> 32        -0.00120
       7 -> 34         0.00025
       7 -> 36        -0.00161
       7 -> 39         0.00016
       7 -> 41        -0.00152
       7 -> 43         0.00087
       7 -> 45         0.00439
       7 -> 47         0.00273
       7 -> 51         0.00113
       7 -> 54         0.00057
       8 -> 27         0.00188
       8 -> 38         0.00063
       8 -> 46         0.00651
       3 <-  9        -0.01060
       3 <- 13         0.00020
       3 <- 18        -0.00330
       3 <- 29        -0.00122
       3 <- 31        -0.00041
       3 <- 44        -0.00020
       3 <- 48         0.00073
       3 <- 52         0.00088
       4 <-  9         0.00604
       4 <- 18         0.00242
       4 <- 23        -0.00030
       4 <- 29         0.00219
       4 <- 31        -0.00177
       4 <- 44         0.00020
       4 <- 48        -0.00129
       4 <- 52        -0.00048
       5 <- 27        -0.00148
       5 <- 38         0.00153
       5 <- 46         0.00182
       6 <-  9        -0.02205
       6 <- 13         0.00236
       6 <- 18        -0.00301
       6 <- 23         0.00013
       6 <- 29        -0.00263
       6 <- 31         0.00251
       6 <- 37        -0.00246
       6 <- 44        -0.00211
       6 <- 48         0.00451
       6 <- 52         0.00067
       7 <- 10         0.00268
       7 <- 11         0.00463
       7 <- 14         0.00210
       7 <- 16         0.00169
       7 <- 17         0.01374
       7 <- 20         0.00717
       7 <- 21        -0.00645
       7 <- 24         0.00577
       7 <- 26         0.00305
       7 <- 28         0.00053
       7 <- 32        -0.00105
       7 <- 34         0.00141
       7 <- 36        -0.00258
       7 <- 39         0.00040
       7 <- 41        -0.00102
       7 <- 43         0.00081
       7 <- 45         0.00401
       7 <- 47         0.00229
       7 <- 51         0.00082
       7 <- 54         0.00107
       8 <- 27         0.00194
       8 <- 38         0.00072
       8 <- 46         0.00584

 Excited State   4:      Singlet-A1     7.3069 eV  169.68 nm  f=0.1315  <S**2>=0.000
       3 -> 10         0.00599
       3 -> 11         0.01497
       3 -> 14         0.00803
       3 -> 16        -0.00080
       3 -> 17         0.02419
       3 -> 20         0.00063
       3 -> 21        -0.00566
       3 -> 24         0.00619
       3 -> 26         0.00834
       3 -> 28         0.00091
       3 -> 32         0.00305
       3 -> 34        -0.00390
       3 -> 36        -0.00170
       3 -> 39         0.00140
       3 -> 41         0.00019
       3 -> 43         0.00063
       3 -> 45         0.00179
       3 -> 47         0.00094
       3 -> 51         0.00024
       3 -> 54         0.00030
       4 -> 10         0.02610
       4 -> 11        -0.01100
       4 -> 14         0.01568
       4 -> 16         0.00188
       4 -> 17        -0.00723
       4 -> 20         0.00973
       4 -> 21        -0.00010
       4 -> 24        -0.00777
       4 -> 26         0.00625
       4 -> 28         0.00097
       4 -> 32        -0.00126
       4 -> 34         0.00308
       4 -> 36         0.00068
       4 -> 39        -0.00021
       4 -> 43        -0.00011
       4 -> 45        -0.00066
       4 -> 47        -0.00160
       4 -> 51        -0.00010
       5 -> 12         0.03100
       5 -> 15         0.03027
       5 -> 19         0.00241
       5 -> 22         0.00249
       5 -> 25         0.01344
       5 -> 30        -0.00290
       5 -> 33        -0.00327
       5 -> 35         0.00178
       5 -> 40         0.00165
       5 -> 42         0.00072
       5 -> 49         0.00062
       5 -> 50        -0.00046
       5 -> 53        -0.00034
       6 -> 10        -0.03751
       6 -> 11        -0.06226
       6 -> 14        -0.02590
       6 -> 16        -0.03548
       6 -> 17        -0.10277
       6 -> 20        -0.03716
       6 -> 21         0.02921
       6 -> 24        -0.02547
       6 -> 26        -0.01329
       6 -> 28        -0.01117
       6 -> 32        -0.00018
       6 -> 34        -0.00309
       6 -> 36         0.00226
       6 -> 39         0.00014
       6 -> 41        -0.00098
       6 -> 43         0.00042
       6 -> 45         0.00063
       6 -> 47         0.00177
       6 -> 51         0.00075
       6 -> 54        -0.00027
       7 ->  9         0.68344
       7 -> 13         0.02311
       7 -> 18        -0.02748
       7 -> 23         0.00667
       7 -> 29        -0.00508
       7 -> 31        -0.00165
       7 -> 37         0.00011
       7 -> 44        -0.00087
       7 -> 48         0.00060
       7 -> 52         0.00100
       8 -> 12         0.01362
       8 -> 15         0.13414
       8 -> 19        -0.02659
       8 -> 22        -0.04746
       8 -> 25         0.00349
       8 -> 30        -0.01527
       8 -> 33         0.00559
       8 -> 35        -0.00693
       8 -> 40        -0.00276
       8 -> 42        -0.00037
       8 -> 49         0.00065
       8 -> 50         0.00039
       8 -> 53        -0.00102
       3 <- 10         0.00315
       3 <- 11         0.00882
       3 <- 14         0.00551
       3 <- 16         0.00017
       3 <- 17         0.01546
       3 <- 20         0.00068
       3 <- 21        -0.00473
       3 <- 24         0.00424
       3 <- 26         0.00538
       3 <- 28         0.00073
       3 <- 32         0.00273
       3 <- 34        -0.00251
       3 <- 36        -0.00116
       3 <- 39         0.00106
       3 <- 41         0.00015
       3 <- 43         0.00063
       3 <- 45         0.00183
       3 <- 47         0.00120
       3 <- 51         0.00023
       3 <- 54         0.00033
       4 <- 10         0.01031
       4 <- 11        -0.00503
       4 <- 14         0.00665
       4 <- 16         0.00051
       4 <- 17        -0.00412
       4 <- 20         0.00585
       4 <- 21         0.00011
       4 <- 24        -0.00455
       4 <- 26         0.00432
       4 <- 32        -0.00165
       4 <- 34         0.00243
       4 <- 36         0.00038
       4 <- 39        -0.00022
       4 <- 41        -0.00011
       4 <- 43        -0.00011
       4 <- 45        -0.00016
       4 <- 47        -0.00144
       5 <- 12         0.00913
       5 <- 15         0.01137
       5 <- 19         0.00136
       5 <- 22         0.00124
       5 <- 25         0.00756
       5 <- 30        -0.00166
       5 <- 33        -0.00232
       5 <- 35         0.00143
       5 <- 40         0.00138
       5 <- 42         0.00055
       5 <- 49         0.00052
       5 <- 50        -0.00041
       5 <- 53        -0.00029
       6 <- 10        -0.00753
       6 <- 11        -0.01344
       6 <- 14        -0.00753
       6 <- 16        -0.01243
       6 <- 17        -0.03725
       6 <- 20        -0.01628
       6 <- 21         0.01400
       6 <- 24        -0.01359
       6 <- 26        -0.00767
       6 <- 28        -0.00689
       6 <- 32         0.00021
       6 <- 34        -0.00273
       6 <- 36         0.00152
       6 <- 39         0.00032
       6 <- 41        -0.00064
       6 <- 43         0.00036
       6 <- 45         0.00019
       6 <- 47         0.00143
       6 <- 51         0.00055
       6 <- 54        -0.00019
       7 <-  9        -0.10025
       7 <- 13         0.01236
       7 <- 18        -0.01475
       7 <- 23         0.00730
       7 <- 29        -0.00595
       7 <- 31        -0.00018
       7 <- 37        -0.00022
       7 <- 44        -0.00033
       7 <- 52         0.00082
       8 <- 12         0.00045
       8 <- 15         0.02687
       8 <- 19        -0.00721
       8 <- 22        -0.01946
       8 <- 25         0.00105
       8 <- 30        -0.00949
       8 <- 33         0.00373
       8 <- 35        -0.00479
       8 <- 40        -0.00212
       8 <- 42        -0.00029
       8 <- 49         0.00044
       8 <- 50         0.00030
       8 <- 53        -0.00089

 Excited State   5:      Singlet-B2     7.5936 eV  163.28 nm  f=0.0281  <S**2>=0.000
       3 -> 12        -0.00038
       3 -> 15        -0.00143
       3 -> 19         0.00168
       3 -> 22         0.00056
       3 -> 25        -0.00022
       3 -> 30         0.00314
       3 -> 33         0.00019
       3 -> 35        -0.00097
       3 -> 40        -0.00078
       3 -> 49         0.00092
       3 -> 50        -0.00016
       4 -> 12         0.00201
       4 -> 15         0.00084
       4 -> 19         0.00098
       4 -> 22        -0.00148
       4 -> 25         0.00234
       4 -> 30        -0.00167
       4 -> 33         0.00048
       4 -> 35        -0.00064
       4 -> 49         0.00017
       5 -> 10        -0.00177
       5 -> 11         0.00046
       5 -> 14         0.01110
       5 -> 16        -0.00573
       5 -> 17        -0.00085
       5 -> 20        -0.00402
       5 -> 21        -0.00378
       5 -> 24        -0.00062
       5 -> 26         0.00198
       5 -> 28         0.00149
       5 -> 32         0.00039
       5 -> 34        -0.00059
       5 -> 36        -0.00064
       5 -> 39         0.00064
       5 -> 41        -0.00057
       5 -> 43         0.00027
       5 -> 45         0.00093
       5 -> 47         0.00025
       5 -> 51        -0.00048
       6 -> 12        -0.00233
       6 -> 15        -0.00078
       6 -> 19        -0.00082
       6 -> 22         0.00088
       6 -> 25         0.00016
       6 -> 30         0.00131
       6 -> 33        -0.00052
       6 -> 35         0.00151
       6 -> 40         0.00132
       6 -> 42         0.00013
       6 -> 49        -0.00155
       6 -> 50         0.00019
       6 -> 53         0.00015
       7 -> 27         0.00054
       7 -> 38        -0.00069
       7 -> 46        -0.00253
       8 -> 10         0.05589
       8 -> 11         0.70284
       8 -> 14         0.00952
       8 -> 16         0.01086
       8 -> 17         0.04963
       8 -> 20        -0.00932
       8 -> 21         0.00090
       8 -> 24         0.00223
       8 -> 26         0.00041
       8 -> 28         0.00380
       8 -> 32         0.00018
       8 -> 34        -0.00030
       8 -> 36        -0.00059
       8 -> 39        -0.00025
       8 -> 41        -0.00087
       8 -> 43         0.00041
       8 -> 45         0.00313
       8 -> 47         0.00035
       8 -> 51        -0.00143
       8 -> 54         0.00018
       3 <- 12         0.00033
       3 <- 15        -0.00048
       3 <- 19         0.00123
       3 <- 30         0.00158
       3 <- 33         0.00029
       3 <- 35        -0.00090
       3 <- 40        -0.00071
       3 <- 49         0.00088
       3 <- 50        -0.00011
       3 <- 53        -0.00044

 The electronic state is 1-A1.
 Alpha  occ. eigenvalues --  -19.16203 -10.30461  -0.99450  -0.67115  -0.49097
 Alpha  occ. eigenvalues --   -0.44233  -0.36771  -0.28915
 Alpha virt. eigenvalues --   -0.10661   0.00205   0.03299   0.04166   0.06232
 Alpha virt. eigenvalues --    0.12013   0.16058   0.18868   0.21191   0.21777
 Alpha virt. eigenvalues --    0.23700   0.30217   0.41274   0.43620   0.50954

 Mulliken charges:
               1
     1  C   -0.018531
     2  H    0.150563
     3  H    0.150563
     4  O   -0.282595
 Sum of Mulliken charges =  -0.00000

 Dipole moment (field-independent basis, Debye):
    X=             -0.0000    Y=             -0.0000    Z=             -3.1773  Tot=              3.1773
 Quadrupole moment (field-independent basis, Debye-Ang):
   XX=            -12.2509   YY=            -11.7563   ZZ=            -11.9530
   XY=              0.0000   XZ=              0.0000   YZ=              0.0000

 Normal termination of Gaussian 16 at Fri Sep 17 10:52:50 2021.
