 Gaussian 16, Revision A.03,
 Gaussian 16:  ES64L-G16RevA.03 25-Dec-2016

 --------------------------------------------------------------------
 #p B3LYP/6-311+G** #p TD=(singlets,nstates=30)IOp(6/8=3) IOp(9/40=4)
 --------------------------------------------------------------------

 ---------------------------------------------
 Scan Step 128, Bond Length 1.1400000000000001
 ---------------------------------------------
 Symbolic Z-matrix:
 Charge =  0 Multiplicity = 1

                         Standard orientation:
 ---------------------------------------------------------------------
 Center     Atomic      Atomic             Coordinates (Angstroms)
 Number     Number       Type             X           Y           Z
 ---------------------------------------------------------------------
      1          6           0        0.000000    0.000000   -0.496081
      2          1           0        0.000000    0.937260   -1.087431
      3          1           0       -0.000000   -0.937260   -1.087431
      4          8           0        0.000000   -0.000000    0.643919
 ---------------------------------------------------------------------

 SCF Done:  E(RB3LYP) =  -114.534945747     A.U. after    9 cycles

 Excitation energies and oscillator strengths:

 Excited State   1:      Singlet-A2     4.3263 eV  286.58 nm  f=0.0000  <S**2>=0.000
       3 -> 27         0.00270
       3 -> 38         0.00229
       3 -> 45         0.00224
       4 -> 27         0.00226
       4 -> 38        -0.00064
       4 -> 45        -0.00120
       5 ->  9         0.02114
       5 -> 13        -0.00497
       5 -> 17         0.00597
       5 -> 23        -0.00108
       5 -> 29         0.00420
       5 -> 31         0.00274
       5 -> 37         0.00376
       5 -> 44         0.00066
       5 -> 47         0.00014
       5 -> 52         0.00083
       6 -> 27         0.00012
       6 -> 38        -0.00076
       6 -> 45         0.00175
       7 -> 12        -0.00062
       7 -> 16         0.00237
       7 -> 18        -0.00242
       7 -> 22         0.00108
       7 -> 24         0.00138
       7 -> 30        -0.00083
       7 -> 33         0.00041
       7 -> 35        -0.00037
       7 -> 40        -0.00033
       7 -> 48         0.00048
       7 -> 50         0.00027
       7 -> 53         0.00044
       8 ->  9         0.70427
       8 -> 13        -0.05694
       8 -> 17         0.02383
       8 -> 23        -0.01134
       8 -> 29         0.00815
       8 -> 31         0.00315
       8 -> 37        -0.00062
       8 -> 44        -0.00018
       8 -> 47        -0.00022
       8 -> 52         0.00155
       3 <- 27         0.00181
       3 <- 38         0.00192
       3 <- 45         0.00233
       4 <- 27         0.00309
       4 <- 45        -0.00104
       5 <-  9        -0.00022
       5 <- 13        -0.00088
       5 <- 17        -0.00088
       5 <- 23         0.00055
       5 <- 29        -0.00058
       5 <- 31        -0.00101
       5 <- 37         0.00174
       5 <- 44         0.00031
       5 <- 47         0.00017
       5 <- 52         0.00022
       6 <- 27         0.00063
       6 <- 38        -0.00070
       6 <- 45         0.00136
       7 <- 12        -0.00090
       7 <- 16        -0.00638
       7 <- 18        -0.00045
       7 <- 22         0.00704
       7 <- 24        -0.00042
       7 <- 30         0.00292
       7 <- 33        -0.00134
       7 <- 35        -0.00252
       7 <- 40        -0.00102
       7 <- 42         0.00019
       7 <- 48         0.00030
       7 <- 50         0.00015
       7 <- 53         0.00120
       8 <-  9        -0.02077
       8 <- 13         0.00396
       8 <- 17        -0.00404
       8 <- 23         0.00079
       8 <- 29        -0.00072
       8 <- 31         0.00121
       8 <- 37        -0.00172
       8 <- 52         0.00045
 This state for optimization and/or second-order correction.
 Total Energy, E(TD-HF/TD-DFT) =  -114.375956714
 Copying the excited state density for this state as the 1-particle RhoCI density.

 Excited State   2:      Singlet-B2     6.7494 eV  183.70 nm  f=0.0409  <S**2>=0.000
       3 -> 12         0.00135
       3 -> 16         0.00069
       3 -> 18         0.00113
       3 -> 22        -0.00028
       3 -> 24         0.00131
       3 -> 30        -0.00011
       3 -> 33         0.00014
       3 -> 35         0.00032
       4 -> 12        -0.00379
       4 -> 16         0.00151
       4 -> 18         0.00225
       4 -> 22        -0.00336
       4 -> 24         0.00361
       4 -> 30         0.00017
       4 -> 33        -0.00066
       4 -> 35        -0.00073
       4 -> 40        -0.00049
       5 -> 10        -0.00482
       5 -> 11        -0.00927
       5 -> 14         0.00694
       5 -> 15        -0.00106
       5 -> 19         0.00190
       5 -> 20         0.00109
       5 -> 21         0.00531
       5 -> 26         0.00264
       5 -> 28         0.00165
       5 -> 32         0.00048
       5 -> 34        -0.00103
       5 -> 36        -0.00027
       5 -> 39        -0.00031
       5 -> 41        -0.00021
       5 -> 43        -0.00056
       5 -> 46        -0.00045
       6 -> 12         0.00069
       6 -> 16         0.00140
       6 -> 18         0.00288
       6 -> 22        -0.00268
       6 -> 24         0.00143
       6 -> 30        -0.00043
       6 -> 33        -0.00017
       6 -> 35        -0.00020
       6 -> 40         0.00021
       6 -> 42        -0.00023
       6 -> 48         0.00043
       6 -> 50        -0.00043
       7 -> 27         0.00032
       7 -> 38        -0.00043
       7 -> 45         0.00058
       8 -> 10         0.70395
       8 -> 11        -0.06160
       8 -> 14         0.00773
       8 -> 15        -0.00794
       8 -> 19         0.01516
       8 -> 20         0.01214
       8 -> 21        -0.00394
       8 -> 25         0.00051
       8 -> 26         0.00189
       8 -> 28         0.00062
       8 -> 32        -0.00063
       8 -> 34         0.00190
       8 -> 36         0.00046
       8 -> 39         0.00045
       8 -> 41        -0.00016
       8 -> 43         0.00066
       8 -> 46        -0.00076
       8 -> 49        -0.00010
       8 -> 54         0.00017
       3 <- 12         0.00035
       3 <- 16         0.00053
       3 <- 18         0.00045
       3 <- 22        -0.00039
       3 <- 24         0.00081
       3 <- 30        -0.00011
       3 <- 33         0.00012
       3 <- 35         0.00030
       4 <- 12         0.00067
       4 <- 16         0.00177
       4 <- 18         0.00223
       4 <- 22        -0.00205
       4 <- 24         0.00252
       4 <- 30         0.00013
       4 <- 33        -0.00042
       4 <- 35        -0.00045
       4 <- 40        -0.00018
       4 <- 42        -0.00021
       4 <- 48        -0.00011
       5 <- 10         0.00245
       5 <- 11        -0.00024
       5 <- 14         0.00495
       5 <- 15        -0.00095
       5 <- 19         0.00043
       5 <- 20         0.00059
       5 <- 21         0.00229
       5 <- 25         0.00174
       5 <- 26         0.00158
       5 <- 28         0.00036
       5 <- 32         0.00024
       5 <- 34        -0.00101
       5 <- 36        -0.00033
       5 <- 39        -0.00017
       5 <- 43        -0.00041
       5 <- 46        -0.00039
       5 <- 51        -0.00010
       6 <- 12         0.00023
       6 <- 18         0.00144
       6 <- 22        -0.00087
       6 <- 24         0.00052
       6 <- 30         0.00032
       6 <- 33        -0.00024
       6 <- 35        -0.00035
       6 <- 40         0.00019
       6 <- 42        -0.00022
       6 <- 48         0.00036
       6 <- 50        -0.00043
       6 <- 53         0.00012
       7 <- 27         0.00026
       7 <- 38        -0.00032
       7 <- 45         0.00051
       8 <- 10        -0.00221
       8 <- 11        -0.00059
       8 <- 14        -0.00682
       8 <- 15        -0.00016
       8 <- 19        -0.00034
       8 <- 20        -0.00045
       8 <- 21        -0.00248
       8 <- 25        -0.00261
       8 <- 26        -0.00036
       8 <- 28        -0.00067
       8 <- 32        -0.00102
       8 <- 34         0.00087
       8 <- 36         0.00044
       8 <- 39         0.00037
       8 <- 43         0.00048
       8 <- 46        -0.00051
       8 <- 51        -0.00011

 Excited State   3:      Singlet-B2     7.5441 eV  164.35 nm  f=0.0231  <S**2>=0.000
       3 -> 12        -0.00026
       3 -> 16        -0.00070
       3 -> 18         0.00070
       3 -> 22         0.00033
       3 -> 24         0.00024
       3 -> 30         0.00181
       3 -> 33         0.00013
       3 -> 35         0.00039
       3 -> 40         0.00037
       3 -> 42        -0.00010
       3 -> 48         0.00035
       3 -> 50        -0.00026
       4 -> 12         0.00296
       4 -> 16        -0.00037
       4 -> 18         0.00288
       4 -> 22        -0.00152
       4 -> 24         0.00316
       4 -> 30        -0.00114
       4 -> 33         0.00052
       4 -> 35         0.00048
       4 -> 42        -0.00016
       4 -> 48         0.00022
       4 -> 50        -0.00012
       5 -> 10        -0.00763
       5 -> 11         0.00013
       5 -> 14         0.00722
       5 -> 15        -0.00700
       5 -> 19        -0.00329
       5 -> 20        -0.00378
       5 -> 21         0.00109
       5 -> 25         0.00136
       5 -> 26         0.00022
       5 -> 28         0.00161
       5 -> 34        -0.00143
       5 -> 36        -0.00016
       5 -> 39         0.00041
       5 -> 41        -0.00081
       5 -> 46         0.00084
       5 -> 51         0.00043
       6 -> 12        -0.00321
       6 -> 16        -0.00189
       6 -> 18        -0.00115
       6 -> 22         0.00141
       6 -> 24         0.00012
       6 -> 30         0.00079
       6 -> 33        -0.00050
       6 -> 35        -0.00148
       6 -> 40        -0.00097
       6 -> 42         0.00010
       6 -> 48        -0.00095
       6 -> 50         0.00060
       6 -> 53         0.00011
       7 -> 27        -0.00024
       7 -> 38        -0.00104
       7 -> 45        -0.00159
       8 -> 10         0.06216
       8 -> 11         0.70346
       8 -> 14        -0.00919
       8 -> 15         0.01357
       8 -> 19        -0.02683
       8 -> 20         0.00999
       8 -> 21        -0.00243
       8 -> 25         0.00060
       8 -> 26        -0.00163
       8 -> 28         0.00018
       8 -> 32        -0.00034
       8 -> 39        -0.00013
       8 -> 41        -0.00132
       8 -> 43         0.00022
       8 -> 46         0.00158
       8 -> 51         0.00090
       8 -> 54        -0.00015
       3 <- 12         0.00033
       3 <- 16        -0.00024
       3 <- 18         0.00083
       3 <- 24         0.00036
       3 <- 30         0.00106
       3 <- 33         0.00022
       3 <- 35         0.00045
       3 <- 40         0.00034
       3 <- 48         0.00029
       3 <- 50        -0.00017
       3 <- 53        -0.00025
       4 <- 12         0.00035
       4 <- 16         0.00064
       4 <- 18         0.00075
       4 <- 22        -0.00116
       4 <- 24         0.00130
       4 <- 30        -0.00051
       4 <- 33         0.00047
       4 <- 35         0.00012
       4 <- 42        -0.00017
       4 <- 48         0.00016
       4 <- 50        -0.00017
       5 <- 10         0.00129
       5 <- 11        -0.00101
       5 <- 14         0.00242
       5 <- 15        -0.00044
       5 <- 19         0.00090
       5 <- 20        -0.00033
       5 <- 21         0.00081
       5 <- 25         0.00125
       5 <- 26        -0.00030
       5 <- 28         0.00076
       5 <- 32         0.00102
       5 <- 34        -0.00055
       5 <- 36         0.00017
       5 <- 39         0.00015
       5 <- 41        -0.00083
       5 <- 46         0.00078
       5 <- 51         0.00034
       6 <- 12        -0.00033
       6 <- 16        -0.00047
       6 <- 22         0.00058
       6 <- 30         0.00046
       6 <- 33        -0.00032
       6 <- 35        -0.00115
       6 <- 40        -0.00072
       6 <- 48        -0.00078
       6 <- 50         0.00049
       7 <- 38        -0.00083
       7 <- 45        -0.00134
       8 <- 10        -0.00072
       8 <- 11        -0.00025
       8 <- 14        -0.00396
       8 <- 15         0.00052
       8 <- 19         0.00351
       8 <- 20        -0.00125
       8 <- 21        -0.00206
       8 <- 25         0.00024
       8 <- 26        -0.00167
       8 <- 32         0.00117
       8 <- 34         0.00098
       8 <- 39        -0.00041
       8 <- 41        -0.00114
       8 <- 43         0.00011
       8 <- 46         0.00126
       8 <- 51         0.00063

 Excited State   4:      Singlet-A1     7.7122 eV  160.76 nm  f=0.0526  <S**2>=0.000
       3 -> 10         0.00180
       3 -> 11        -0.00096
       3 -> 14         0.00073
       3 -> 15        -0.00024
       3 -> 19         0.00040
       3 -> 20         0.00153
       3 -> 21         0.00062
       3 -> 25        -0.00050
       3 -> 26         0.00108
       3 -> 28         0.00106
       3 -> 32        -0.00014
       3 -> 34        -0.00054
       3 -> 36        -0.00024
       3 -> 41        -0.00021
       3 -> 46         0.00012
       3 -> 49         0.00026
       3 -> 51         0.00028
       3 -> 54        -0.00020
       4 -> 10         0.00506
       4 -> 11         0.00666
       4 -> 14         0.00524
       4 -> 15         0.00020
       4 -> 19         0.00035
       4 -> 20         0.00464
       4 -> 21         0.00147
       4 -> 25         0.00720
       4 -> 26         0.00136
       4 -> 28        -0.00043
       4 -> 32         0.00061
       4 -> 34        -0.00031
       4 -> 39        -0.00016
       4 -> 41         0.00013
       4 -> 43         0.00016
       4 -> 46        -0.00022
       4 -> 51         0.00015
       5 -> 12         0.00690
       5 -> 16         0.00145
       5 -> 18         0.01111
       5 -> 22        -0.00182
       5 -> 24         0.00528
       5 -> 33        -0.00016
       5 -> 35        -0.00079
       5 -> 50         0.00028
       5 -> 53        -0.00014
       6 -> 10         0.01280
       6 -> 11        -0.00318
       6 -> 14         0.00440
       6 -> 15         0.00127
       6 -> 19         0.00329
       6 -> 20         0.00439
       6 -> 21         0.00131
       6 -> 25         0.00309
       6 -> 26         0.00022
       6 -> 28        -0.00156
       6 -> 32         0.00057
       6 -> 43         0.00013
       6 -> 49        -0.00061
       6 -> 51        -0.00027
       7 ->  9         0.01536
       7 -> 13         0.00940
       7 -> 17         0.00341
       7 -> 23         0.00523
       7 -> 29        -0.00035
       7 -> 31         0.00087
       7 -> 37         0.00057
       7 -> 44         0.00066
       7 -> 47        -0.00035
       7 -> 52        -0.00011
       8 -> 12         0.70576
       8 -> 16        -0.01314
       8 -> 18         0.02987
       8 -> 22         0.00487
       8 -> 24         0.00310
       8 -> 30         0.00071
       8 -> 33         0.00155
       8 -> 35         0.00203
       8 -> 40        -0.00069
       8 -> 42         0.00031
       8 -> 48        -0.00039
       8 -> 50         0.00030
       8 -> 53        -0.00022
       3 <- 10         0.00060
       3 <- 14         0.00041
       3 <- 20         0.00070
       3 <- 21         0.00047
       3 <- 26         0.00067
       3 <- 28         0.00069
       3 <- 32        -0.00021
       3 <- 34        -0.00034
       3 <- 36        -0.00019
       3 <- 41        -0.00016
       3 <- 46         0.00021
       3 <- 49         0.00021
       3 <- 51         0.00024
       3 <- 54        -0.00019
       4 <- 10         0.00453
       4 <- 11         0.00168
       4 <- 14         0.00385
       4 <- 15        -0.00032
       4 <- 19         0.00022
       4 <- 20         0.00265
       4 <- 21         0.00056
       4 <- 25         0.00397
       4 <- 26         0.00086
       4 <- 32         0.00063
       4 <- 34        -0.00070
       4 <- 39        -0.00022
       4 <- 43         0.00010
       4 <- 46        -0.00019
       4 <- 51         0.00014
       5 <- 12         0.00276
       5 <- 16         0.00224
       5 <- 18         0.00393
       5 <- 22        -0.00059
       5 <- 24         0.00286
       5 <- 30        -0.00012
       5 <- 33        -0.00034
       5 <- 35        -0.00073
       5 <- 50         0.00018
       5 <- 53        -0.00013
       6 <- 10         0.00332
       6 <- 11        -0.00025
       6 <- 14         0.00175
       6 <- 15         0.00039
       6 <- 19         0.00104
       6 <- 20         0.00212
       6 <- 21         0.00043
       6 <- 25         0.00156
       6 <- 26         0.00037
       6 <- 28        -0.00098
       6 <- 32         0.00047
       6 <- 34        -0.00019
       6 <- 41         0.00014
       6 <- 46        -0.00011
       6 <- 49        -0.00049
       6 <- 51        -0.00031
       7 <-  9         0.00117
       7 <- 13         0.00231
       7 <- 17         0.00096
       7 <- 23         0.00268
       7 <- 29        -0.00032
       7 <- 31         0.00061
       7 <- 37         0.00045
       7 <- 44         0.00055
       7 <- 47        -0.00030
       8 <- 12        -0.00123
       8 <- 16        -0.00664
       8 <- 18        -0.00224
       8 <- 22         0.00080
       8 <- 24        -0.00197
       8 <- 30        -0.00030
       8 <- 33         0.00074
       8 <- 35         0.00099
       8 <- 40        -0.00065
       8 <- 42         0.00027
       8 <- 48        -0.00043
       8 <- 50         0.00023
       8 <- 53        -0.00023

 Excited State   5:      Singlet-A2     8.2137 eV  150.95 nm  f=0.0000  <S**2>=0.000
       3 -> 27        -0.00055
       3 -> 38        -0.00050
       3 -> 45        -0.00029
       4 -> 27         0.00019
       4 -> 38         0.00052
       5 ->  9        -0.00799
       5 -> 13        -0.00303
       5 -> 17         0.00634
       5 -> 23        -0.00171
       5 -> 31        -0.00161
       5 -> 37        -0.00108
       5 -> 44        -0.00021
       6 -> 27         0.00023
       6 -> 38         0.00029
       6 -> 45        -0.00029
       7 -> 12        -0.00046
       7 -> 16        -0.00182
       7 -> 18         0.00195
       7 -> 22        -0.00069
       7 -> 24        -0.00011
       7 -> 35         0.00015
       7 -> 40         0.00012
       7 -> 48        -0.00011
       8 ->  9         0.05678
       8 -> 13         0.70431
       8 -> 17         0.01700
       8 -> 23         0.01777
       8 -> 29         0.00012
       8 -> 31        -0.00144
       8 -> 37        -0.00024
       8 -> 47         0.00018
       8 -> 52        -0.00014
       3 <- 27        -0.00019
       3 <- 38        -0.00034
       3 <- 45        -0.00037
       4 <- 27        -0.00016
       5 <-  9        -0.00028
       5 <- 13        -0.00032
       5 <- 17         0.00057
       5 <- 37        -0.00023
       6 <- 38         0.00020
       7 <- 12        -0.00064
       7 <- 16        -0.00090
       7 <- 18         0.00070
       7 <- 22        -0.00109
       7 <- 24        -0.00040
       7 <- 30         0.00020
       7 <- 33         0.00041
       7 <- 35         0.00067
       7 <- 40         0.00039
       7 <- 42        -0.00012
       7 <- 53        -0.00010
       8 <-  9         0.00232
       8 <- 13         0.00140
       8 <- 17         0.00023
       8 <- 23        -0.00020
       8 <- 31        -0.00010
       8 <- 37         0.00018

 Excited State   6:      Singlet-B1     9.8541 eV  125.82 nm  f=0.0005  <S**2>=0.000
       3 ->  9        -0.03120
       3 -> 13         0.00752
       3 -> 17        -0.00769
       3 -> 23         0.00519
       3 -> 29        -0.00331
       3 -> 31        -0.00034
       3 -> 37        -0.00012
       3 -> 44         0.00078
       3 -> 47        -0.00019
       3 -> 52         0.00110
       4 ->  9         0.01672
       4 -> 13        -0.00287
       4 -> 17         0.00109
       4 -> 23        -0.00243
       4 -> 29        -0.00029

 The electronic state is 1-A1.
 Alpha  occ. eigenvalues --  -19.14705 -10.26863  -1.11189  -0.63569  -0.51810
 Alpha  occ. eigenvalues --   -0.47395  -0.43556  -0.27685
 Alpha virt. eigenvalues --   -0.04751   0.00962   0.04056   0.04301   0.06640
 Alpha virt. eigenvalues --    0.13216   0.18416   0.18530   0.22010   0.22970
 Alpha virt. eigenvalues --    0.27189   0.34113   0.47152   0.47768   0.51013

 Mulliken charges:
               1
     1  C    0.037642
     2  H    0.093955
     3  H    0.093955
     4  O   -0.225551
 Sum of Mulliken charges =  -0.00000

 Dipole moment (field-independent basis, Debye):
    X=             -0.0000    Y=             -0.0000    Z=             -2.1684  Tot=              2.1684
 Quadrupole moment (field-independent basis, Debye-Ang):
   XX=            -11.5590   YY=            -11.7793   ZZ=            -12.6030
   XY=              0.0000   XZ=              0.0000   YZ=             -0.0000

 Normal termination of Gaussian 16 at Fri Sep 17 10:52:40 2021.
