 Gaussian 16, Revision C.01,
 Gaussian 16:  ES64L-G16RevC.01  3-Jul-2019

 ------------------------------------
 #P wB97XD/6-311+G* pop=(NBO,saveNBO)
 ------------------------------------

 -------
 TitleMe
 -------
 Symbolic Z-matrix:
 Charge =  1 Multiplicity = 1

                         Standard orientation:
 ---------------------------------------------------------------------
 Center     Atomic      Atomic             Coordinates (Angstroms)
 Number     Number       Type             X           Y           Z
 ---------------------------------------------------------------------
      1          6           0        0.297446    2.607122   -0.440760
      2          6           0        1.249725    1.547120   -0.487009
      3          6           0        0.948945    0.381098    0.137941
      4          6           0       -0.920534    2.486251    0.238740
      5          1           0        0.537748    3.538844   -0.942520
      6          1           0        2.198654    1.666028   -0.995198
      7          1           0       -1.616751    3.313925    0.259989
      8          7           0        1.937994   -0.710204    0.164722
      9          8           0        1.630043   -1.713526    0.841972
     10          8           0        2.987903   -0.546735   -0.481828
     11          6           0       -1.221754    1.300329    0.881560
     12          1           0       -2.154263    1.179731    1.422709
     13          6           0       -0.310813    0.146997    0.848521
     14          1           0       -0.208979   -0.419992    1.776601
     15         35           0       -1.414972   -1.058243   -0.360850
 ---------------------------------------------------------------------

 SCF Done:  E(RwB97XD) =  -3010.53190434     A.U. after   19 cycles

 The electronic state is 1-A.
 Alpha  occ. eigenvalues -- -483.31025 -62.86046 -56.65742 -56.65170 -56.65159
 Alpha  occ. eigenvalues --  -19.46172 -19.46159 -14.85595 -10.59119 -10.57912
 Alpha  occ. eigenvalues --  -10.57194 -10.56857 -10.53280 -10.52645  -9.01850
 Alpha  occ. eigenvalues --   -6.84536  -6.82659  -6.82626  -2.94438  -2.93945
 Alpha  occ. eigenvalues --   -2.93918  -2.92417  -2.92416  -1.49858  -1.32818
 Alpha  occ. eigenvalues --   -1.22323  -1.12752  -1.12334  -1.04655  -1.00202
 Alpha  occ. eigenvalues --   -0.95242  -0.90476  -0.84869  -0.80823  -0.80057
 Alpha  occ. eigenvalues --   -0.79984  -0.77816  -0.76127  -0.75485  -0.71867
 Alpha  occ. eigenvalues --   -0.68428  -0.67469  -0.63232  -0.59707  -0.57343
 Alpha  occ. eigenvalues --   -0.56675  -0.56057  -0.55862  -0.54454
 Alpha virt. eigenvalues --   -0.29973  -0.20300  -0.15518  -0.12966  -0.08473
 Alpha virt. eigenvalues --   -0.06024  -0.05447  -0.04559  -0.04231  -0.03135
 Alpha virt. eigenvalues --   -0.02281  -0.01364  -0.01259  -0.00500   0.00643

 Mulliken charges:
               1
     1  C   -0.109537
     2  C    0.183289
     3  C   -0.075226
     4  C   -0.333276
     5  H    0.345394
     6  H    0.350239
     7  H    0.330626
     8  N   -0.239749
     9  O    0.088230
    10  O    0.069811
    11  C   -0.202782
    12  H    0.356663
    13  C   -0.358098
    14  H    0.411185
    15  Br   0.183230
 Sum of Mulliken charges =   1.00000

 Dipole moment (field-independent basis, Debye):
    X=             -2.9663    Y=              8.2814    Z=              1.0056  Tot=              8.8539
 Quadrupole moment (field-independent basis, Debye-Ang):
   XX=            -61.0504   YY=            -44.6459   ZZ=            -61.0375
   XY=              3.8429   XZ=             -3.8024   YZ=             -0.5285

 Summary of Natural Population Analysis:

                                       Natural Population
                Natural  -----------------------------------------------
    Atom  No    Charge         Core      Valence    Rydberg      Total
 -----------------------------------------------------------------------
      C    1    0.07751      1.99924     3.90706    0.01619     5.92249
      C    2   -0.21761      1.99898     4.19614    0.02250     6.21761
      C    3    0.24242      1.99876     3.73492    0.02389     5.75758
      C    4   -0.25845      1.99914     4.23973    0.01958     6.25845
      H    5    0.25245      0.00000     0.74727    0.00028     0.74755
      H    6    0.29132      0.00000     0.70742    0.00126     0.70868
      H    7    0.26587      0.00000     0.73357    0.00055     0.73413
      N    8    0.44971      1.99941     4.49654    0.05435     6.55029
      O    9   -0.32151      1.99982     6.30799    0.01369     8.32151
      O   10   -0.30398      1.99982     6.29050    0.01366     8.30398
      C   11    0.05942      1.99918     3.92118    0.02021     5.94058
      H   12    0.26040      0.00000     0.73909    0.00052     0.73960
      C   13   -0.38393      1.99895     4.35421    0.03077     6.38393
      H   14    0.33572      0.00000     0.66272    0.00156     0.66428
     Br   15    0.25065     27.99945     6.73548    0.01441    34.74935
 =======================================================================
   * Total *    1.00000     45.99275    51.77382    0.23344    98.00000

 Normal termination of Gaussian 16 at Tue May 23 16:50:53 2023.
