 Gaussian 16, Revision C.01,
 Gaussian 16:  ES64L-G16RevC.01  3-Jul-2019

 ----------------------------------------
 #P wB97XD/6-311+G* NoSymm #P Field=Z-165
 ----------------------------------------

 -------
 TitleMe
 -------
 Symbolic Z-matrix:
 Charge =  1 Multiplicity = 1

                          Input orientation:
 ---------------------------------------------------------------------
 Center     Atomic      Atomic             Coordinates (Angstroms)
 Number     Number       Type             X           Y           Z
 ---------------------------------------------------------------------
      1          6           0        0.029500    1.339700    0.068200
      2          6           0        1.434800    1.286700    0.006400
      3          6           0        2.111800    0.051100   -0.005400
      4          6           0        1.445100   -1.137200    0.031200
      5          6           0       -0.687900    0.168200    0.110000
      6          1           0       -0.471300    2.298400    0.078100
      7          1           0        2.027300    2.196500   -0.032200
      8          1           0        1.989700   -2.076400    0.023200
      9          1           0       -1.771600    0.180400    0.158200
     10          7           0        3.586400    0.051000   -0.067500
     11          8           0        4.147100   -1.059700   -0.088100
     12          8           0        4.145000    1.163900   -0.090100
     13          6           0       -0.023600   -1.145800    0.083500
     14          1           0       -0.436700   -1.872500    0.788900
     15         35           0       -0.535900   -1.869700   -1.740800
 ---------------------------------------------------------------------

 SCF Done:  E(RwB97XD) =  -3010.54448002     A.U. after   18 cycles

 Alpha  occ. eigenvalues -- -483.33810 -62.88871 -56.68513 -56.68012 -56.68011
 Alpha  occ. eigenvalues --  -19.46400 -19.46312 -14.85893 -10.59513 -10.58288
 Alpha  occ. eigenvalues --  -10.57836 -10.57656 -10.57351 -10.53496  -9.04702
 Alpha  occ. eigenvalues --   -6.87241  -6.85586  -6.85575  -2.97179  -2.96735
 Alpha  occ. eigenvalues --   -2.96725  -2.95400  -2.95399  -1.50143  -1.33115
 Alpha  occ. eigenvalues --   -1.23426  -1.15234  -1.12459  -1.06353  -1.01611
 Alpha  occ. eigenvalues --   -0.96228  -0.91575  -0.85785  -0.81347  -0.81183
 Alpha  occ. eigenvalues --   -0.80516  -0.78822  -0.76634  -0.76511  -0.73549
 Alpha  occ. eigenvalues --   -0.69993  -0.68193  -0.64849  -0.61814  -0.59470
 Alpha  occ. eigenvalues --   -0.57601  -0.57175  -0.56564  -0.56096
 Alpha virt. eigenvalues --   -0.30682  -0.21853  -0.17673  -0.14450  -0.14048
 Alpha virt. eigenvalues --   -0.10482  -0.09409  -0.07910  -0.06415  -0.05744
 Alpha virt. eigenvalues --   -0.04367  -0.03719  -0.03026  -0.02252  -0.01788

 Mulliken charges:
               1
     1  C   -0.610994
     2  C    0.567718
     3  C   -0.730308
     4  C    0.305176
     5  C    0.053463
     6  H    0.341205
     7  H    0.369121
     8  H    0.379722
     9  H    0.358643
    10  N   -0.107299
    11  O    0.033658
    12  O    0.029585
    13  C   -0.471767
    14  H    0.460798
    15  Br   0.021280
 Sum of Mulliken charges =   1.00000

 Dipole moment (field-independent basis, Debye):
    X=             -0.4280    Y=              0.0231    Z=              2.8377  Tot=              2.8699
 Quadrupole moment (field-independent basis, Debye-Ang):
   XX=            -70.7060   YY=            -52.8631   ZZ=            -65.9390
   XY=              0.8593   XZ=              2.4216   YZ=             -0.7837

 Normal termination of Gaussian 16 at Wed May  1 15:17:38 2024.
