 Gaussian 16, Revision A.03,
 Gaussian 16:  ES64L-G16RevA.03 25-Dec-2016

 --------------------------------------------------------------------
 #p B3LYP/6-311+G** #p TD=(singlets,nstates=30)IOp(6/8=3) IOp(9/40=4)
 --------------------------------------------------------------------

 --------------------------------------------
 Scan Step 59, Bond Length 0.7949999999999999
 --------------------------------------------
 Symbolic Z-matrix:
 Charge =  0 Multiplicity = 1

                         Standard orientation:
 ---------------------------------------------------------------------
 Center     Atomic      Atomic             Coordinates (Angstroms)
 Number     Number       Type             X           Y           Z
 ---------------------------------------------------------------------
      1          6           0        0.000000    0.000000   -0.323581
      2          1           0        0.000000    0.937260   -0.914931
      3          1           0       -0.000000   -0.937260   -0.914931
      4          8           0        0.000000   -0.000000    0.471419
 ---------------------------------------------------------------------

 SCF Done:  E(RB3LYP) =  -113.810776196     A.U. after    9 cycles

 Excitation energies and oscillator strengths:

 Excited State   1:      Singlet-B2     5.4368 eV  228.05 nm  f=0.1025  <S**2>=0.000
       3 -> 11        -0.00080
       3 -> 16        -0.00041
       3 -> 18        -0.00087
       3 -> 23        -0.00016
       3 -> 24        -0.00104
       3 -> 29         0.00022
       3 -> 40        -0.00010
       3 -> 42        -0.00018
       3 -> 50         0.00014
       3 -> 53        -0.00012
       4 ->  9         0.00261
       4 -> 12        -0.00497
       4 -> 14        -0.00446
       4 -> 15        -0.00164
       4 -> 19        -0.00353
       4 -> 20        -0.00165
       4 -> 21        -0.00223
       4 -> 25        -0.00146
       4 -> 26         0.00089
       4 -> 30         0.00155
       4 -> 31        -0.00100
       4 -> 34        -0.00046
       4 -> 38         0.00080
       4 -> 41        -0.00052
       4 -> 44         0.00039
       4 -> 46         0.00067
       4 -> 48        -0.00034
       5 -> 28        -0.00136
       5 -> 35        -0.00051
       5 -> 45        -0.00087
       6 -> 11         0.00704
       6 -> 16        -0.00164
       6 -> 18        -0.00056
       6 -> 23         0.00187
       6 -> 24        -0.00424
       6 -> 29         0.00084
       6 -> 32         0.00106
       6 -> 36        -0.00077
       6 -> 42        -0.00039
       7 -> 11        -0.00354
       7 -> 16        -0.00399
       7 -> 18        -0.00307
       7 -> 23         0.00138
       7 -> 24        -0.00242
       7 -> 29        -0.00035
       7 -> 32        -0.00019
       7 -> 36         0.00039
       7 -> 42         0.00038
       7 -> 47        -0.00045
       7 -> 50        -0.00046
       7 -> 53         0.00011
       8 ->  9         0.70603
       8 -> 12        -0.00268
       8 -> 14         0.03181
       8 -> 15        -0.01022
       8 -> 19        -0.02122
       8 -> 20         0.00662
       8 -> 21         0.00899
       8 -> 25        -0.00046
       8 -> 26         0.00022
       8 -> 30        -0.00056
       8 -> 31        -0.00323
       8 -> 34        -0.00132
       8 -> 38        -0.00103
       8 -> 39         0.00040
       8 -> 41         0.00061
       8 -> 46         0.00098
       8 -> 48        -0.00035
       8 -> 54         0.00012
       3 <- 11        -0.00029
       3 <- 18        -0.00056
       3 <- 24        -0.00078
       3 <- 29         0.00020
       3 <- 32         0.00010
       3 <- 40        -0.00011
       3 <- 42        -0.00016
       3 <- 53        -0.00013
       4 <-  9         0.00174
       4 <- 12         0.00021
       4 <- 14        -0.00360
       4 <- 15        -0.00187
       4 <- 19        -0.00086
       4 <- 20        -0.00076
       4 <- 21        -0.00152
       4 <- 25        -0.00155
       4 <- 26         0.00125
       4 <- 30         0.00056
       4 <- 31        -0.00029
       4 <- 34        -0.00026
       4 <- 38         0.00050
       4 <- 39        -0.00017
       4 <- 41        -0.00046
       4 <- 44         0.00029
       4 <- 46         0.00060
       4 <- 48        -0.00028
       5 <- 28        -0.00109
       5 <- 35        -0.00040
       5 <- 45        -0.00073
       6 <- 11         0.00056
       6 <- 16        -0.00177
       6 <- 18        -0.00176
       6 <- 23         0.00097
       6 <- 24        -0.00329
       6 <- 29         0.00066
       6 <- 32         0.00084
       6 <- 36        -0.00062
       6 <- 40         0.00013
       6 <- 42        -0.00021
       7 <- 11        -0.00082
       7 <- 16        -0.00235
       7 <- 18        -0.00078
       7 <- 23         0.00054
       7 <- 24        -0.00113
       7 <- 29        -0.00097
       7 <- 36         0.00012
       7 <- 42         0.00030
       7 <- 47        -0.00044
       7 <- 50        -0.00054
       8 <-  9        -0.00574
       8 <- 12        -0.00328
       8 <- 14         0.01574
       8 <- 15         0.00372
       8 <- 19         0.00134
       8 <- 21         0.00462
       8 <- 25         0.00316
       8 <- 26         0.00057
       8 <- 30        -0.00059
       8 <- 31        -0.00187
       8 <- 34        -0.00150
       8 <- 38        -0.00099
       8 <- 39         0.00033
       8 <- 41         0.00045
       8 <- 46         0.00077
       8 <- 48        -0.00030
 This state for optimization and/or second-order correction.
 Total Energy, E(TD-HF/TD-DFT) =  -113.610978418
 Copying the excited state density for this state as the 1-particle RhoCI density.

 Excited State   2:      Singlet-A2     5.5306 eV  224.18 nm  f=0.0000  <S**2>=0.000
       3 -> 28         0.00233
       3 -> 35         0.00168
       3 -> 45         0.00076
       4 -> 10         0.00280
       4 -> 13         0.00518
       4 -> 17         0.00527
       4 -> 22        -0.00299
       4 -> 27         0.00261
       4 -> 33         0.00079
       4 -> 37         0.00251
       4 -> 43         0.00033
       4 -> 49         0.00011
       4 -> 52         0.00049
       5 -> 11        -0.00045
       5 -> 16        -0.00024
       5 -> 18        -0.00038
       5 -> 23         0.00140
       5 -> 32         0.00018
       5 -> 36         0.00043
       5 -> 42         0.00046
       5 -> 47         0.00053
       5 -> 50        -0.00019
       5 -> 53         0.00017
       6 -> 28         0.00367
       6 -> 35        -0.00060
       6 -> 45        -0.00040
       7 -> 28         0.00068
       7 -> 45         0.00076
       8 -> 10         0.70181
       8 -> 13         0.08090
       8 -> 17         0.03045
       8 -> 22        -0.00151
       8 -> 27         0.00354
       8 -> 33         0.00322
       8 -> 37        -0.00234
       8 -> 52         0.00062
       3 <- 28         0.00181
       3 <- 35         0.00145
       3 <- 45         0.00076
       4 <- 10         0.00019
       4 <- 13         0.00106
       4 <- 17         0.00047
       4 <- 27         0.00016
       4 <- 33        -0.00094
       4 <- 37         0.00123
       4 <- 43         0.00037
       4 <- 52         0.00012
       5 <- 11        -0.00081
       5 <- 16         0.00092
       5 <- 18        -0.00241
       5 <- 23         0.00281
       5 <- 24        -0.00166
       5 <- 29         0.00147
       5 <- 32        -0.00053
       5 <- 36         0.00130
       5 <- 42         0.00063
       5 <- 47         0.00045
       5 <- 53         0.00047
       6 <- 28         0.00384
       6 <- 35        -0.00061
       6 <- 45        -0.00040
       7 <- 28         0.00062
       7 <- 45         0.00066
       8 <- 10        -0.00285
       8 <- 13        -0.00795
       8 <- 17        -0.00483
       8 <- 22         0.00029
       8 <- 27        -0.00039
       8 <- 33         0.00300
       8 <- 37        -0.00199
       8 <- 43         0.00010
       8 <- 52         0.00020

 Excited State   3:      Singlet-B2     6.2626 eV  197.97 nm  f=0.0265  <S**2>=0.000
       3 -> 11         0.00010
       3 -> 16        -0.00056
       3 -> 18         0.00018
       3 -> 23        -0.00022
       3 -> 24        -0.00044
       3 -> 29        -0.00071
       3 -> 32        -0.00014
       3 -> 36         0.00026
       3 -> 42         0.00027
       3 -> 47        -0.00018
       3 -> 50        -0.00017
       3 -> 53         0.00013
       4 ->  9        -0.00351
       4 -> 12        -0.00027
       4 -> 14        -0.00205
       4 -> 15        -0.00364
       4 -> 19         0.00244
       4 -> 21        -0.00142
       4 -> 25        -0.00083
       4 -> 26        -0.00101
       4 -> 30         0.00100
       4 -> 31         0.00212
       4 -> 34         0.00024
       4 -> 39         0.00090
       4 -> 41         0.00048
       4 -> 46        -0.00062
       4 -> 48         0.00030
       4 -> 51         0.00016
       5 -> 28         0.00095
       5 -> 35         0.00133
       5 -> 45         0.00089
       6 -> 11        -0.00181
       6 -> 16        -0.00503
       6 -> 18        -0.00027
       6 -> 23         0.00094
       6 -> 24        -0.00370
       6 -> 29         0.00151
       6 -> 32        -0.00054
       6 -> 36        -0.00011
       6 -> 40         0.00031
       6 -> 42        -0.00011
       7 -> 11         0.00278
       7 -> 16         0.00111
       7 -> 18         0.00229
       7 -> 23        -0.00116
       7 -> 24         0.00110
       7 -> 29         0.00011
       7 -> 32         0.00023
       7 -> 36        -0.00103
       7 -> 40         0.00027
       7 -> 42        -0.00051
       7 -> 47         0.00066
       7 -> 50         0.00050
       7 -> 53        -0.00018
       8 ->  9         0.00254
       8 -> 12         0.70598
       8 -> 14         0.02222
       8 -> 15         0.02568
       8 -> 19         0.01363
       8 -> 20         0.01568
       8 -> 21         0.00410
       8 -> 25        -0.00058
       8 -> 26         0.00106
       8 -> 30        -0.00193
       8 -> 31        -0.00074
       8 -> 34        -0.00033
       8 -> 39         0.00114
       8 -> 41         0.00101
       8 -> 46        -0.00066
       8 -> 48         0.00037
       8 -> 54        -0.00015
       3 <- 11        -0.00016
       3 <- 16        -0.00057
       3 <- 24        -0.00049
       3 <- 29        -0.00047
       3 <- 32        -0.00015
       3 <- 36         0.00028
       3 <- 42         0.00023
       3 <- 47        -0.00014
       3 <- 53         0.00021
       4 <-  9         0.00134
       4 <- 14        -0.00162
       4 <- 15        -0.00066
       4 <- 19        -0.00064
       4 <- 20         0.00040
       4 <- 21        -0.00099
       4 <- 25        -0.00093
       4 <- 26        -0.00090
       4 <- 30         0.00100
       4 <- 31         0.00094
       4 <- 34         0.00077
       4 <- 39         0.00069
       4 <- 41         0.00048
       4 <- 46        -0.00062
       4 <- 48         0.00019
       4 <- 51         0.00015
       5 <- 28         0.00051
       5 <- 35         0.00112
       5 <- 45         0.00078
       6 <- 16        -0.00114
       6 <- 18        -0.00092
       6 <- 23         0.00111
       6 <- 24        -0.00210
       6 <- 29         0.00078
       6 <- 32        -0.00061
       6 <- 36        -0.00034
       6 <- 40         0.00030
       6 <- 50        -0.00011
       7 <- 11         0.00036
       7 <- 16         0.00061
       7 <- 18         0.00025
       7 <- 23        -0.00028
       7 <- 24         0.00034
       7 <- 29         0.00047
       7 <- 36        -0.00067
       7 <- 40         0.00021
       7 <- 42        -0.00036
       7 <- 47         0.00058
       7 <- 50         0.00050
       8 <-  9        -0.00302
       8 <- 12         0.00137
       8 <- 14         0.00842
       8 <- 15         0.00257
       8 <- 19        -0.00149
       8 <- 20        -0.00244
       8 <- 21         0.00305
       8 <- 25         0.00058
       8 <- 26        -0.00047
       8 <- 30        -0.00156
       8 <- 31        -0.00104
       8 <- 38         0.00022
       8 <- 39         0.00089
       8 <- 41         0.00087
       8 <- 46        -0.00055
       8 <- 48         0.00021

 Excited State   4:      Singlet-A1     6.4067 eV  193.52 nm  f=0.0283  <S**2>=0.000
       3 ->  9        -0.00123
       3 -> 12         0.00066
       3 -> 15         0.00062
       3 -> 19         0.00136
       3 -> 20        -0.00010
       3 -> 21        -0.00051
       3 -> 25         0.00038
       3 -> 26         0.00014
       3 -> 30        -0.00100
       3 -> 34        -0.00027
       3 -> 38        -0.00031
       3 -> 39        -0.00030
       3 -> 51        -0.00024
       3 -> 54         0.00018
       4 -> 11         0.00695
       4 -> 16         0.00793
       4 -> 18         0.00517
       4 -> 23         0.00158
       4 -> 24         0.00365
       4 -> 29         0.00072
       4 -> 32        -0.00014
       4 -> 36         0.00101
       4 -> 42        -0.00027
       4 -> 50        -0.00032
       5 -> 10         0.00563
       5 -> 13        -0.00264
       5 -> 17         0.00468
       5 -> 22         0.00358
       5 -> 27         0.00097
       5 -> 33         0.00093
       5 -> 37         0.00055
       5 -> 43         0.00034
       5 -> 49        -0.00034
       6 ->  9        -0.00663
       6 -> 12        -0.01089
       6 -> 14         0.00596
       6 -> 15         0.00350
       6 -> 19         0.00231
       6 -> 20        -0.00688
       6 -> 21         0.00100
       6 -> 25         0.00670
       6 -> 26        -0.00116
       6 -> 30         0.00093
       6 -> 31        -0.00108
       6 -> 34        -0.00132
       6 -> 38        -0.00064
       6 -> 39         0.00115
       6 -> 44        -0.00037
       6 -> 46        -0.00020
       6 -> 48        -0.00037
       7 ->  9        -0.01212
       7 -> 12         0.00656
       7 -> 14         0.00139
       7 -> 15        -0.00129
       7 -> 19         0.00875
       7 -> 20        -0.00094
       7 -> 21         0.00013
       7 -> 25         0.00124
       7 -> 26         0.00082
       7 -> 30        -0.00039
       7 -> 31         0.00092
       7 -> 34        -0.00092
       7 -> 38        -0.00012
       7 -> 39         0.00015
       7 -> 48        -0.00021
       7 -> 51         0.00032
       8 -> 11         0.70523
       8 -> 16         0.04590
       8 -> 18        -0.01166
       8 -> 23         0.00167
       8 -> 24         0.00271
       8 -> 29         0.00401
       8 -> 32         0.00167
       8 -> 36        -0.00282
       8 -> 40         0.00021
       8 -> 42         0.00163
       8 -> 47        -0.00059
       3 <-  9        -0.00058
       3 <- 12         0.00029
       3 <- 15         0.00035
       3 <- 19         0.00081
       3 <- 21        -0.00026
       3 <- 25         0.00035
       3 <- 26         0.00014
       3 <- 30        -0.00063
       3 <- 34        -0.00024
       3 <- 38        -0.00023
       3 <- 39        -0.00026
       3 <- 46         0.00013
       3 <- 48        -0.00012
       3 <- 51        -0.00020
       3 <- 54         0.00017
       4 <- 11         0.00254
       4 <- 16         0.00283
       4 <- 18         0.00277
       4 <- 23         0.00126
       4 <- 24         0.00195
       4 <- 29         0.00031
       4 <- 32        -0.00024
       4 <- 36         0.00086
       4 <- 42        -0.00024
       4 <- 50        -0.00027
       5 <- 10         0.00251
       5 <- 13        -0.00124
       5 <- 17         0.00245
       5 <- 22         0.00228
       5 <- 27         0.00065
       5 <- 33         0.00073
       5 <- 37         0.00046
       5 <- 43         0.00029
       5 <- 49        -0.00030
       6 <-  9        -0.00657
       6 <- 12        -0.00444
       6 <- 14         0.00459
       6 <- 15         0.00301
       6 <- 19         0.00146
       6 <- 20        -0.00387
       6 <- 21        -0.00016
       6 <- 25         0.00426
       6 <- 26        -0.00059
       6 <- 30         0.00026
       6 <- 31        -0.00115
       6 <- 34        -0.00099
       6 <- 38        -0.00072
       6 <- 39         0.00091
       6 <- 44        -0.00041
       6 <- 46        -0.00018
       6 <- 48        -0.00030
       7 <-  9        -0.00415
       7 <- 12         0.00203
       7 <- 14         0.00052
       7 <- 15        -0.00067
       7 <- 19         0.00404
       7 <- 20        -0.00071
       7 <- 25         0.00077
       7 <- 26         0.00043
       7 <- 30        -0.00035
       7 <- 31         0.00067
       7 <- 34        -0.00063
       7 <- 38        -0.00015
       7 <- 39         0.00023
       7 <- 46        -0.00013
       7 <- 48        -0.00013
       7 <- 51         0.00029
       8 <- 11        -0.00558
       8 <- 16         0.00469
       8 <- 18        -0.01297
       8 <- 23        -0.00226
       8 <- 24        -0.00081
       8 <- 29         0.00241
       8 <- 32         0.00139
       8 <- 36        -0.00212
       8 <- 42         0.00131
       8 <- 47        -0.00064

 Excited State   5:      Singlet-A2     7.6835 eV  161.36 nm  f=0.0000  <S**2>=0.000
       3 -> 28         0.00244
       3 -> 35         0.00186
       3 -> 45         0.00079
       4 -> 10         0.00466
       4 -> 13         0.01009
       4 -> 22        -0.00294
       4 -> 27         0.00069
       4 -> 33         0.00199
       4 -> 37         0.00307
       4 -> 43         0.00028
       4 -> 52         0.00049
       5 -> 16        -0.00151
       5 -> 18        -0.00033
       5 -> 23         0.00168
       5 -> 24        -0.00015
       5 -> 29        -0.00034
       5 -> 32         0.00012
       5 -> 36         0.00049
       5 -> 42         0.00055
       5 -> 47         0.00052
       5 -> 53         0.00020
       6 -> 28         0.00220
       6 -> 35        -0.00085
       6 -> 45        -0.00020
       7 -> 28         0.00042
       7 -> 45         0.00085
       8 -> 10        -0.08203
       8 -> 13         0.70143
       8 -> 17         0.02507
       8 -> 22        -0.02374
       8 -> 27         0.00295
       8 -> 33         0.00229
       8 -> 37        -0.00217
       8 -> 43        -0.00014
       8 -> 52         0.00053
       3 <- 28         0.00161
       3 <- 35         0.00153
       3 <- 45         0.00088
       4 <- 10         0.00034
       4 <- 13         0.00071
       4 <- 17        -0.00014
       4 <- 33        -0.00055
       4 <- 37         0.00110
       4 <- 43         0.00034
       4 <- 52         0.00015
       5 <- 11         0.00030
       5 <- 16        -0.00040
       5 <- 18        -0.00098
       5 <- 23         0.00282
       5 <- 24        -0.00130
       5 <- 29         0.00032
       5 <- 32        -0.00078
       5 <- 36         0.00152
       5 <- 42         0.00085
       5 <- 47         0.00025
       5 <- 53         0.00044
       6 <- 28         0.00271
       6 <- 35        -0.00030
       6 <- 45        -0.00031
       7 <- 28         0.00052
       7 <- 35        -0.00023
       7 <- 45         0.00048
       8 <- 10        -0.00725
       8 <- 13        -0.00380
       8 <- 17        -0.00222
       8 <- 22         0.00068
       8 <- 27        -0.00038
       8 <- 33         0.00222
       8 <- 37        -0.00158
       8 <- 43         0.00011
       8 <- 52         0.00021

 Excited State   6:      Singlet-B2     9.5303 eV  130.10 nm  f=0.1337  <S**2>=0.000
       3 -> 11        -0.00037
       3 -> 16         0.00086
       3 -> 18        -0.00077
       3 -> 23         0.00049
       3 -> 24         0.00031
       3 -> 29         0.00075
       3 -> 32        -0.00062
       3 -> 40         0.00040
       3 -> 42         0.00036
       3 -> 47         0.00024
       4 ->  9        -0.00523
       4 -> 12         0.00576
       4 -> 14         0.01297
       4 -> 15         0.00061
       4 -> 19         0.00256
       4 -> 20         0.00797
       4 -> 21         0.00936
       4 -> 25         0.00395

 The electronic state is 1-A1.
 Alpha  occ. eigenvalues --  -19.14730 -10.24571  -1.31683  -0.67447  -0.63476
 Alpha  occ. eigenvalues --   -0.58218  -0.54097  -0.22452
 Alpha virt. eigenvalues --    0.01288   0.02565   0.04438   0.04517   0.11395
 Alpha virt. eigenvalues --    0.14398   0.17645   0.19736   0.21745   0.24777
 Alpha virt. eigenvalues --    0.25108   0.36526   0.50504   0.54487   0.55698

 Mulliken charges:
               1
     1  C    0.308565
     2  H   -0.042248
     3  H   -0.042248
     4  O   -0.224069
 Sum of Mulliken charges =  -0.00000

 Dipole moment (field-independent basis, Debye):
    X=              0.0000    Y=             -0.0000    Z=              0.2117  Tot=              0.2117
 Quadrupole moment (field-independent basis, Debye-Ang):
   XX=            -10.5216   YY=            -12.8207   ZZ=            -13.4238
   XY=             -0.0000   XZ=             -0.0000   YZ=             -0.0000

 Normal termination of Gaussian 16 at Fri Sep 17 10:52:25 2021.
