 Gaussian 16, Revision A.03,
 Gaussian 16:  ES64L-G16RevA.03 25-Dec-2016

 --------------------------------------------------------------------
 #p B3LYP/6-311+G** #p TD=(singlets,nstates=30)IOp(6/8=3) IOp(9/40=4)
 --------------------------------------------------------------------

 --------------------------------------------
 Scan Step 36, Bond Length 0.6799999999999999
 --------------------------------------------
 Symbolic Z-matrix:
 Charge =  0 Multiplicity = 1

                         Standard orientation:
 ---------------------------------------------------------------------
 Center     Atomic      Atomic             Coordinates (Angstroms)
 Number     Number       Type             X           Y           Z
 ---------------------------------------------------------------------
      1          6           0        0.000000    0.000000   -0.266081
      2          1           0        0.000000    0.937260   -0.857431
      3          1           0       -0.000000   -0.937260   -0.857431
      4          8           0        0.000000    0.000000    0.413919
 ---------------------------------------------------------------------

 SCF Done:  E(RB3LYP) =  -112.826585952     A.U. after   10 cycles

 Excitation energies and oscillator strengths:

 Excited State   1:      Singlet-B2     4.8608 eV  255.07 nm  f=0.1230  <S**2>=0.000
       3 -> 11         0.00075
       3 -> 16         0.00061
       3 -> 19         0.00076
       3 -> 22         0.00044
       3 -> 24        -0.00100
       3 -> 29         0.00020
       3 -> 32        -0.00018
       3 -> 40        -0.00021
       3 -> 43         0.00021
       3 -> 50        -0.00011
       3 -> 53         0.00015
       4 ->  9        -0.00288
       4 -> 12         0.00307
       4 -> 13         0.00356
       4 -> 15         0.00152
       4 -> 18         0.00283
       4 -> 20         0.00203
       4 -> 21         0.00172
       4 -> 25         0.00147
       4 -> 26        -0.00077
       4 -> 30         0.00057
       4 -> 31         0.00159
       4 -> 33         0.00028
       4 -> 38        -0.00067
       4 -> 42        -0.00049
       4 -> 44        -0.00031
       4 -> 47        -0.00077
       4 -> 49         0.00016
       4 -> 51        -0.00010
       5 -> 28         0.00179
       5 -> 35         0.00079
       5 -> 45         0.00080
       6 -> 11        -0.00535
       6 -> 16         0.00344
       6 -> 19         0.00060
       6 -> 22        -0.00091
       6 -> 24        -0.00468
       6 -> 29         0.00072
       6 -> 32        -0.00076
       6 -> 37         0.00024
       6 -> 43         0.00017
       6 -> 46         0.00033
       7 -> 11         0.00799
       7 -> 16         0.00353
       7 -> 19         0.00291
       7 -> 24        -0.00061
       7 -> 29        -0.00106
       7 -> 32         0.00084
       7 -> 37        -0.00071
       7 -> 43        -0.00042
       7 -> 46         0.00041
       7 -> 50         0.00043
       7 -> 53        -0.00011
       8 ->  9         0.70534
       8 -> 12        -0.00022
       8 -> 13         0.04741
       8 -> 15        -0.00665
       8 -> 18        -0.02202
       8 -> 20         0.00548
       8 -> 21         0.01020
       8 -> 25        -0.00022
       8 -> 26        -0.00034
       8 -> 30        -0.00301
       8 -> 31        -0.00213
       8 -> 33        -0.00105
       8 -> 38        -0.00112
       8 -> 39         0.00012
       8 -> 42        -0.00074
       8 -> 44         0.00032
       8 -> 47         0.00078
       8 -> 49        -0.00028
       8 -> 51         0.00011
       3 <- 11         0.00032
       3 <- 16         0.00027
       3 <- 19         0.00050
       3 <- 22         0.00035
       3 <- 24        -0.00075
       3 <- 29         0.00016
       3 <- 32        -0.00019
       3 <- 40        -0.00022
       3 <- 43         0.00020
       3 <- 53         0.00015
       4 <-  9        -0.00130
       4 <- 12        -0.00022
       4 <- 13         0.00292
       4 <- 15         0.00180
       4 <- 18         0.00058
       4 <- 20         0.00116
       4 <- 21         0.00133
       4 <- 25         0.00122
       4 <- 26        -0.00132
       4 <- 30         0.00047
       4 <- 31         0.00066
       4 <- 33         0.00023
       4 <- 38        -0.00043
       4 <- 39         0.00015
       4 <- 42        -0.00040
       4 <- 44        -0.00025
       4 <- 47        -0.00069
       5 <- 28         0.00149
       5 <- 35         0.00064
       5 <- 45         0.00068
       6 <- 11        -0.00090
       6 <- 16         0.00305
       6 <- 19         0.00087
       6 <- 22        -0.00017
       6 <- 24        -0.00343
       6 <- 29         0.00025
       6 <- 32        -0.00066
       6 <- 37         0.00029
       6 <- 43         0.00011
       6 <- 46         0.00030
       6 <- 50         0.00017
       7 <- 11         0.00168
       7 <- 16         0.00152
       7 <- 19         0.00025
       7 <- 24         0.00011
       7 <- 29        -0.00155
       7 <- 32         0.00067
       7 <- 37        -0.00043
       7 <- 43        -0.00029
       7 <- 46         0.00044
       7 <- 50         0.00049
       8 <-  9        -0.00838
       8 <- 12        -0.00530
       8 <- 13         0.01998
       8 <- 15         0.00608
       8 <- 18         0.00141
       8 <- 20         0.00051
       8 <- 21         0.00519
       8 <- 25         0.00309
       8 <- 30        -0.00198
       8 <- 31        -0.00140
       8 <- 33        -0.00139
       8 <- 38        -0.00107
       8 <- 42        -0.00062
       8 <- 47         0.00066
       8 <- 49        -0.00020
 This state for optimization and/or second-order correction.
 Total Energy, E(TD-HF/TD-DFT) =  -112.647953476
 Copying the excited state density for this state as the 1-particle RhoCI density.

 Excited State   2:      Singlet-A2     5.1786 eV  239.41 nm  f=0.0000  <S**2>=0.000
       3 -> 28        -0.00187
       3 -> 35        -0.00117
       3 -> 45        -0.00043
       4 -> 10        -0.00093
       4 -> 14         0.00105
       4 -> 17        -0.00372
       4 -> 23         0.00170
       4 -> 27        -0.00223
       4 -> 36        -0.00153
       4 -> 41        -0.00016
       4 -> 48        -0.00013
       4 -> 52        -0.00029
       5 -> 11         0.00029
       5 -> 16        -0.00014
       5 -> 19         0.00035
       5 -> 22        -0.00094
       5 -> 24        -0.00022
       5 -> 29         0.00021
       5 -> 32        -0.00012
       5 -> 37        -0.00033
       5 -> 43        -0.00038
       5 -> 46        -0.00037
       5 -> 50         0.00019
       5 -> 53        -0.00010
       6 -> 28        -0.00330
       6 -> 35         0.00048
       7 -> 28         0.00139
       7 -> 35        -0.00031
       7 -> 45        -0.00047
       8 -> 10         0.70599
       8 -> 14        -0.02883
       8 -> 17         0.02813
       8 -> 23         0.00289
       8 -> 27         0.00165
       8 -> 34         0.00320
       8 -> 36        -0.00194
       8 -> 41         0.00024
       8 -> 48         0.00014
       8 -> 52         0.00038
       3 <- 28        -0.00153
       3 <- 35        -0.00101
       3 <- 45        -0.00041
       4 <- 10        -0.00018
       4 <- 14         0.00072
       4 <- 17        -0.00074
       4 <- 23         0.00012
       4 <- 27        -0.00036
       4 <- 34         0.00076
       4 <- 36        -0.00084
       4 <- 41        -0.00024
       5 <- 11         0.00062
       5 <- 16        -0.00058
       5 <- 19         0.00154
       5 <- 22        -0.00140
       5 <- 24        -0.00119
       5 <- 29         0.00132
       5 <- 32         0.00023
       5 <- 37        -0.00077
       5 <- 43        -0.00044
       5 <- 46        -0.00036
       5 <- 53        -0.00026
       6 <- 28        -0.00322
       6 <- 35         0.00062
       7 <- 28         0.00147
       7 <- 35        -0.00039
       7 <- 45        -0.00047
       8 <- 10         0.00124
       8 <- 14         0.00539
       8 <- 17        -0.00609
       8 <- 23         0.00019
       8 <- 27        -0.00051
       8 <- 34         0.00308
       8 <- 36        -0.00155
       8 <- 41         0.00017
       8 <- 52         0.00013

 Excited State   3:      Singlet-B2     5.7922 eV  214.06 nm  f=0.0335  <S**2>=0.000
       3 -> 11        -0.00014
       3 -> 16         0.00047
       3 -> 19        -0.00028
       3 -> 22         0.00029
       3 -> 24        -0.00034
       3 -> 29        -0.00041
       3 -> 32         0.00013
       3 -> 37        -0.00021
       3 -> 43        -0.00022
       3 -> 46         0.00015
       3 -> 50         0.00011
       3 -> 53        -0.00017
       4 ->  9         0.00188
       4 -> 12         0.00033
       4 -> 13         0.00129
       4 -> 15         0.00253
       4 -> 18        -0.00141
       4 -> 20        -0.00048
       4 -> 21         0.00124
       4 -> 25         0.00085
       4 -> 26         0.00061
       4 -> 30        -0.00217
       4 -> 31        -0.00062
       4 -> 38         0.00023
       4 -> 39        -0.00096
       4 -> 42         0.00032
       4 -> 47         0.00053
       4 -> 49        -0.00010
       5 -> 28        -0.00099
       5 -> 35        -0.00123
       5 -> 45        -0.00070
       6 -> 11        -0.00042
       6 -> 16         0.00383
       6 -> 19        -0.00162
       6 -> 24        -0.00212
       6 -> 29         0.00182
       6 -> 32         0.00041
       6 -> 37         0.00059
       6 -> 40         0.00042
       6 -> 43         0.00030
       6 -> 46        -0.00028
       6 -> 50        -0.00023
       6 -> 53         0.00013
       7 -> 11        -0.00225
       7 -> 16        -0.00412
       7 -> 19        -0.00133
       7 -> 22         0.00075
       7 -> 24         0.00307
       7 -> 29        -0.00091
       7 -> 32        -0.00045
       7 -> 37         0.00059
       7 -> 43         0.00019
       7 -> 46        -0.00058
       7 -> 50        -0.00032
       7 -> 53         0.00015
       8 ->  9        -0.00108
       8 -> 12         0.70574
       8 -> 13         0.03097
       8 -> 15         0.02705
       8 -> 18         0.00864
       8 -> 20         0.01580
       8 -> 21         0.00528
       8 -> 25        -0.00087
       8 -> 26         0.00172
       8 -> 30        -0.00254
       8 -> 31         0.00042
       8 -> 33        -0.00026
       8 -> 38        -0.00034
       8 -> 39         0.00141
       8 -> 42        -0.00087
       8 -> 47        -0.00046
       8 -> 49         0.00012
       8 -> 54        -0.00015
       3 <- 16         0.00046
       3 <- 22         0.00014
       3 <- 24        -0.00040
       3 <- 29        -0.00025
       3 <- 32         0.00013
       3 <- 37        -0.00023
       3 <- 43        -0.00020
       3 <- 46         0.00011
       3 <- 53        -0.00022
       4 <-  9        -0.00121
       4 <- 12        -0.00014
       4 <- 13         0.00131
       4 <- 15         0.00070
       4 <- 18         0.00061
       4 <- 20        -0.00043
       4 <- 21         0.00084
       4 <- 25         0.00097
       4 <- 26         0.00065
       4 <- 30        -0.00144
       4 <- 33        -0.00060
       4 <- 38         0.00016
       4 <- 39        -0.00072
       4 <- 42         0.00033
       4 <- 47         0.00050
       5 <- 28        -0.00059
       5 <- 35        -0.00106
       5 <- 45        -0.00062
       6 <- 11        -0.00040
       6 <- 16         0.00081
       6 <- 19         0.00039
       6 <- 22        -0.00062
       6 <- 24        -0.00167
       6 <- 29         0.00134
       6 <- 32         0.00058
       6 <- 37         0.00058
       6 <- 40         0.00037
       6 <- 43         0.00020
       6 <- 46        -0.00024
       6 <- 50        -0.00017
       7 <- 16        -0.00137
       7 <- 19        -0.00058
       7 <- 22         0.00047
       7 <- 24         0.00170
       7 <- 29        -0.00014
       7 <- 32        -0.00035
       7 <- 37         0.00023
       7 <- 43         0.00012
       7 <- 46        -0.00051
       7 <- 50        -0.00039
       8 <-  9        -0.00487
       8 <- 12         0.00112
       8 <- 13         0.01085
       8 <- 15         0.00416
       8 <- 18        -0.00117
       8 <- 20        -0.00299
       8 <- 21         0.00331
       8 <- 25         0.00065
       8 <- 26        -0.00010
       8 <- 30        -0.00219
       8 <- 31         0.00036
       8 <- 33        -0.00010
       8 <- 38        -0.00017
       8 <- 39         0.00122
       8 <- 42        -0.00075
       8 <- 47        -0.00037

 Excited State   4:      Singlet-A1     5.9584 eV  208.08 nm  f=0.0100  <S**2>=0.000
       3 ->  9         0.00125
       3 -> 12        -0.00051
       3 -> 13         0.00020
       3 -> 15        -0.00069
       3 -> 18        -0.00148
       3 -> 21         0.00076
       3 -> 25        -0.00059
       3 -> 26        -0.00028
       3 -> 30         0.00073
       3 -> 31        -0.00072
       3 -> 33         0.00039
       3 -> 38         0.00034
       3 -> 39         0.00033
       3 -> 47        -0.00012
       3 -> 51         0.00019
       3 -> 54        -0.00013
       4 -> 11        -0.00620
       4 -> 16        -0.00652
       4 -> 19        -0.00464
       4 -> 22        -0.00233
       4 -> 24         0.00328
       4 -> 29         0.00032
       4 -> 37        -0.00103
       4 -> 40        -0.00011
       4 -> 43         0.00026
       4 -> 50         0.00020
       5 -> 10        -0.00365
       5 -> 14        -0.00338
       5 -> 17        -0.00309
       5 -> 23        -0.00341
       5 -> 27        -0.00095
       5 -> 34        -0.00089
       5 -> 36        -0.00059
       5 -> 41        -0.00013
       5 -> 48         0.00023
       6 ->  9         0.01127
       6 -> 12         0.00659
       6 -> 13        -0.00433
       6 -> 15        -0.00417
       6 -> 18        -0.00695
       6 -> 20         0.00495
       6 -> 21         0.00102
       6 -> 25        -0.00585
       6 -> 26         0.00090
       6 -> 30        -0.00034
       6 -> 31         0.00143
       6 -> 33         0.00194
       6 -> 38         0.00117
       6 -> 39        -0.00116
       6 -> 42         0.00012
       6 -> 44         0.00058
       6 -> 49         0.00046
       7 ->  9         0.00729
       7 -> 12        -0.01192
       7 -> 13         0.00132
       7 -> 15         0.00470
       7 -> 18        -0.00710
       7 -> 20        -0.00356
       7 -> 21        -0.00043
       7 -> 25         0.00174
       7 -> 26        -0.00271
       7 -> 30        -0.00055
       7 -> 31        -0.00178
       7 -> 33         0.00017
       7 -> 38        -0.00058
       7 -> 39         0.00053
       7 -> 42        -0.00012
       7 -> 44        -0.00032
       7 -> 51        -0.00017
       8 -> 11         0.70478
       8 -> 16         0.05191
       8 -> 19        -0.01865
       8 -> 22        -0.00047
       8 -> 24        -0.00619
       8 -> 29        -0.00398
       8 -> 32         0.00192
       8 -> 37        -0.00321
       8 -> 40        -0.00036
       8 -> 43         0.00182
       8 -> 46        -0.00087
       8 -> 50         0.00018
       3 <-  9         0.00067
       3 <- 12        -0.00025
       3 <- 13         0.00015
       3 <- 15        -0.00043
       3 <- 18        -0.00094
       3 <- 21         0.00049
       3 <- 25        -0.00047
       3 <- 26        -0.00023
       3 <- 30         0.00054
       3 <- 31        -0.00048
       3 <- 33         0.00034
       3 <- 38         0.00026
       3 <- 39         0.00027
       3 <- 47        -0.00016
       3 <- 51         0.00016
       3 <- 54        -0.00012
       4 <- 11        -0.00250
       4 <- 16        -0.00263
       4 <- 19        -0.00263
       4 <- 22        -0.00169
       4 <- 24         0.00177
       4 <- 29         0.00014
       4 <- 32         0.00016
       4 <- 37        -0.00086
       4 <- 40        -0.00010
       4 <- 43         0.00024
       4 <- 50         0.00018
       5 <- 10        -0.00197
       5 <- 14        -0.00191
       5 <- 17        -0.00184
       5 <- 23        -0.00234
       5 <- 27        -0.00069
       5 <- 34        -0.00073
       5 <- 36        -0.00050
       5 <- 41        -0.00011
       5 <- 48         0.00021
       6 <-  9         0.00809
       6 <- 12         0.00327
       6 <- 13        -0.00339
       6 <- 15        -0.00342
       6 <- 18        -0.00377
       6 <- 20         0.00280
       6 <- 21         0.00151
       6 <- 25        -0.00390
       6 <- 26         0.00054
       6 <- 30         0.00012
       6 <- 31         0.00106
       6 <- 33         0.00140
       6 <- 38         0.00117
       6 <- 39        -0.00091
       6 <- 42         0.00011
       6 <- 44         0.00057
       6 <- 49         0.00038
       7 <-  9         0.00028
       7 <- 12        -0.00480
       7 <- 13         0.00167
       7 <- 15         0.00329
       7 <- 18        -0.00331
       7 <- 20        -0.00171
       7 <- 21        -0.00065
       7 <- 25         0.00121
       7 <- 26        -0.00174
       7 <- 30        -0.00060
       7 <- 31        -0.00136
       7 <- 33         0.00011
       7 <- 38        -0.00054
       7 <- 39         0.00030
       7 <- 44        -0.00033
       7 <- 47         0.00010
       7 <- 51        -0.00016
       8 <- 11        -0.00914
       8 <- 16         0.00503
       8 <- 19        -0.01522
       8 <- 22        -0.00391
       8 <- 24        -0.00223
       8 <- 29        -0.00277
       8 <- 32         0.00172
       8 <- 37        -0.00253
       8 <- 40        -0.00012
       8 <- 43         0.00146
       8 <- 46        -0.00085
       8 <- 50         0.00017

 Excited State   5:      Singlet-A2     8.0984 eV  153.10 nm  f=0.0000  <S**2>=0.000
       3 -> 28         0.00265
       3 -> 35         0.00176
       3 -> 45         0.00061
       4 -> 10         0.00078
       4 -> 14        -0.00780
       4 -> 17         0.00151
       4 -> 23        -0.00346
       4 -> 27         0.00072
       4 -> 34         0.00110
       4 -> 36         0.00273
       4 -> 52         0.00037
       5 -> 16        -0.00062
       5 -> 19        -0.00047
       5 -> 22         0.00149
       5 -> 24         0.00066
       5 -> 32         0.00010
       5 -> 37         0.00047
       5 -> 40        -0.00012
       5 -> 43         0.00063
       5 -> 46         0.00049
       5 -> 50        -0.00013
       5 -> 53         0.00015
       6 -> 28         0.00287
       6 -> 35        -0.00069
       6 -> 45         0.00014
       7 -> 28        -0.00122
       7 -> 35         0.00043
       7 -> 45         0.00059
       8 -> 10         0.03089
       8 -> 14         0.70385
       8 -> 17        -0.05645
       8 -> 23         0.02070
       8 -> 27        -0.00277
       8 -> 34        -0.00282
       8 -> 36         0.00284
       8 -> 52        -0.00043
       3 <- 28         0.00182
       3 <- 35         0.00145
       3 <- 45         0.00067
       4 <- 10         0.00033
       4 <- 14        -0.00076
       4 <- 17         0.00044
       4 <- 23        -0.00018
       4 <- 27         0.00023
       4 <- 34        -0.00065
       4 <- 36         0.00104
       4 <- 41         0.00031
       4 <- 52         0.00013
       5 <- 11         0.00034
       5 <- 16        -0.00024
       5 <- 19        -0.00062
       5 <- 22         0.00195
       5 <- 24         0.00162
       5 <- 29        -0.00043
       5 <- 32        -0.00061
       5 <- 37         0.00125
       5 <- 43         0.00076
       5 <- 46         0.00020
       5 <- 53         0.00033
       6 <- 28         0.00307
       6 <- 35        -0.00053
       7 <- 28        -0.00127
       7 <- 45         0.00038
       8 <- 10         0.00561
       8 <- 14        -0.00361
       8 <- 17         0.00401
       8 <- 23        -0.00077
       8 <- 27         0.00048
       8 <- 34        -0.00307
       8 <- 36         0.00168
       8 <- 41        -0.00020
       8 <- 52        -0.00018

 The electronic state is 1-A1.
 Alpha  occ. eigenvalues --  -19.19142 -10.31291  -1.32010  -0.78128  -0.75007
 Alpha  occ. eigenvalues --   -0.57996  -0.54581  -0.20579
 Alpha virt. eigenvalues --    0.00832   0.02795   0.04431   0.04659   0.14394
 Alpha virt. eigenvalues --    0.14540   0.17767   0.18595   0.21689   0.23481
 Alpha virt. eigenvalues --    0.26921   0.36568   0.50700   0.57302   0.57981

 Mulliken charges:
               1
     1  C    0.318073
     2  H   -0.095289
     3  H   -0.095289
     4  O   -0.127496
 Sum of Mulliken charges =   0.00000

 Dipole moment (field-independent basis, Debye):
    X=              0.0000    Y=             -0.0000    Z=              1.0868  Tot=              1.0868
 Quadrupole moment (field-independent basis, Debye-Ang):
   XX=            -10.2384   YY=            -13.5874   ZZ=            -13.6271
   XY=             -0.0000   XZ=             -0.0000   YZ=             -0.0000

 Normal termination of Gaussian 16 at Fri Sep 17 10:52:23 2021.
