 Gaussian 16, Revision C.01,
 Gaussian 16:  ES64L-G16RevC.01  3-Jul-2019

 ----------------------------------------
 #P wB97XD/6-311+G* NoSymm #P Field=X+252
 ----------------------------------------

 -------
 TitleMe
 -------
 Symbolic Z-matrix:
 Charge =  1 Multiplicity = 1

                          Input orientation:
 ---------------------------------------------------------------------
 Center     Atomic      Atomic             Coordinates (Angstroms)
 Number     Number       Type             X           Y           Z
 ---------------------------------------------------------------------
      1          6           0        0.519300    1.233000   -0.031900
      2          6           0        1.944500    1.269200   -0.036700
      3          6           0        2.620400    0.092800   -0.025000
      4          6           0       -0.196000    0.030100    0.001000
      5          1           0       -0.020700    2.174200   -0.043400
      6          1           0        2.482800    2.208900   -0.036100
      7          1           0       -1.277700    0.039900    0.011700
      8          7           0        4.092100    0.095900    0.036600
      9          8           0        4.639300   -1.021700    0.144600
     10          8           0        4.664900    1.198400   -0.023300
     11          6           0        0.494300   -1.167100    0.021000
     12          1           0       -0.032500   -2.114900    0.054500
     13          6           0        1.962900   -1.216500   -0.021100
     14          1           0        2.443600   -1.963100    0.615100
     15         35           0        2.173000   -1.949100   -1.906200
 ---------------------------------------------------------------------

 SCF Done:  E(RwB97XD) =  -3010.54007696     A.U. after   19 cycles

 Alpha  occ. eigenvalues -- -483.40135 -62.95170 -56.74845 -56.74301 -56.74292
 Alpha  occ. eigenvalues --  -19.61990 -19.61847 -15.00919 -10.68500 -10.67186
 Alpha  occ. eigenvalues --  -10.64497 -10.63612 -10.63505 -10.58636  -9.10986
 Alpha  occ. eigenvalues --   -6.93616  -6.91825  -6.91796  -3.03532  -3.03060
 Alpha  occ. eigenvalues --   -3.03035  -3.01602  -3.01601  -1.65521  -1.48635
 Alpha  occ. eigenvalues --   -1.31505  -1.22271  -1.21047  -1.13876  -1.10243
 Alpha  occ. eigenvalues --   -1.03459  -1.00646  -0.97368  -0.95367  -0.93926
 Alpha  occ. eigenvalues --   -0.89530  -0.87075  -0.85016  -0.84451  -0.80379
 Alpha  occ. eigenvalues --   -0.75107  -0.74756  -0.73290  -0.73068  -0.71960
 Alpha  occ. eigenvalues --   -0.71300  -0.68113  -0.65524  -0.63620
 Alpha virt. eigenvalues --   -0.39266  -0.32969  -0.24707  -0.22579  -0.22179
 Alpha virt. eigenvalues --   -0.19270  -0.17641  -0.16975  -0.15504  -0.12911
 Alpha virt. eigenvalues --   -0.12588  -0.11457  -0.11145  -0.09600  -0.08744

 Mulliken charges:
               1
     1  C   -0.147545
     2  C    0.160056
     3  C   -0.192941
     4  C   -0.286397
     5  H    0.407163
     6  H    0.321243
     7  H    0.439989
     8  N   -0.239025
     9  O   -0.011082
    10  O   -0.052993
    11  C   -0.139565
    12  H    0.417879
    13  C   -0.198813
    14  H    0.381778
    15  Br   0.140251
 Sum of Mulliken charges =   1.00000

 Dipole moment (field-independent basis, Debye):
    X=             -4.5102    Y=             -0.5682    Z=             -0.4276  Tot=              4.5659
 Quadrupole moment (field-independent basis, Debye-Ang):
   XX=            -97.6455   YY=            -51.7097   ZZ=            -62.9949
   XY=             -1.1301   XZ=             -0.6162   YZ=              1.6876

 Normal termination of Gaussian 16 at Thu May  2 14:18:02 2024.
