 Gaussian 16, Revision C.01,
 Gaussian 16:  ES64L-G16RevC.01  3-Jul-2019

 ---------------------------------------
 #P wB97XD/6-311+G* NoSymm #P Field=X-19
 ---------------------------------------

 -------
 TitleMe
 -------
 Symbolic Z-matrix:
 Charge =  1 Multiplicity = 1

                          Input orientation:
 ---------------------------------------------------------------------
 Center     Atomic      Atomic             Coordinates (Angstroms)
 Number     Number       Type             X           Y           Z
 ---------------------------------------------------------------------
      1          6           0        0.029500    1.339700    0.068200
      2          6           0        1.434800    1.286700    0.006400
      3          6           0        2.111800    0.051100   -0.005400
      4          6           0        1.445100   -1.137200    0.031200
      5          6           0       -0.687900    0.168200    0.110000
      6          1           0       -0.471300    2.298400    0.078100
      7          1           0        2.027300    2.196500   -0.032200
      8          1           0        1.989700   -2.076400    0.023200
      9          1           0       -1.771600    0.180400    0.158200
     10          7           0        3.586400    0.051000   -0.067500
     11          8           0        4.147100   -1.059700   -0.088100
     12          8           0        4.145000    1.163900   -0.090100
     13          6           0       -0.023600   -1.145800    0.083500
     14          1           0       -0.436700   -1.872500    0.788900
     15         35           0       -0.535900   -1.869700   -1.740800
 ---------------------------------------------------------------------

 SCF Done:  E(RwB97XD) =  -3010.53493537     A.U. after   19 cycles

 Alpha  occ. eigenvalues -- -483.30959 -62.85988 -56.65675 -56.65111 -56.65109
 Alpha  occ. eigenvalues --  -19.44687 -19.44616 -14.84215 -10.57945 -10.56973
 Alpha  occ. eigenvalues --  -10.56506 -10.56386 -10.56326 -10.52552  -9.01798
 Alpha  occ. eigenvalues --   -6.84459  -6.82612  -6.82598  -2.94367  -2.93876
 Alpha  occ. eigenvalues --   -2.93864  -2.92386  -2.92386  -1.48456  -1.31419
 Alpha  occ. eigenvalues --   -1.22111  -1.13514  -1.11240  -1.04018  -1.00294
 Alpha  occ. eigenvalues --   -0.94957  -0.90355  -0.84541  -0.80062  -0.79843
 Alpha  occ. eigenvalues --   -0.78934  -0.77764  -0.75442  -0.74935  -0.71795
 Alpha  occ. eigenvalues --   -0.68891  -0.67047  -0.63168  -0.59690  -0.56325
 Alpha  occ. eigenvalues --   -0.55785  -0.55001  -0.54764  -0.54375
 Alpha virt. eigenvalues --   -0.29163  -0.20401  -0.15243  -0.12701  -0.08608
 Alpha virt. eigenvalues --   -0.06014  -0.05422  -0.04477  -0.04291  -0.02705
 Alpha virt. eigenvalues --   -0.02081  -0.01909  -0.01252  -0.00783   0.00522

 Mulliken charges:
               1
     1  C   -0.572167
     2  C    0.509567
     3  C   -0.710410
     4  C    0.294880
     5  C   -0.001467
     6  H    0.329936
     7  H    0.369681
     8  H    0.376518
     9  H    0.342205
    10  N   -0.107921
    11  O    0.039625
    12  O    0.036515
    13  C   -0.472710
    14  H    0.400842
    15  Br   0.164906
 Sum of Mulliken charges =   1.00000

 Dipole moment (field-independent basis, Debye):
    X=             -0.2622    Y=             -0.5228    Z=              0.0261  Tot=              0.5854
 Quadrupole moment (field-independent basis, Debye-Ang):
   XX=            -69.9318   YY=            -52.0512   ZZ=            -62.7589
   XY=              1.2077   XZ=              0.9656   YZ=              1.5311

 Normal termination of Gaussian 16 at Wed May  1 14:46:25 2024.
