 Gaussian 16, Revision A.03,
 Gaussian 16:  ES64L-G16RevA.03 25-Dec-2016

 --------------------------------------------------------------------
 #p B3LYP/6-311+G** #p TD=(singlets,nstates=30)IOp(6/8=3) IOp(9/40=4)
 --------------------------------------------------------------------

 --------------------------------
 Scan Step 105, Bond Length 1.025
 --------------------------------
 Symbolic Z-matrix:
 Charge =  0 Multiplicity = 1

                         Standard orientation:
 ---------------------------------------------------------------------
 Center     Atomic      Atomic             Coordinates (Angstroms)
 Number     Number       Type             X           Y           Z
 ---------------------------------------------------------------------
      1          6           0        0.000000   -0.000000   -0.438581
      2          1           0        0.000000    0.937260   -1.029931
      3          1           0       -0.000000   -0.937260   -1.029931
      4          8           0        0.000000    0.000000    0.586419
 ---------------------------------------------------------------------

 SCF Done:  E(RB3LYP) =  -114.467847107     A.U. after    9 cycles

 Excitation energies and oscillator strengths:

 Excited State   1:      Singlet-A2     4.9768 eV  249.12 nm  f=0.0000  <S**2>=0.000
       3 -> 27         0.00296
       3 -> 37         0.00247
       3 -> 45         0.00180
       4 -> 27         0.00287
       4 -> 37        -0.00074
       4 -> 45        -0.00099
       5 ->  9         0.01754
       5 -> 13        -0.00812
       5 -> 17         0.00621
       5 -> 23        -0.00253
       5 -> 28         0.00369
       5 -> 31         0.00285
       5 -> 36         0.00402
       5 -> 44         0.00067
       5 -> 47         0.00011
       5 -> 52         0.00085
       6 -> 27         0.00057
       6 -> 37        -0.00058
       6 -> 45         0.00158
       7 -> 12        -0.00062
       7 -> 16         0.00178
       7 -> 18         0.00160
       7 -> 22         0.00157
       7 -> 24         0.00111
       7 -> 29        -0.00068
       7 -> 34         0.00035
       7 -> 35         0.00051
       7 -> 40        -0.00032
       7 -> 42        -0.00032
       7 -> 48         0.00062
       7 -> 51        -0.00018
       7 -> 53         0.00038
       8 ->  9         0.70061
       8 -> 13        -0.09046
       8 -> 17         0.02610
       8 -> 23        -0.01170
       8 -> 28         0.00676
       8 -> 31         0.00350
       8 -> 36        -0.00151
       8 -> 44        -0.00025
       8 -> 47        -0.00015
       8 -> 52         0.00130
       3 <- 27         0.00208
       3 <- 37         0.00210
       3 <- 45         0.00188
       4 <- 27         0.00361
       4 <- 37        -0.00023
       4 <- 45        -0.00090
       5 <-  9         0.00012
       5 <- 13        -0.00099
       5 <- 17        -0.00056
       5 <- 23         0.00048
       5 <- 28        -0.00037
       5 <- 31        -0.00111
       5 <- 36         0.00180
       5 <- 44         0.00040
       5 <- 47         0.00016
       5 <- 52         0.00022
       6 <- 27         0.00094
       6 <- 37        -0.00057
       6 <- 45         0.00123
       7 <- 12        -0.00097
       7 <- 16        -0.00477
       7 <- 18         0.00183
       7 <- 22         0.00626
       7 <- 24        -0.00097
       7 <- 29         0.00223
       7 <- 34        -0.00124
       7 <- 35         0.00247
       7 <- 40        -0.00060
       7 <- 42        -0.00087
       7 <- 48         0.00045
       7 <- 53         0.00102
       8 <-  9        -0.01573
       8 <- 13         0.00599
       8 <- 17        -0.00385
       8 <- 23         0.00069
       8 <- 28        -0.00049
       8 <- 31         0.00197
       8 <- 36        -0.00211
       8 <- 52         0.00039
 This state for optimization and/or second-order correction.
 Total Energy, E(TD-HF/TD-DFT) =  -114.284952295
 Copying the excited state density for this state as the 1-particle RhoCI density.

 Excited State   2:      Singlet-B2     6.4446 eV  192.39 nm  f=0.0615  <S**2>=0.000
       3 -> 12         0.00112
       3 -> 16         0.00046
       3 -> 18        -0.00112
       3 -> 22        -0.00019
       3 -> 24         0.00127
       3 -> 29        -0.00013
       3 -> 35        -0.00021
       3 -> 51        -0.00011
       4 -> 12        -0.00486
       4 -> 16         0.00056
       4 -> 18        -0.00236
       4 -> 22        -0.00319
       4 -> 24         0.00390
       4 -> 29        -0.00013
       4 -> 34        -0.00085
       4 -> 35         0.00086
       4 -> 40        -0.00038
       4 -> 42        -0.00032
       5 -> 10        -0.00158
       5 -> 11        -0.00884
       5 -> 14         0.00647
       5 -> 15        -0.00137
       5 -> 19         0.00323
       5 -> 20        -0.00026
       5 -> 21         0.00416
       5 -> 25         0.00051
       5 -> 26        -0.00201
       5 -> 30         0.00245
       5 -> 32        -0.00033
       5 -> 33        -0.00045
       5 -> 38        -0.00051
       5 -> 39        -0.00026
       5 -> 43        -0.00052
       5 -> 46        -0.00056
       5 -> 49         0.00024
       6 -> 12         0.00153
       6 -> 16         0.00037
       6 -> 18        -0.00404
       6 -> 22        -0.00267
       6 -> 24         0.00187
       6 -> 29        -0.00022
       6 -> 34        -0.00011
       6 -> 42         0.00037
       6 -> 48         0.00036
       6 -> 51         0.00051
       7 -> 27         0.00060
       7 -> 37        -0.00016
       7 -> 45         0.00075
       8 -> 10         0.70545
       8 -> 11        -0.04116
       8 -> 14        -0.00328
       8 -> 15        -0.01027
       8 -> 19         0.01823
       8 -> 20         0.00996
       8 -> 21        -0.00570
       8 -> 25         0.00083
       8 -> 26        -0.00109
       8 -> 30         0.00044
       8 -> 32         0.00168
       8 -> 33         0.00200
       8 -> 38         0.00059
       8 -> 39         0.00056
       8 -> 41        -0.00017
       8 -> 43         0.00069
       8 -> 46        -0.00091
       8 -> 49         0.00011
       8 -> 54         0.00017
       3 <- 12         0.00033
       3 <- 16         0.00043
       3 <- 18        -0.00052
       3 <- 22        -0.00028
       3 <- 24         0.00085
       3 <- 29        -0.00012
       3 <- 35        -0.00021
       4 <- 12         0.00044
       4 <- 16         0.00107
       4 <- 18        -0.00265
       4 <- 22        -0.00194
       4 <- 24         0.00282
       4 <- 34        -0.00060
       4 <- 35         0.00059
       4 <- 40        -0.00028
       5 <- 10         0.00240
       5 <- 11        -0.00013
       5 <- 14         0.00481
       5 <- 15        -0.00132
       5 <- 19         0.00079
       5 <- 20         0.00016
       5 <- 21         0.00219
       5 <- 25         0.00167
       5 <- 26        -0.00142
       5 <- 30         0.00080
       5 <- 32        -0.00056
       5 <- 33        -0.00047
       5 <- 38        -0.00042
       5 <- 39        -0.00017
       5 <- 41         0.00018
       5 <- 43        -0.00036
       5 <- 46        -0.00048
       5 <- 49         0.00022
       6 <- 12         0.00044
       6 <- 16        -0.00050
       6 <- 18        -0.00180
       6 <- 22        -0.00099
       6 <- 24         0.00076
       6 <- 29         0.00046
       6 <- 34        -0.00018
       6 <- 35         0.00021
       6 <- 42         0.00035
       6 <- 48         0.00031
       6 <- 51         0.00053
       7 <- 27         0.00046
       7 <- 37        -0.00012
       7 <- 45         0.00064
       8 <- 10        -0.00308
       8 <- 11        -0.00099
       8 <- 14        -0.00937
       8 <- 15         0.00050
       8 <- 19        -0.00060
       8 <- 20        -0.00037
       8 <- 21        -0.00338
       8 <- 25        -0.00292
       8 <- 26        -0.00028
       8 <- 30        -0.00066
       8 <- 32         0.00048
       8 <- 33         0.00163
       8 <- 38         0.00061
       8 <- 39         0.00045
       8 <- 43         0.00054
       8 <- 46        -0.00062
       8 <- 49         0.00015
       8 <- 50         0.00012

 Excited State   3:      Singlet-B2     7.2354 eV  171.36 nm  f=0.0206  <S**2>=0.000
       3 -> 12        -0.00018
       3 -> 16        -0.00066
       3 -> 18        -0.00044
       3 -> 22         0.00022
       3 -> 24         0.00035
       3 -> 29         0.00138
       3 -> 34         0.00014
       3 -> 35        -0.00033
       3 -> 40         0.00014
       3 -> 42         0.00031
       3 -> 48         0.00024
       3 -> 51         0.00026
       4 -> 12         0.00313
       4 -> 16        -0.00164
       4 -> 18        -0.00336
       4 -> 22        -0.00156
       4 -> 24         0.00340
       4 -> 29        -0.00106
       4 -> 34         0.00055
       4 -> 35        -0.00035
       4 -> 40        -0.00015
       4 -> 42         0.00015
       4 -> 48         0.00017
       4 -> 51         0.00016
       5 -> 10        -0.00706
       5 -> 11         0.00033
       5 -> 14         0.00501
       5 -> 15        -0.00615
       5 -> 19        -0.00387
       5 -> 20        -0.00229
       5 -> 21         0.00107
       5 -> 25         0.00133
       5 -> 26         0.00098
       5 -> 30         0.00115
       5 -> 32        -0.00159
       5 -> 33        -0.00100
       5 -> 39         0.00052
       5 -> 41        -0.00086
       5 -> 46         0.00072
       5 -> 49        -0.00039
       5 -> 50        -0.00030
       6 -> 12        -0.00320
       6 -> 16        -0.00163
       6 -> 18         0.00180
       6 -> 22         0.00147
       6 -> 29         0.00038
       6 -> 34        -0.00038
       6 -> 35         0.00140
       6 -> 40        -0.00060
       6 -> 42        -0.00065
       6 -> 48        -0.00073
       6 -> 51        -0.00068
       6 -> 53         0.00013
       7 -> 27        -0.00058
       7 -> 37        -0.00122
       7 -> 45        -0.00134
       8 -> 10         0.04179
       8 -> 11         0.70491
       8 -> 14        -0.01312
       8 -> 15         0.01866
       8 -> 19        -0.02261
       8 -> 20         0.01303
       8 -> 21        -0.00206
       8 -> 25         0.00039
       8 -> 26         0.00107
       8 -> 30        -0.00124
       8 -> 32        -0.00016
       8 -> 33         0.00038
       8 -> 39         0.00014
       8 -> 41        -0.00142
       8 -> 46         0.00105
       8 -> 49        -0.00073
       8 -> 50        -0.00041
       8 -> 54        -0.00017
       3 <- 12         0.00030
       3 <- 16        -0.00035
       3 <- 18        -0.00068
       3 <- 24         0.00043
       3 <- 29         0.00086
       3 <- 34         0.00020
       3 <- 35        -0.00038
       3 <- 40         0.00013
       3 <- 42         0.00027
       3 <- 48         0.00019
       3 <- 51         0.00016
       3 <- 53        -0.00022
       4 <- 12         0.00035
       4 <- 16         0.00029
       4 <- 18        -0.00108
       4 <- 22        -0.00123
       4 <- 24         0.00144
       4 <- 29        -0.00044
       4 <- 34         0.00051
       4 <- 40        -0.00012
       4 <- 42         0.00019
       4 <- 48         0.00011
       4 <- 51         0.00022
       5 <- 10         0.00133
       5 <- 11        -0.00067
       5 <- 14         0.00211
       5 <- 15        -0.00047
       5 <- 19         0.00071
       5 <- 21         0.00094
       5 <- 25         0.00105
       5 <- 26         0.00073
       5 <- 30         0.00076
       5 <- 33        -0.00127
       5 <- 38         0.00016
       5 <- 39         0.00029
       5 <- 41        -0.00088
       5 <- 46         0.00068
       5 <- 49        -0.00025
       5 <- 50        -0.00029
       6 <- 12        -0.00036
       6 <- 18         0.00027
       6 <- 22         0.00040
       6 <- 34        -0.00018
       6 <- 35         0.00103
       6 <- 40        -0.00044
       6 <- 42        -0.00045
       6 <- 48        -0.00062
       6 <- 51        -0.00059
       7 <- 27        -0.00017
       7 <- 37        -0.00098
       7 <- 45        -0.00114
       8 <- 10        -0.00101
       8 <- 11         0.00063
       8 <- 14        -0.00480
       8 <- 15         0.00076
       8 <- 19         0.00266
       8 <- 20        -0.00152
       8 <- 21        -0.00223
       8 <- 26         0.00138
       8 <- 30        -0.00072
       8 <- 32         0.00122
       8 <- 38        -0.00021
       8 <- 39        -0.00010
       8 <- 41        -0.00120
       8 <- 46         0.00086
       8 <- 49        -0.00046
       8 <- 50        -0.00035

 Excited State   4:      Singlet-A1     7.3781 eV  168.04 nm  f=0.0530  <S**2>=0.000
       3 -> 10         0.00154
       3 -> 11        -0.00100
       3 -> 14         0.00041
       3 -> 15        -0.00043
       3 -> 19         0.00106
       3 -> 20         0.00086
       3 -> 21         0.00015
       3 -> 26        -0.00053
       3 -> 30         0.00121
       3 -> 32        -0.00033
       3 -> 33        -0.00025
       3 -> 38        -0.00033
       3 -> 39         0.00016
       3 -> 41        -0.00020
       3 -> 49        -0.00010
       3 -> 50        -0.00036
       3 -> 54        -0.00021
       4 -> 10         0.00546
       4 -> 11         0.00861
       4 -> 14         0.00596
       4 -> 15        -0.00050
       4 -> 19         0.00058
       4 -> 20         0.00584
       4 -> 21         0.00248
       4 -> 25         0.00710
       4 -> 26        -0.00086
       4 -> 30        -0.00054
       4 -> 32        -0.00013
       4 -> 33        -0.00085
       4 -> 39        -0.00042
       4 -> 41         0.00021
       4 -> 43         0.00013
       4 -> 46        -0.00027
       4 -> 49        -0.00022
       5 -> 12         0.00772
       5 -> 16        -0.00188
       5 -> 18        -0.01144
       5 -> 22        -0.00069
       5 -> 24         0.00489
       5 -> 29         0.00029
       5 -> 34        -0.00016
       5 -> 35         0.00086
       5 -> 42         0.00015
       5 -> 51        -0.00035
       5 -> 53        -0.00015
       6 -> 10         0.01338
       6 -> 11        -0.00440
       6 -> 14         0.00397
       6 -> 15         0.00150
       6 -> 19         0.00562
       6 -> 20         0.00427
       6 -> 21         0.00177
       6 -> 25         0.00234
       6 -> 26        -0.00058
       6 -> 30        -0.00067
       6 -> 32         0.00056
       6 -> 33        -0.00070
       6 -> 39        -0.00011
       6 -> 43         0.00011
       6 -> 49        -0.00022
       6 -> 50         0.00055
       7 ->  9         0.01070
       7 -> 13         0.00657
       7 -> 17         0.00477
       7 -> 23         0.00490
       7 -> 28         0.00014
       7 -> 31         0.00085
       7 -> 36         0.00054
       7 -> 44         0.00063
       7 -> 47        -0.00036
       8 -> 12         0.70566
       8 -> 16        -0.02702
       8 -> 18        -0.02455
       8 -> 22         0.00512
       8 -> 24         0.00188
       8 -> 29         0.00195
       8 -> 34         0.00151
       8 -> 35        -0.00223
       8 -> 40        -0.00036
       8 -> 42        -0.00101
       8 -> 48        -0.00036
       8 -> 51        -0.00026
       8 -> 53        -0.00018
       3 <- 10         0.00058
       3 <- 11        -0.00026
       3 <- 14         0.00026
       3 <- 15        -0.00014
       3 <- 19         0.00050
       3 <- 20         0.00039
       3 <- 21         0.00020
       3 <- 25         0.00017
       3 <- 26        -0.00027
       3 <- 30         0.00074
       3 <- 32        -0.00027
       3 <- 33        -0.00012
       3 <- 38        -0.00026
       3 <- 39         0.00014
       3 <- 41        -0.00017
       3 <- 46         0.00014
       3 <- 49        -0.00012
       3 <- 50        -0.00031
       3 <- 54        -0.00019
       4 <- 10         0.00515
       4 <- 11         0.00255
       4 <- 14         0.00437
       4 <- 15        -0.00086
       4 <- 19         0.00044
       4 <- 20         0.00330
       4 <- 21         0.00101
       4 <- 25         0.00408
       4 <- 26        -0.00047
       4 <- 32        -0.00041
       4 <- 33        -0.00100
       4 <- 38        -0.00014
       4 <- 39        -0.00042
       4 <- 46        -0.00025
       4 <- 49        -0.00019
       5 <- 12         0.00276
       5 <- 16         0.00077
       5 <- 18        -0.00440
       5 <- 24         0.00265
       5 <- 34        -0.00033
       5 <- 35         0.00078
       5 <- 42         0.00013
       5 <- 51        -0.00025
       5 <- 53        -0.00014
       6 <- 10         0.00396
       6 <- 11        -0.00069
       6 <- 14         0.00174
       6 <- 15         0.00050
       6 <- 19         0.00211
       6 <- 20         0.00223
       6 <- 21         0.00069
       6 <- 25         0.00128
       6 <- 26        -0.00058
       6 <- 30        -0.00031
       6 <- 32         0.00031
       6 <- 33        -0.00057
       6 <- 39        -0.00019
       6 <- 41         0.00014
       6 <- 49        -0.00010
       6 <- 50         0.00051
       7 <-  9         0.00224
       7 <- 13         0.00204
       7 <- 17         0.00176
       7 <- 23         0.00267
       7 <- 31         0.00062
       7 <- 36         0.00044
       7 <- 44         0.00052
       7 <- 47        -0.00031
       8 <- 12        -0.00218
       8 <- 16        -0.00825
       8 <- 18         0.00447
       8 <- 22         0.00053
       8 <- 24        -0.00235
       8 <- 29         0.00055
       8 <- 34         0.00091
       8 <- 35        -0.00135
       8 <- 40        -0.00034
       8 <- 42        -0.00084
       8 <- 48        -0.00043
       8 <- 51        -0.00022
       8 <- 53        -0.00019

 Excited State   5:      Singlet-A2     7.9064 eV  156.82 nm  f=0.0000  <S**2>=0.000
       3 -> 27        -0.00089
       3 -> 37        -0.00079
       3 -> 45        -0.00045
       4 -> 37         0.00060
       4 -> 45         0.00014
       5 ->  9        -0.00981
       5 -> 13         0.00127
       5 -> 17         0.00508
       5 -> 23        -0.00074
       5 -> 31        -0.00194
       5 -> 36        -0.00153
       5 -> 44        -0.00026
       5 -> 52        -0.00020
       6 -> 27         0.00015
       6 -> 37         0.00028
       6 -> 45        -0.00047
       7 -> 12        -0.00049
       7 -> 16        -0.00187
       7 -> 18        -0.00156
       7 -> 22        -0.00081
       7 -> 24        -0.00023
       7 -> 29         0.00020
       7 -> 35        -0.00022
       7 -> 40         0.00012
       7 -> 42         0.00015
       7 -> 48        -0.00017
       7 -> 53        -0.00011
       8 ->  9         0.09062
       8 -> 13         0.70084
       8 -> 17         0.00965
       8 -> 23         0.02005
       8 -> 28        -0.00044
       8 -> 31        -0.00125
       8 -> 36         0.00011
       8 -> 47         0.00018
       8 -> 52        -0.00026
       3 <- 27        -0.00042
       3 <- 37        -0.00060
       3 <- 45        -0.00054
       4 <- 27        -0.00047
       4 <- 45         0.00014
       5 <-  9        -0.00025
       5 <- 13        -0.00019
       5 <- 17         0.00063
       5 <- 36        -0.00039
       6 <- 27        -0.00014
       6 <- 37         0.00023
       6 <- 45        -0.00017
       7 <- 12        -0.00064
       7 <- 16        -0.00065
       7 <- 18        -0.00061
       7 <- 22        -0.00159
       7 <- 24        -0.00022
       7 <- 29         0.00014
       7 <- 34         0.00052
       7 <- 35        -0.00090
       7 <- 40         0.00025
       7 <- 42         0.00045
       7 <- 53        -0.00021
       8 <-  9         0.00406
       8 <- 13         0.00118
       8 <- 17         0.00028
       8 <- 23        -0.00034
       8 <- 28         0.00012
       8 <- 31        -0.00030
       8 <- 36         0.00039
       8 <- 52        -0.00011

 Excited State   6:      Singlet-B2    10.2181 eV  121.34 nm  f=0.2247  <S**2>=0.000

 The electronic state is 1-A1.
 Alpha  occ. eigenvalues --  -19.14053 -10.24979  -1.18408  -0.61716  -0.54978
 Alpha  occ. eigenvalues --   -0.49305  -0.48445  -0.26340
 Alpha virt. eigenvalues --   -0.01531   0.01247   0.04234   0.04367   0.07224
 Alpha virt. eigenvalues --    0.13722   0.18090   0.19870   0.22000   0.22579
 Alpha virt. eigenvalues --    0.26978   0.35588   0.49050   0.50337   0.51421

 Mulliken charges:
               1
     1  C    0.095230
     2  H    0.055623
     3  H    0.055623
     4  O   -0.206477
 Sum of Mulliken charges =  -0.00000

 Dipole moment (field-independent basis, Debye):
    X=              0.0000    Y=              0.0000    Z=             -1.4900  Tot=              1.4900
 Quadrupole moment (field-independent basis, Debye-Ang):
   XX=            -11.1989   YY=            -11.9420   ZZ=            -12.8921
   XY=              0.0000   XZ=              0.0000   YZ=             -0.0000

 Normal termination of Gaussian 16 at Fri Sep 17 10:52:36 2021.
