 Gaussian 16, Revision C.01,
 Gaussian 16:  ES64L-G16RevC.01  3-Jul-2019

 ----------------------------------------
 #P wB97XD/6-311+G* NoSymm #P Field=Z-175
 ----------------------------------------

 -------
 TitleMe
 -------
 Symbolic Z-matrix:
 Charge =  1 Multiplicity = 1

                          Input orientation:
 ---------------------------------------------------------------------
 Center     Atomic      Atomic             Coordinates (Angstroms)
 Number     Number       Type             X           Y           Z
 ---------------------------------------------------------------------
      1          6           0        0.519300    1.233000   -0.031900
      2          6           0        1.944500    1.269200   -0.036700
      3          6           0        2.620400    0.092800   -0.025000
      4          6           0       -0.196000    0.030100    0.001000
      5          1           0       -0.020700    2.174200   -0.043400
      6          1           0        2.482800    2.208900   -0.036100
      7          1           0       -1.277700    0.039900    0.011700
      8          7           0        4.092100    0.095900    0.036600
      9          8           0        4.639300   -1.021700    0.144600
     10          8           0        4.664900    1.198400   -0.023300
     11          6           0        0.494300   -1.167100    0.021000
     12          1           0       -0.032500   -2.114900    0.054500
     13          6           0        1.962900   -1.216500   -0.021100
     14          1           0        2.443600   -1.963100    0.615100
     15         35           0        2.173000   -1.949100   -1.906200
 ---------------------------------------------------------------------

 SCF Done:  E(RwB97XD) =  -3010.53753785     A.U. after   19 cycles

 Alpha  occ. eigenvalues -- -483.34145 -62.89205 -56.68848 -56.68347 -56.68342
 Alpha  occ. eigenvalues --  -19.46709 -19.46655 -14.86150 -10.60220 -10.59716
 Alpha  occ. eigenvalues --  -10.58345 -10.58183 -10.54367 -10.53678  -9.05037
 Alpha  occ. eigenvalues --   -6.87579  -6.85919  -6.85905  -2.97515  -2.97072
 Alpha  occ. eigenvalues --   -2.97060  -2.95730  -2.95730  -1.50372  -1.33319
 Alpha  occ. eigenvalues --   -1.23638  -1.14451  -1.13490  -1.06873  -1.01436
 Alpha  occ. eigenvalues --   -0.96460  -0.91550  -0.85642  -0.81685  -0.81004
 Alpha  occ. eigenvalues --   -0.80693  -0.78816  -0.76827  -0.76525  -0.73583
 Alpha  occ. eigenvalues --   -0.69577  -0.68589  -0.64986  -0.61938  -0.59760
 Alpha  occ. eigenvalues --   -0.57943  -0.57583  -0.56440  -0.56114
 Alpha virt. eigenvalues --   -0.31547  -0.21176  -0.18425  -0.15080  -0.13970
 Alpha virt. eigenvalues --   -0.11503  -0.10107  -0.08391  -0.07246  -0.06236
 Alpha virt. eigenvalues --   -0.05012  -0.04429  -0.02613  -0.01884  -0.01545

 Mulliken charges:
               1
     1  C   -0.064659
     2  C    0.109086
     3  C   -0.096020
     4  C   -0.354137
     5  H    0.350860
     6  H    0.355957
     7  H    0.338412
     8  N   -0.207177
     9  O    0.091268
    10  O    0.074376
    11  C   -0.151121
    12  H    0.364282
    13  C   -0.287895
    14  H    0.467494
    15  Br   0.009275
 Sum of Mulliken charges =   1.00000

 Dipole moment (field-independent basis, Debye):
    X=              2.5488    Y=             -0.2218    Z=              2.3905  Tot=              3.5014
 Quadrupole moment (field-independent basis, Debye-Ang):
   XX=            -67.7905   YY=            -52.2657   ZZ=            -66.4797
   XY=             -1.6128   XZ=              3.9112   YZ=             -0.6179

 Normal termination of Gaussian 16 at Thu May  2 14:18:37 2024.
