 Gaussian 16, Revision A.03,
 Gaussian 16:  ES64L-G16RevA.03 25-Dec-2016

 --------------------------------------------------------------------
 #p B3LYP/6-311+G** #p TD=(singlets,nstates=30)IOp(6/8=3) IOp(9/40=4)
 --------------------------------------------------------------------

 --------------------------------
 Scan Step 279, Bond Length 1.895
 --------------------------------
 Symbolic Z-matrix:
 Charge =  0 Multiplicity = 1

                         Standard orientation:
 ---------------------------------------------------------------------
 Center     Atomic      Atomic             Coordinates (Angstroms)
 Number     Number       Type             X           Y           Z
 ---------------------------------------------------------------------
      1          6           0        0.000000   -0.000000   -0.873581
      2          1           0        0.000000    0.937260   -1.464931
      3          1           0       -0.000000   -0.937260   -1.464931
      4          8           0        0.000000    0.000000    1.021419
 ---------------------------------------------------------------------

 SCF Done:  E(RB3LYP) =  -114.326439756     A.U. after   12 cycles

 Excitation energies and oscillator strengths:

 Excited State   1:      Singlet-A2     1.1563 eV 1072.27 nm  f=0.0000  <S**2>=0.000
       3 -> 27         0.00063
       3 -> 38         0.00038
       3 -> 47         0.00331
       4 -> 27         0.00033
       4 -> 47        -0.00087
       5 ->  9         0.00075
       5 -> 13         0.00107
       5 -> 18         0.00147
       5 -> 23         0.00127
       5 -> 28         0.00110
       5 -> 37         0.00064
       5 -> 44         0.00018
       5 -> 52         0.00015
       6 -> 27        -0.00054
       6 -> 38        -0.00051
       6 -> 47         0.00085
       7 -> 12        -0.00137
       7 -> 16         0.00537
       7 -> 19        -0.00484
       7 -> 22        -0.00114
       7 -> 25        -0.00049
       7 -> 29        -0.00199
       7 -> 33         0.00026
       7 -> 49         0.00013
       7 -> 53         0.00036
       8 ->  9         0.71153
       8 -> 13        -0.00573
       8 -> 18         0.02052
       8 -> 23        -0.00057
       8 -> 28         0.01000
       8 -> 31         0.00161
       8 -> 37         0.00046
       8 -> 46        -0.00028
       8 -> 52         0.00182
       3 <- 27         0.00014
       3 <- 38         0.00017
       3 <- 47         0.00333
       4 <- 27         0.00062
       4 <- 38         0.00017
       4 <- 47        -0.00066
       5 <-  9         0.00050
       5 <- 13        -0.00030
       5 <- 18        -0.00032
       5 <- 23         0.00014
       5 <- 28        -0.00025
       5 <- 31         0.00020
       5 <- 37         0.00037
       6 <- 38        -0.00038
       6 <- 47         0.00061
       7 <- 12         0.00207
       7 <- 16        -0.01052
       7 <- 19         0.00597
       7 <- 22         0.00536
       7 <- 25        -0.00064
       7 <- 29         0.00565
       7 <- 33        -0.00034
       7 <- 49        -0.00047
       7 <- 53         0.00144
       8 <-  9        -0.08132
       8 <- 13        -0.00061
       8 <- 18        -0.00792
       8 <- 23        -0.00042
       8 <- 28        -0.00280
       8 <- 31        -0.00084
       8 <- 37        -0.00017
       8 <- 46         0.00013
       8 <- 52         0.00042
 This state for optimization and/or second-order correction.
 Total Energy, E(TD-HF/TD-DFT) =  -114.283947186
 Copying the excited state density for this state as the 1-particle RhoCI density.

 Excited State   2:      Singlet-A1     3.0360 eV  408.38 nm  f=0.0244  <S**2>=0.000
       3 -> 10        -0.01283
       3 -> 11        -0.00235
       3 -> 14         0.00050
       3 -> 15         0.00016
       3 -> 17        -0.00293
       3 -> 20        -0.00329
       3 -> 21         0.00061
       3 -> 24         0.00023
       3 -> 26         0.00091
       3 -> 30        -0.00011
       3 -> 32         0.00267
       3 -> 34         0.00097
       3 -> 36        -0.00091
       3 -> 39        -0.00033
       3 -> 43         0.00047
       3 -> 45        -0.00117
       3 -> 48         0.00231
       3 -> 50         0.00163
       3 -> 54        -0.00012
       4 -> 10        -0.00055
       4 -> 11         0.00947
       4 -> 14         0.00147
       4 -> 15        -0.00719
       4 -> 17         0.00201
       4 -> 20         0.00166
       4 -> 21         0.00022
       4 -> 24        -0.00362
       4 -> 26         0.00288
       4 -> 30         0.00013
       4 -> 32        -0.00110
       4 -> 34        -0.00068
       4 -> 39        -0.00026
       4 -> 43        -0.00042
       4 -> 45         0.00075
       4 -> 48        -0.00069
       4 -> 50        -0.00024
       4 -> 54         0.00014
       5 -> 12         0.00837
       5 -> 16         0.00164
       5 -> 19         0.00103
       5 -> 22         0.00640
       5 -> 25        -0.00392
       5 -> 29         0.00033
       5 -> 33        -0.00228
       5 -> 35         0.00270
       5 -> 40        -0.00090
       5 -> 42        -0.00099
       5 -> 51        -0.00089
       6 -> 10         0.26007
       6 -> 11         0.03087
       6 -> 14        -0.03383
       6 -> 15        -0.01962
       6 -> 17        -0.01476
       6 -> 20        -0.00053
       6 -> 21         0.00426
       6 -> 24        -0.00692
       6 -> 26        -0.00258
       6 -> 30        -0.00272
       6 -> 32         0.00464
       6 -> 34         0.00137
       6 -> 36         0.00067
       6 -> 39        -0.00147
       6 -> 43         0.00078
       6 -> 45        -0.00094
       6 -> 48         0.00072
       6 -> 50         0.00048
       6 -> 54        -0.00098
       7 ->  9         0.67401
       7 -> 13        -0.00774
       7 -> 18        -0.00897
       7 -> 23        -0.00294
       7 -> 28         0.00159
       7 -> 31        -0.00329
       7 -> 37         0.00135
       7 -> 44        -0.00095
       7 -> 52         0.00105
       8 -> 12        -0.00715
       8 -> 16         0.03156
       8 -> 19        -0.01719
       8 -> 22        -0.01042
       8 -> 29        -0.00722
       8 -> 33         0.00082
       8 -> 35        -0.00050
       8 -> 40         0.00016
       8 -> 42         0.00019
       8 -> 51         0.00013
       8 -> 53        -0.00048
       3 <- 10        -0.01046
       3 <- 11        -0.00225
       3 <- 14         0.00040
       3 <- 15        -0.00028
       3 <- 17        -0.00172
       3 <- 20        -0.00295
       3 <- 21         0.00018
       3 <- 24        -0.00022
       3 <- 30         0.00023
       3 <- 32         0.00227
       3 <- 34         0.00049
       3 <- 36        -0.00096
       3 <- 39        -0.00027
       3 <- 43         0.00051
       3 <- 45        -0.00127
       3 <- 48         0.00231
       3 <- 50         0.00164
       4 <- 10         0.00077
       4 <- 11         0.00720
       4 <- 14         0.00128
       4 <- 15        -0.00511
       4 <- 17         0.00126
       4 <- 20         0.00224
       4 <- 24        -0.00284
       4 <- 26         0.00262
       4 <- 30        -0.00039
       4 <- 32        -0.00108
       4 <- 34        -0.00058
       4 <- 36         0.00029
       4 <- 39        -0.00030
       4 <- 43        -0.00038
       4 <- 45         0.00067
       4 <- 48        -0.00042
       4 <- 50        -0.00012
       4 <- 54         0.00011
       5 <- 12         0.00533
       5 <- 16         0.00117
       5 <- 19         0.00086
       5 <- 22         0.00476
       5 <- 25        -0.00315
       5 <- 29         0.00034
       5 <- 33        -0.00194
       5 <- 35         0.00237
       5 <- 40        -0.00083
       5 <- 42        -0.00089
       5 <- 51        -0.00084
       6 <- 10         0.09093
       6 <- 11         0.01367
       6 <- 14        -0.01730
       6 <- 15        -0.01104
       6 <- 17        -0.00933
       6 <- 20        -0.00166
       6 <- 21         0.00313
       6 <- 24        -0.00467
       6 <- 26        -0.00120
       6 <- 30        -0.00152
       6 <- 32         0.00436
       6 <- 34         0.00152
       6 <- 36         0.00018
       6 <- 39        -0.00132
       6 <- 43         0.00066
       6 <- 45        -0.00068
       6 <- 48         0.00040
       6 <- 50         0.00034
       6 <- 54        -0.00091
       7 <-  9        -0.13025
       7 <- 13         0.00256
       7 <- 18        -0.01067
       7 <- 23         0.00030
       7 <- 28        -0.00131
       7 <- 31        -0.00158
       7 <- 37         0.00065
       7 <- 44        -0.00083
       7 <- 46        -0.00045
       7 <- 52         0.00098
       8 <- 12        -0.00326
       8 <- 16         0.01698
       8 <- 19        -0.01054
       8 <- 22        -0.00720
       8 <- 25         0.00013
       8 <- 29        -0.00592
       8 <- 33         0.00066
       8 <- 35        -0.00039
       8 <- 40         0.00013
       8 <- 42         0.00014
       8 <- 49        -0.00012
       8 <- 51         0.00011
       8 <- 53        -0.00045

 Excited State   3:      Singlet-B2     3.1856 eV  389.20 nm  f=0.0017  <S**2>=0.000
       3 -> 12        -0.00111
       3 -> 16         0.00105
       3 -> 19        -0.00363
       3 -> 22         0.00111
       3 -> 25        -0.00088
       3 -> 29        -0.00237
       3 -> 33         0.00030
       3 -> 35         0.00120
       3 -> 40        -0.00116
       3 -> 42        -0.00041
       3 -> 49        -0.00398
       3 -> 51         0.00015
       3 -> 53         0.00025
       4 -> 12         0.00035
       4 -> 16        -0.00128
       4 -> 19         0.00032
       4 -> 22         0.00158
       4 -> 25         0.00051
       4 -> 29         0.00077
       4 -> 33        -0.00030
       4 -> 35         0.00041
       4 -> 40         0.00023
       4 -> 42         0.00010
       4 -> 49         0.00073
       5 -> 10         0.00940
       5 -> 11         0.00101
       5 -> 14        -0.00266
       5 -> 15         0.00278
       5 -> 17        -0.00053
       5 -> 20         0.00188
       5 -> 21         0.00264
       5 -> 24         0.00132
       5 -> 26        -0.00036
       5 -> 30        -0.00210
       5 -> 32        -0.00090
       5 -> 34        -0.00017
       5 -> 39         0.00058
       5 -> 41         0.00037
       5 -> 48        -0.00033
       5 -> 50         0.00022
       5 -> 54        -0.00017
       6 -> 12         0.00240
       6 -> 16        -0.00284
       6 -> 19         0.00425
       6 -> 22        -0.00067
       6 -> 25         0.00115
       6 -> 29         0.00031
       6 -> 33        -0.00018
       6 -> 35        -0.00110
       6 -> 40         0.00069
       6 -> 42         0.00059
       6 -> 49         0.00108
       6 -> 53        -0.00045
       7 -> 27        -0.00048
       7 -> 38         0.00028
       7 -> 47         0.00283
       8 -> 10         0.70514
       8 -> 11         0.04873
       8 -> 14        -0.04634
       8 -> 15        -0.01943
       8 -> 17        -0.01646
       8 -> 20         0.00601
       8 -> 21         0.00529
       8 -> 24        -0.00535
       8 -> 26        -0.00402
       8 -> 30        -0.01345
       8 -> 32         0.00038
       8 -> 34        -0.00102
       8 -> 36         0.00166
       8 -> 39         0.00037
       8 -> 41        -0.00017
       8 -> 45        -0.00077
       8 -> 48        -0.00348
       8 -> 50         0.00124
       8 -> 54        -0.00248
       3 <- 12        -0.00039
       3 <- 16         0.00038
       3 <- 19        -0.00182
       3 <- 22         0.00090
       3 <- 25        -0.00079
       3 <- 29        -0.00097
       3 <- 33         0.00029
       3 <- 35         0.00077
       3 <- 40        -0.00100
       3 <- 42        -0.00025
       3 <- 49        -0.00403
       3 <- 51         0.00015
       3 <- 53         0.00068
       4 <- 12         0.00012
       4 <- 16        -0.00158
       4 <- 19         0.00019
       4 <- 22         0.00195
       4 <- 25         0.00026
       4 <- 29         0.00104
       4 <- 33        -0.00031
       4 <- 35         0.00058
       4 <- 49         0.00051
       5 <- 10        -0.00095
       5 <- 11        -0.00053
       5 <- 14        -0.00040
       5 <- 15         0.00224
       5 <- 17         0.00019
       5 <- 20         0.00077
       5 <- 21         0.00151
       5 <- 24         0.00147
       5 <- 30        -0.00046
       5 <- 32        -0.00024
       5 <- 39         0.00028
       5 <- 41         0.00039
       5 <- 45        -0.00019
       5 <- 48        -0.00034
       5 <- 50         0.00011
       6 <- 12        -0.00096
       6 <- 16         0.00807
       6 <- 19        -0.00453
       6 <- 22        -0.00520
       6 <- 25         0.00132
       6 <- 29        -0.00620
       6 <- 33         0.00017
       6 <- 35        -0.00090
       6 <- 40         0.00068
       6 <- 42         0.00058
       6 <- 49         0.00160
       6 <- 53        -0.00144
       7 <- 27        -0.00049
       7 <- 38         0.00023
       7 <- 47         0.00246
       8 <- 10        -0.05053
       8 <- 11        -0.00709
       8 <- 14         0.00707
       8 <- 15         0.00220
       8 <- 17         0.00239
       8 <- 20        -0.00345
       8 <- 21        -0.00113
       8 <- 24         0.00145
       8 <- 26         0.00103
       8 <- 30         0.00241
       8 <- 32         0.00242
       8 <- 34         0.00078
       8 <- 36        -0.00087
       8 <- 39        -0.00092
       8 <- 41         0.00017
       8 <- 43         0.00034
       8 <- 45        -0.00147
       8 <- 48        -0.00291
       8 <- 50         0.00111
       8 <- 54        -0.00066

 Excited State   4:      Singlet-B1     3.4348 eV  360.96 nm  f=0.0000  <S**2>=0.000
       3 ->  9        -0.02057
       3 -> 13         0.00067
       3 -> 18        -0.00361
       3 -> 23         0.00115
       3 -> 28        -0.00128
       3 -> 31        -0.00101
       3 -> 37         0.00018
       3 -> 44         0.00029
       3 -> 46        -0.00064
       3 -> 52         0.00058
       4 ->  9         0.00020
       4 -> 13        -0.00030
       4 -> 18         0.00023
       4 -> 23        -0.00034
       4 -> 28         0.00066
       4 -> 31        -0.00097
       4 -> 37        -0.00013
       4 -> 46        -0.00014
       4 -> 52        -0.00020
       5 -> 27        -0.00135
       5 -> 38         0.00063
       5 -> 47         0.00037
       6 ->  9         0.55996
       6 -> 13        -0.01446
       6 -> 18         0.01271
       6 -> 23        -0.00882
       6 -> 28         0.00378
       6 -> 31         0.00108
       6 -> 37        -0.00072
       6 -> 44        -0.00124
       6 -> 46         0.00274
       6 -> 52         0.00059
       7 -> 10         0.43629
       7 -> 11         0.03195
       7 -> 14        -0.03155
       7 -> 15        -0.01367
       7 -> 17        -0.01196
       7 -> 20         0.00419
       7 -> 21         0.00241
       7 -> 24        -0.00503
       7 -> 26        -0.00407
       7 -> 30        -0.00699
       7 -> 32         0.00103
       7 -> 34        -0.00030
       7 -> 36         0.00112
       7 -> 41        -0.00014
       7 -> 43         0.00048
       7 -> 45        -0.00094
       7 -> 48         0.00326
       7 -> 50         0.00109
       7 -> 54        -0.00078
       8 -> 27         0.00012
       8 -> 47         0.00396
       3 <-  9        -0.00683
       3 <- 13        -0.00063
       3 <- 18        -0.00235
       3 <- 23        -0.00030
       3 <- 28        -0.00078
       3 <- 31        -0.00074
       3 <- 37         0.00011
       3 <- 46        -0.00058
       3 <- 52         0.00067
       4 <-  9         0.00108
       4 <- 13         0.00030
       4 <- 18         0.00123
       4 <- 28         0.00144
       4 <- 31        -0.00072
       4 <- 44        -0.00029
       4 <- 46        -0.00019
       5 <- 27        -0.00144
       5 <- 38         0.00059
       5 <- 47         0.00034
       6 <-  9        -0.05461
       6 <- 13         0.00232
       6 <- 18        -0.00616
       6 <- 23         0.00060
       6 <- 28        -0.00420
       6 <- 31        -0.00136
       6 <- 37        -0.00042
       6 <- 46         0.00259
       6 <- 52        -0.00047
       7 <- 10        -0.06219
       7 <- 11        -0.00886
       7 <- 14         0.01207
       7 <- 15         0.00661
       7 <- 17         0.00360
       7 <- 20         0.00084
       7 <- 21        -0.00305
       7 <- 24         0.00331
       7 <- 26         0.00175
       7 <- 30         0.00235
       7 <- 32         0.00012
       7 <- 34         0.00038
       7 <- 36         0.00037
       7 <- 39        -0.00050
       7 <- 41         0.00024
       7 <- 43         0.00027
       7 <- 45        -0.00064
       7 <- 48         0.00300
       7 <- 50         0.00130
       7 <- 54         0.00047
       8 <- 27         0.00048
       8 <- 47         0.00365

 Excited State   5:      Singlet-B1     3.9669 eV  312.55 nm  f=0.0061  <S**2>=0.000
       3 ->  9         0.00261
       3 -> 13        -0.00016
       3 -> 18        -0.00083
       3 -> 28        -0.00198
       3 -> 31        -0.00106
       3 -> 44        -0.00018
       3 -> 46        -0.00329
       3 -> 52        -0.00036
       4 ->  9        -0.02948
       4 -> 13         0.00593
       4 -> 18         0.00068
       4 -> 23         0.00471
       4 -> 28         0.00060
       4 -> 31         0.00068
       4 -> 37         0.00036
       4 -> 44        -0.00039
       4 -> 46         0.00094
       4 -> 52         0.00020
       5 -> 27        -0.00586
       5 -> 38        -0.00372
       6 ->  9        -0.43451
       6 -> 13         0.00727
       6 -> 18        -0.00309
       6 -> 23         0.00486
       6 -> 28         0.00182
       6 -> 31        -0.00429
       6 -> 37         0.00272
       6 -> 44         0.00123
       6 -> 46        -0.00137
       6 -> 52        -0.00102
       7 -> 10         0.55508
       7 -> 11         0.03171
       7 -> 14        -0.03250
       7 -> 15        -0.02219
       7 -> 17        -0.00602
       7 -> 20        -0.00216
       7 -> 21         0.00203
       7 -> 24        -0.00737
       7 -> 26        -0.00404
       7 -> 30        -0.00635
       7 -> 32        -0.00039
       7 -> 34        -0.00337
       7 -> 36        -0.00143
       7 -> 39         0.00062
       7 -> 43         0.00034
       7 -> 45        -0.00068
       7 -> 48        -0.00030
       7 -> 50        -0.00018
       7 -> 54        -0.00160
       8 -> 27         0.00047
       8 -> 38         0.00017
       8 -> 47        -0.00033
       3 <-  9         0.00116
       3 <- 13         0.00089
       3 <- 23         0.00067
       3 <- 28        -0.00146
       3 <- 31         0.00010
       3 <- 37        -0.00030
       3 <- 44        -0.00025
       3 <- 46        -0.00339
       4 <-  9        -0.01497
       4 <- 13         0.00296
       4 <- 18        -0.00017
       4 <- 23         0.00299
       4 <- 28         0.00045
       4 <- 31         0.00047
       4 <- 37         0.00034
       4 <- 44        -0.00051
       4 <- 46         0.00057
       4 <- 52         0.00015
       5 <- 27        -0.00428
       5 <- 38        -0.00314
       6 <-  9        -0.01812
       6 <- 13        -0.00092
       6 <- 18        -0.00202
       6 <- 23         0.00055
       6 <- 28         0.00091
       6 <- 31        -0.00473
       6 <- 37         0.00259
       6 <- 44         0.00095
       6 <- 46        -0.00066
       6 <- 52        -0.00124
       7 <- 10        -0.00377
       7 <- 14        -0.00174
       7 <- 15        -0.00649
       7 <- 17        -0.00015
       7 <- 20        -0.00501
       7 <- 21        -0.00023
       7 <- 24        -0.00329
       7 <- 26        -0.00062
       7 <- 30        -0.00053
       7 <- 32         0.00115
       7 <- 34        -0.00215
       7 <- 36        -0.00242

 The electronic state is 1-A1.
 Alpha  occ. eigenvalues --  -19.17797 -10.34183  -0.88571  -0.71796  -0.49376
 Alpha  occ. eigenvalues --   -0.38166  -0.30234  -0.28613
 Alpha virt. eigenvalues --   -0.17736  -0.09051  -0.00204   0.04034   0.06086
 Alpha virt. eigenvalues --    0.06202   0.11598   0.13066   0.18646   0.20910
 Alpha virt. eigenvalues --    0.23908   0.30424   0.38481   0.39286   0.50496

 Mulliken charges:
               1
     1  C   -0.105410
     2  H    0.194033
     3  H    0.194033
     4  O   -0.282656
 Sum of Mulliken charges =  -0.00000

 Dipole moment (field-independent basis, Debye):
    X=             -0.0000    Y=              0.0000    Z=             -4.2850  Tot=              4.2850
 Quadrupole moment (field-independent basis, Debye-Ang):
   XX=            -13.0925   YY=            -12.0808   ZZ=            -10.4456
   XY=              0.0000   XZ=              0.0000   YZ=              0.0000

 Normal termination of Gaussian 16 at Fri Sep 17 10:53:13 2021.
