 Gaussian 16, Revision C.01,
 Gaussian 16:  ES64L-G16RevC.01  3-Jul-2019

 ----------------------------------------
 #P wB97XD/6-311+G* NoSymm #P Field=Y-223
 ----------------------------------------

 -------
 TitleMe
 -------
 Symbolic Z-matrix:
 Charge =  1 Multiplicity = 1

                          Input orientation:
 ---------------------------------------------------------------------
 Center     Atomic      Atomic             Coordinates (Angstroms)
 Number     Number       Type             X           Y           Z
 ---------------------------------------------------------------------
      1          6           0        0.519300    1.233000   -0.031900
      2          6           0        1.944500    1.269200   -0.036700
      3          6           0        2.620400    0.092800   -0.025000
      4          6           0       -0.196000    0.030100    0.001000
      5          1           0       -0.020700    2.174200   -0.043400
      6          1           0        2.482800    2.208900   -0.036100
      7          1           0       -1.277700    0.039900    0.011700
      8          7           0        4.092100    0.095900    0.036600
      9          8           0        4.639300   -1.021700    0.144600
     10          8           0        4.664900    1.198400   -0.023300
     11          6           0        0.494300   -1.167100    0.021000
     12          1           0       -0.032500   -2.114900    0.054500
     13          6           0        1.962900   -1.216500   -0.021100
     14          1           0        2.443600   -1.963100    0.615100
     15         35           0        2.173000   -1.949100   -1.906200
 ---------------------------------------------------------------------

 SCF Done:  E(RwB97XD) =  -3010.55273220     A.U. after   21 cycles

 Alpha  occ. eigenvalues -- -483.34824 -62.89880 -56.69524 -56.69023 -56.69017
 Alpha  occ. eigenvalues --  -19.46827 -19.46387 -14.85929 -10.61292 -10.59809
 Alpha  occ. eigenvalues --  -10.59000 -10.57411 -10.54001 -10.53121  -9.05712
 Alpha  occ. eigenvalues --   -6.88251  -6.86599  -6.86575  -2.98188  -2.97749
 Alpha  occ. eigenvalues --   -2.97730  -2.96407  -2.96406  -1.50230  -1.33187
 Alpha  occ. eigenvalues --   -1.23971  -1.14612  -1.13540  -1.07158  -1.01544
 Alpha  occ. eigenvalues --   -0.96635  -0.91552  -0.86027  -0.81676  -0.81320
 Alpha  occ. eigenvalues --   -0.80579  -0.79159  -0.76818  -0.76356  -0.73702
 Alpha  occ. eigenvalues --   -0.69424  -0.67871  -0.64641  -0.62337  -0.60550
 Alpha  occ. eigenvalues --   -0.58249  -0.57683  -0.56242  -0.55851
 Alpha virt. eigenvalues --   -0.31663  -0.20978  -0.19336  -0.18737  -0.15018
 Alpha virt. eigenvalues --   -0.13966  -0.13241  -0.09773  -0.09021  -0.07848
 Alpha virt. eigenvalues --   -0.06352  -0.05148  -0.04657  -0.04071  -0.01809

 Mulliken charges:
               1
     1  C   -0.121889
     2  C    0.232387
     3  C   -0.035518
     4  C   -0.283376
     5  H    0.431798
     6  H    0.428625
     7  H    0.338328
     8  N   -0.233758
     9  O   -0.030393
    10  O    0.198652
    11  C   -0.195291
    12  H    0.271217
    13  C   -0.376446
    14  H    0.355998
    15  Br   0.019666
 Sum of Mulliken charges =   1.00000

 Dipole moment (field-independent basis, Debye):
    X=              2.4448    Y=              5.6744    Z=              0.1193  Tot=              6.1798
 Quadrupole moment (field-independent basis, Debye-Ang):
   XX=            -68.2085   YY=            -55.3300   ZZ=            -64.6776
   XY=             10.7165   XZ=             -0.6716   YZ=             -1.0439

 Normal termination of Gaussian 16 at Thu May  2 14:20:12 2024.
