 Gaussian 16, Revision C.01,
 Gaussian 16:  ES64L-G16RevC.01  3-Jul-2019

 ----------------------------------------
 #P wB97XD/6-311+G* NoSymm #P Field=X+165
 ----------------------------------------

 -------
 TitleMe
 -------
 Symbolic Z-matrix:
 Charge =  1 Multiplicity = 1

                          Input orientation:
 ---------------------------------------------------------------------
 Center     Atomic      Atomic             Coordinates (Angstroms)
 Number     Number       Type             X           Y           Z
 ---------------------------------------------------------------------
      1          6           0        0.029500    1.339700    0.068200
      2          6           0        1.434800    1.286700    0.006400
      3          6           0        2.111800    0.051100   -0.005400
      4          6           0        1.445100   -1.137200    0.031200
      5          6           0       -0.687900    0.168200    0.110000
      6          1           0       -0.471300    2.298400    0.078100
      7          1           0        2.027300    2.196500   -0.032200
      8          1           0        1.989700   -2.076400    0.023200
      9          1           0       -1.771600    0.180400    0.158200
     10          7           0        3.586400    0.051000   -0.067500
     11          8           0        4.147100   -1.059700   -0.088100
     12          8           0        4.145000    1.163900   -0.090100
     13          6           0       -0.023600   -1.145800    0.083500
     14          1           0       -0.436700   -1.872500    0.788900
     15         35           0       -0.535900   -1.869700   -1.740800
 ---------------------------------------------------------------------

 SCF Done:  E(RwB97XD) =  -3010.55686930     A.U. after   19 cycles

 Alpha  occ. eigenvalues -- -483.32380 -62.87377 -56.67093 -56.66493 -56.66484
 Alpha  occ. eigenvalues --  -19.54160 -19.54076 -14.93397 -10.61095 -10.60264
 Alpha  occ. eigenvalues --  -10.60032 -10.59578 -10.58360 -10.54488  -9.03162
 Alpha  occ. eigenvalues --   -6.85899  -6.83939  -6.83906  -2.95789  -2.95275
 Alpha  occ. eigenvalues --   -2.95246  -2.93679  -2.93679  -1.57880  -1.40950
 Alpha  occ. eigenvalues --   -1.25461  -1.17163  -1.14037  -1.06544  -1.04997
 Alpha  occ. eigenvalues --   -0.97722  -0.94319  -0.90991  -0.87778  -0.86252
 Alpha  occ. eigenvalues --   -0.84637  -0.81642  -0.80162  -0.78183  -0.74535
 Alpha  occ. eigenvalues --   -0.71043  -0.69617  -0.66140  -0.65366  -0.65135
 Alpha  occ. eigenvalues --   -0.64149  -0.61956  -0.57071  -0.56440
 Alpha virt. eigenvalues --   -0.31567  -0.27992  -0.17806  -0.16172  -0.13682
 Alpha virt. eigenvalues --   -0.10762  -0.10052  -0.08644  -0.08396  -0.06272
 Alpha virt. eigenvalues --   -0.04989  -0.04636  -0.03997  -0.02733  -0.02402

 Mulliken charges:
               1
     1  C   -0.615688
     2  C    0.566114
     3  C   -0.748468
     4  C    0.191767
     5  C    0.061240
     6  H    0.368105
     7  H    0.335917
     8  H    0.349937
     9  H    0.420785
    10  N   -0.104009
    11  O   -0.043024
    12  O   -0.046162
    13  C   -0.437720
    14  H    0.431542
    15  Br   0.269663
 Sum of Mulliken charges =   1.00000

 Dipole moment (field-independent basis, Debye):
    X=             -5.8472    Y=             -1.1712    Z=             -0.4411  Tot=              5.9797
 Quadrupole moment (field-independent basis, Debye-Ang):
   XX=            -83.4483   YY=            -51.4899   ZZ=            -61.4401
   XY=              2.0445   XZ=              2.3954   YZ=              2.8435

 Normal termination of Gaussian 16 at Wed May  1 14:47:32 2024.
