 Gaussian 16, Revision C.01,
 Gaussian 16:  ES64L-G16RevC.01  3-Jul-2019

 ---------------------------------------
 #P wB97XD/6-311+G* NoSymm #P Field=Z-58
 ---------------------------------------

 -------
 TitleMe
 -------
 Symbolic Z-matrix:
 Charge =  1 Multiplicity = 1

                          Input orientation:
 ---------------------------------------------------------------------
 Center     Atomic      Atomic             Coordinates (Angstroms)
 Number     Number       Type             X           Y           Z
 ---------------------------------------------------------------------
      1          6           0        0.519300    1.233000   -0.031900
      2          6           0        1.944500    1.269200   -0.036700
      3          6           0        2.620400    0.092800   -0.025000
      4          6           0       -0.196000    0.030100    0.001000
      5          1           0       -0.020700    2.174200   -0.043400
      6          1           0        2.482800    2.208900   -0.036100
      7          1           0       -1.277700    0.039900    0.011700
      8          7           0        4.092100    0.095900    0.036600
      9          8           0        4.639300   -1.021700    0.144600
     10          8           0        4.664900    1.198400   -0.023300
     11          6           0        0.494300   -1.167100    0.021000
     12          1           0       -0.032500   -2.114900    0.054500
     13          6           0        1.962900   -1.216500   -0.021100
     14          1           0        2.443600   -1.963100    0.615100
     15         35           0        2.173000   -1.949100   -1.906200
 ---------------------------------------------------------------------

 SCF Done:  E(RwB97XD) =  -3010.53137809     A.U. after   19 cycles

 Alpha  occ. eigenvalues -- -483.32006 -62.87041 -56.66719 -56.66170 -56.66161
 Alpha  occ. eigenvalues --  -19.46331 -19.46306 -14.85763 -10.59468 -10.58477
 Alpha  occ. eigenvalues --  -10.57559 -10.57281 -10.53620 -10.52967  -9.02855
 Alpha  occ. eigenvalues --   -6.85494  -6.83688  -6.83662  -2.95407  -2.94930
 Alpha  occ. eigenvalues --   -2.94909  -2.93464  -2.93463  -1.50012  -1.32968
 Alpha  occ. eigenvalues --   -1.22734  -1.13224  -1.12747  -1.05357  -1.00612
 Alpha  occ. eigenvalues --   -0.95631  -0.90814  -0.85105  -0.81082  -0.80352
 Alpha  occ. eigenvalues --   -0.80205  -0.78130  -0.76330  -0.75828  -0.72398
 Alpha  occ. eigenvalues --   -0.68789  -0.67822  -0.63804  -0.60334  -0.57550
 Alpha  occ. eigenvalues --   -0.57320  -0.56776  -0.56034  -0.55168
 Alpha virt. eigenvalues --   -0.30463  -0.20553  -0.16300  -0.13263  -0.09253
 Alpha virt. eigenvalues --   -0.06685  -0.06397  -0.05800  -0.04202  -0.03464
 Alpha virt. eigenvalues --   -0.03092  -0.02576  -0.01895  -0.01094  -0.00830

 Mulliken charges:
               1
     1  C   -0.094393
     2  C    0.160575
     3  C   -0.083783
     4  C   -0.337588
     5  H    0.346766
     6  H    0.351648
     7  H    0.332690
     8  N   -0.228468
     9  O    0.088959
    10  O    0.070789
    11  C   -0.186529
    12  H    0.358837
    13  C   -0.335625
    14  H    0.429928
    15  Br   0.126195
 Sum of Mulliken charges =   1.00000

 Dipole moment (field-independent basis, Debye):
    X=              2.7009    Y=             -0.6756    Z=              0.2887  Tot=              2.7990
 Quadrupole moment (field-independent basis, Debye-Ang):
   XX=            -67.8327   YY=            -51.5095   ZZ=            -63.5265
   XY=             -2.5100   XZ=             -0.4174   YZ=              1.4415

 Normal termination of Gaussian 16 at Thu May  2 14:18:44 2024.
