 Gaussian 16, Revision A.03,
 Gaussian 16:  ES64L-G16RevA.03 25-Dec-2016

 --------------------------------------------------------------------
 #p B3LYP/6-311+G** #p TD=(singlets,nstates=30)IOp(6/8=3) IOp(9/40=4)
 --------------------------------------------------------------------

 --------------------------------
 Scan Step 225, Bond Length 1.625
 --------------------------------
 Symbolic Z-matrix:
 Charge =  0 Multiplicity = 1

                         Standard orientation:
 ---------------------------------------------------------------------
 Center     Atomic      Atomic             Coordinates (Angstroms)
 Number     Number       Type             X           Y           Z
 ---------------------------------------------------------------------
      1          6           0        0.000000   -0.000000   -0.738581
      2          1           0        0.000000    0.937260   -1.329931
      3          1           0       -0.000000   -0.937260   -1.329931
      4          8           0        0.000000    0.000000    0.886419
 ---------------------------------------------------------------------

 SCF Done:  E(RB3LYP) =  -114.418512001     A.U. after   10 cycles

 Excitation energies and oscillator strengths:

 Excited State   1:      Singlet-A2     1.8925 eV  655.12 nm  f=0.0000  <S**2>=0.000
       3 -> 27         0.00112
       3 -> 38         0.00081
       3 -> 46         0.00331
       4 -> 27         0.00066
       4 -> 38        -0.00012
       4 -> 46        -0.00126
       5 ->  9         0.00661
       5 -> 13         0.00098
       5 -> 18         0.00273
       5 -> 23         0.00161
       5 -> 28         0.00235
       5 -> 31        -0.00014
       5 -> 37         0.00129
       5 -> 44         0.00032
       5 -> 52         0.00032
       6 -> 27        -0.00063
       6 -> 38        -0.00075
       6 -> 46         0.00129
       7 -> 12        -0.00095
       7 -> 16         0.00483
       7 -> 19        -0.00411
       7 -> 22        -0.00084
       7 -> 25         0.00090
       7 -> 30        -0.00158
       7 -> 33         0.00035
       7 -> 49         0.00012
       7 -> 50         0.00015
       7 -> 53         0.00044
       8 ->  9         0.70874
       8 -> 13        -0.01231
       8 -> 18         0.02155
       8 -> 23        -0.00308
       8 -> 28         0.01099
       8 -> 31         0.00117
       8 -> 37         0.00062
       8 -> 48        -0.00031
       8 -> 52         0.00193
       3 <- 27         0.00050
       3 <- 38         0.00055
       3 <- 46         0.00336
       4 <- 27         0.00115
       4 <- 38         0.00023
       4 <- 46        -0.00102
       5 <-  9        -0.00018
       5 <- 13        -0.00050
       5 <- 18        -0.00064
       5 <- 23         0.00026
       5 <- 28        -0.00045
       5 <- 31         0.00033
       5 <- 37         0.00073
       5 <- 44         0.00011
       6 <- 38        -0.00061
       6 <- 46         0.00099
       7 <- 12         0.00078
       7 <- 16        -0.01015
       7 <- 19         0.00396
       7 <- 22         0.00680
       7 <- 25         0.00055
       7 <- 30         0.00532
       7 <- 33        -0.00049
       7 <- 36         0.00072
       7 <- 40        -0.00044
       7 <- 42         0.00015
       7 <- 49        -0.00041
       7 <- 53         0.00146
       8 <-  9        -0.05411
       8 <- 13         0.00036
       8 <- 18        -0.00674
       8 <- 28        -0.00243
       8 <- 31        -0.00065
       8 <- 37        -0.00042
       8 <- 52         0.00050
 This state for optimization and/or second-order correction.
 Total Energy, E(TD-HF/TD-DFT) =  -114.348962361
 Copying the excited state density for this state as the 1-particle RhoCI density.

 Excited State   2:      Singlet-A1     4.8820 eV  253.96 nm  f=0.0693  <S**2>=0.000
       3 -> 10        -0.01679
       3 -> 11        -0.01222
       3 -> 14         0.01003
       3 -> 15         0.00505
       3 -> 17        -0.00348
       3 -> 20        -0.00395
       3 -> 21        -0.00092
       3 -> 24         0.00223
       3 -> 26         0.00363
       3 -> 29        -0.00123
       3 -> 32         0.00277
       3 -> 34         0.00224
       3 -> 35        -0.00111
       3 -> 39         0.00078
       3 -> 43         0.00045
       3 -> 45         0.00018
       3 -> 47         0.00227
       3 -> 51         0.00110
       3 -> 54         0.00016
       4 -> 10        -0.01030
       4 -> 11         0.01279
       4 -> 14         0.00517
       4 -> 15        -0.00976
       4 -> 17         0.00305
       4 -> 20         0.00489
       4 -> 21         0.00041
       4 -> 24        -0.00490
       4 -> 26         0.00489
       4 -> 29         0.00106
       4 -> 32        -0.00134
       4 -> 34        -0.00160
       4 -> 35         0.00042
       4 -> 41         0.00013
       4 -> 43        -0.00047
       4 -> 45        -0.00081
       4 -> 47        -0.00118
       4 -> 51        -0.00032
       4 -> 54         0.00011
       5 -> 12         0.01637
       5 -> 16         0.00994
       5 -> 19         0.00147
       5 -> 22         0.00746
       5 -> 25         0.00787
       5 -> 30        -0.00015
       5 -> 33        -0.00300
       5 -> 36         0.00276
       5 -> 40        -0.00145
       5 -> 42         0.00066
       5 -> 49         0.00043
       5 -> 50        -0.00070
       5 -> 53        -0.00013
       6 -> 10         0.15968
       6 -> 11         0.10052
       6 -> 14        -0.09285
       6 -> 15        -0.05869
       6 -> 17        -0.01974
       6 -> 20        -0.00986
       6 -> 21         0.01273
       6 -> 24        -0.01339
       6 -> 26        -0.00641
       6 -> 29        -0.00773
       6 -> 32         0.00103
       6 -> 34         0.00144
       6 -> 35        -0.00059
       6 -> 39         0.00089
       6 -> 41        -0.00038
       6 -> 43         0.00083
       6 -> 45         0.00081
       6 -> 47         0.00120
       6 -> 51         0.00081
       6 -> 54        -0.00071
       7 ->  9         0.68342
       7 -> 13        -0.00026
       7 -> 18        -0.01755
       7 -> 23        -0.00026
       7 -> 28        -0.00109
       7 -> 31        -0.00306
       7 -> 37         0.00095
       7 -> 44        -0.00105
       7 -> 48         0.00037
       7 -> 52         0.00105
       8 -> 12        -0.00753
       8 -> 16         0.06581
       8 -> 19        -0.02375
       8 -> 22        -0.02498
       8 -> 25         0.00052
       8 -> 30        -0.01164
       8 -> 33         0.00209
       8 -> 36        -0.00245
       8 -> 40         0.00119
       8 -> 42        -0.00035
       8 -> 49         0.00054
       8 -> 50         0.00022
       8 -> 53        -0.00069
       3 <- 10        -0.01147
       3 <- 11        -0.00879
       3 <- 14         0.00752
       3 <- 15         0.00332
       3 <- 17        -0.00181
       3 <- 20        -0.00291
       3 <- 21        -0.00126
       3 <- 24         0.00135
       3 <- 26         0.00213
       3 <- 29        -0.00074
       3 <- 32         0.00252
       3 <- 34         0.00142
       3 <- 35        -0.00095
       3 <- 39         0.00070
       3 <- 43         0.00055
       3 <- 45         0.00038
       3 <- 47         0.00236
       3 <- 51         0.00108
       3 <- 54         0.00027
       4 <- 10        -0.00500
       4 <- 11         0.00815
       4 <- 14         0.00270
       4 <- 15        -0.00588
       4 <- 17         0.00157
       4 <- 20         0.00424
       4 <- 21         0.00029
       4 <- 24        -0.00338
       4 <- 26         0.00390
       4 <- 29         0.00027
       4 <- 32        -0.00164
       4 <- 34        -0.00140
       4 <- 35         0.00066
       4 <- 39        -0.00012
       4 <- 43        -0.00045
       4 <- 45        -0.00090
       4 <- 47        -0.00079
       4 <- 51        -0.00017
       5 <- 12         0.00758
       5 <- 16         0.00522
       5 <- 19         0.00103
       5 <- 22         0.00469
       5 <- 25         0.00543
       5 <- 33        -0.00234
       5 <- 36         0.00226
       5 <- 40        -0.00127
       5 <- 42         0.00055
       5 <- 49         0.00039
       5 <- 50        -0.00064
       5 <- 53        -0.00012
       6 <- 10         0.04827
       6 <- 11         0.03269
       6 <- 14        -0.03699
       6 <- 15        -0.02553
       6 <- 17        -0.00979
       6 <- 20        -0.00646
       6 <- 21         0.00751
       6 <- 24        -0.00821
       6 <- 26        -0.00374
       6 <- 29        -0.00532
       6 <- 32         0.00147
       6 <- 34         0.00175
       6 <- 35        -0.00083
       6 <- 39         0.00094
       6 <- 41        -0.00027
       6 <- 43         0.00070
       6 <- 45         0.00072
       6 <- 47         0.00074
       6 <- 51         0.00064
       6 <- 54        -0.00060
       7 <-  9        -0.12538
       7 <- 13         0.00703
       7 <- 18        -0.01365
       7 <- 23         0.00322
       7 <- 28        -0.00365
       7 <- 31        -0.00143
       7 <- 37         0.00036
       7 <- 44        -0.00064
       7 <- 48        -0.00020
       7 <- 52         0.00092
       8 <- 12        -0.00187
       8 <- 16         0.02413
       8 <- 19        -0.01052
       8 <- 22        -0.01382
       8 <- 30        -0.00850
       8 <- 33         0.00157
       8 <- 36        -0.00188
       8 <- 40         0.00096
       8 <- 42        -0.00028
       8 <- 49         0.00036
       8 <- 50         0.00018
       8 <- 53        -0.00063

 Excited State   3:      Singlet-B1     5.2286 eV  237.13 nm  f=0.0013  <S**2>=0.000
       3 ->  9        -0.02831
       3 -> 13         0.00162
       3 -> 18        -0.00455
       3 -> 23         0.00172
       3 -> 28        -0.00090
       3 -> 31        -0.00048
       3 -> 44         0.00023
       3 -> 48         0.00098
       3 -> 52         0.00094
       4 ->  9         0.01328
       4 -> 13        -0.00265
       4 -> 18         0.00023
       4 -> 23        -0.00239
       4 -> 28         0.00025
       4 -> 31        -0.00151
       4 -> 37        -0.00040
       4 -> 44         0.00013
       4 -> 48        -0.00106
       4 -> 52        -0.00056
       5 -> 38         0.00201
       5 -> 46         0.00086
       6 ->  9         0.70463
       6 -> 13        -0.01979
       6 -> 18         0.01654
       6 -> 23        -0.01089
       6 -> 28         0.00416
       6 -> 31         0.00319
       6 -> 37        -0.00213
       6 -> 44        -0.00276
       6 -> 48         0.00408
       6 -> 52         0.00141
       7 -> 10         0.04761
       7 -> 11         0.02626
       7 -> 14        -0.01852
       7 -> 15        -0.00668
       7 -> 17        -0.00907
       7 -> 20         0.00302
       7 -> 21         0.00030
       7 -> 24        -0.00071
       7 -> 26        -0.00161
       7 -> 29        -0.00388
       7 -> 32        -0.00054
       7 -> 34         0.00081
       7 -> 35         0.00176
       7 -> 39         0.00015
       7 -> 41        -0.00051
       7 -> 43         0.00054
       7 -> 45        -0.00026
       7 -> 47         0.00418
       7 -> 51         0.00118
       7 -> 54         0.00038
       8 -> 27         0.00045
       8 -> 46         0.00523
       3 <-  9        -0.00951
       3 <- 13        -0.00067
       3 <- 18        -0.00286
       3 <- 23        -0.00057
       3 <- 28        -0.00057
       3 <- 31        -0.00068
       3 <- 44        -0.00024
       3 <- 48         0.00115
       3 <- 52         0.00076
       4 <-  9         0.00674
       4 <- 13        -0.00030
       4 <- 18         0.00189
       4 <- 23        -0.00064
       4 <- 28         0.00160
       4 <- 31        -0.00101
       4 <- 37        -0.00022
       4 <- 48        -0.00091
       4 <- 52        -0.00032
       5 <- 27        -0.00060
       5 <- 38         0.00164
       5 <- 46         0.00076
       6 <-  9        -0.02602
       6 <- 13         0.00171
       6 <- 18        -0.00334
       6 <- 23        -0.00027
       6 <- 28        -0.00342
       6 <- 31         0.00115
       6 <- 37        -0.00184
       6 <- 44        -0.00145
       6 <- 48         0.00365
       6 <- 52         0.00046
       7 <- 10        -0.01872
       7 <- 11        -0.01256
       7 <- 14         0.01505
       7 <- 15         0.01192
       7 <- 17         0.00163
       7 <- 20         0.00485
       7 <- 21        -0.00421
       7 <- 24         0.00445
       7 <- 26         0.00173
       7 <- 29         0.00119
       7 <- 34         0.00082
       7 <- 35         0.00259
       7 <- 39         0.00046
       7 <- 41        -0.00016
       7 <- 43         0.00039
       7 <- 45        -0.00040
       7 <- 47         0.00383
       7 <- 51         0.00108
       7 <- 54         0.00106
       8 <- 27         0.00092
       8 <- 38         0.00026
       8 <- 46         0.00488

 Excited State   4:      Singlet-B2     5.8317 eV  212.60 nm  f=0.0118  <S**2>=0.000
       3 -> 12        -0.00153
       3 -> 16         0.00200
       3 -> 19        -0.00459
       3 -> 22         0.00056
       3 -> 25         0.00049
       3 -> 30        -0.00339
       3 -> 33        -0.00022
       3 -> 36         0.00216
       3 -> 40        -0.00180
       3 -> 42         0.00026
       3 -> 49        -0.00284
       3 -> 50         0.00022
       3 -> 53         0.00030
       4 -> 12         0.00044
       4 -> 16        -0.00262
       4 -> 19         0.00020
       4 -> 22         0.00299
       4 -> 25        -0.00179
       4 -> 30         0.00146
       4 -> 33        -0.00048
       4 -> 36         0.00054
       4 -> 40         0.00050
       4 -> 49         0.00047
       4 -> 50        -0.00012
       5 -> 10         0.00799
       5 -> 11         0.00548
       5 -> 14        -0.01127
       5 -> 15         0.00388
       5 -> 17         0.00044
       5 -> 20         0.00213
       5 -> 21         0.00592
       5 -> 24         0.00187
       5 -> 26        -0.00168
       5 -> 29        -0.00200
       5 -> 32        -0.00173
       5 -> 34        -0.00116
       5 -> 35        -0.00041
       5 -> 39        -0.00103
       5 -> 41         0.00071
       5 -> 45         0.00016
       5 -> 47        -0.00082
       5 -> 51         0.00049
       5 -> 54        -0.00024
       6 -> 12         0.00317
       6 -> 16        -0.00181
       6 -> 19         0.00320
       6 -> 22        -0.00022
       6 -> 25        -0.00086
       6 -> 30        -0.00051
       6 -> 33         0.00029
       6 -> 36        -0.00209
       6 -> 40         0.00171
       6 -> 42        -0.00043
       6 -> 49         0.00164
       6 -> 53        -0.00037
       7 -> 27        -0.00068
       7 -> 38         0.00081
       7 -> 46         0.00374
       8 -> 10         0.64838
       8 -> 11         0.24712
       8 -> 14        -0.12300
       8 -> 15        -0.05755
       8 -> 17        -0.01419
       8 -> 20        -0.00085
       8 -> 21         0.00718
       8 -> 24        -0.00676
       8 -> 26        -0.00562
       8 -> 29        -0.01029
       8 -> 32        -0.00319
       8 -> 34        -0.00195
       8 -> 35        -0.00023
       8 -> 39        -0.00067
       8 -> 41         0.00020
       8 -> 43        -0.00038
       8 -> 45         0.00168
       8 -> 47        -0.00445
       8 -> 51         0.00221
       8 -> 54        -0.00175
       3 <- 12        -0.00055
       3 <- 16         0.00055
       3 <- 19        -0.00216
       3 <- 22         0.00091
       3 <- 25         0.00046
       3 <- 30        -0.00135
       3 <- 33        -0.00019
       3 <- 36         0.00165
       3 <- 40        -0.00160
       3 <- 42         0.00022
       3 <- 49        -0.00292
       3 <- 50         0.00019
       3 <- 53         0.00085
       4 <- 12        -0.00015
       4 <- 16        -0.00231
       4 <- 19        -0.00013
       4 <- 22         0.00273
       4 <- 25        -0.00111
       4 <- 30         0.00131
       4 <- 33        -0.00055
       4 <- 36         0.00075
       4 <- 40         0.00017
       4 <- 42         0.00011
       4 <- 49         0.00035
       5 <- 11        -0.00156
       5 <- 14        -0.00145
       5 <- 15         0.00383
       5 <- 17         0.00022
       5 <- 20         0.00059
       5 <- 21         0.00211
       5 <- 24         0.00249
       5 <- 26        -0.00049
       5 <- 29        -0.00049
       5 <- 34        -0.00027
       5 <- 39        -0.00036
       5 <- 41         0.00072
       5 <- 43         0.00011
       5 <- 45         0.00045
       5 <- 47        -0.00069
       5 <- 51         0.00026
       6 <- 16         0.00570
       6 <- 19        -0.00257
       6 <- 22        -0.00413
       6 <- 25        -0.00057
       6 <- 30        -0.00486
       6 <- 33         0.00058
       6 <- 36        -0.00208
       6 <- 40         0.00172
       6 <- 42        -0.00050
       6 <- 49         0.00180
       6 <- 53        -0.00109
       7 <- 27        -0.00066
       7 <- 38         0.00063
       7 <- 46         0.00310
       8 <- 10        -0.01703
       8 <- 11        -0.01194
       8 <- 14         0.01166
       8 <- 15         0.00427
       8 <- 17         0.00044
       8 <- 20        -0.00252
       8 <- 21        -0.00228
       8 <- 24         0.00141
       8 <- 26         0.00196
       8 <- 29        -0.00076
       8 <- 32         0.00252
       8 <- 34         0.00137
       8 <- 35        -0.00030
       8 <- 39         0.00150
       8 <- 41         0.00054
       8 <- 43         0.00035
       8 <- 45         0.00233
       8 <- 47        -0.00334
       8 <- 51         0.00137
       8 <- 54        -0.00044

 Excited State   5:      Singlet-B1     6.9724 eV  177.82 nm  f=0.0060  <S**2>=0.000
       3 ->  9        -0.01542
       3 -> 13         0.00098
       3 -> 18        -0.00310
       3 -> 23         0.00114
       3 -> 28        -0.00345
       3 -> 31        -0.00148
       3 -> 44         0.00052
       3 -> 48        -0.00197
       4 ->  9        -0.03621
       4 -> 13         0.00636
       4 -> 18         0.00162
       4 -> 23         0.00464
       4 -> 28         0.00218
       4 -> 31        -0.00038
       4 -> 37         0.00039
       4 -> 44        -0.00042
       4 -> 48         0.00045
       5 -> 27        -0.00743
       5 -> 38        -0.00299
       5 -> 46         0.00063
       6 ->  9        -0.05460
       6 -> 13        -0.00426
       6 -> 18         0.00234
       6 -> 23        -0.00155
       6 -> 28         0.00319
       6 -> 31        -0.00355
       6 -> 37         0.00173
       6 -> 44        -0.00018
       6 -> 48         0.00109
       6 -> 52        -0.00043
       7 -> 10         0.66217
       7 -> 11         0.20654
       7 -> 14        -0.10742
       7 -> 15        -0.05728
       7 -> 17        -0.00869
       7 -> 20        -0.00576
       7 -> 21         0.00288
       7 -> 24        -0.00869
       7 -> 26        -0.00787
       7 -> 29        -0.00617
       7 -> 32        -0.00106
       7 -> 34        -0.00376
       7 -> 35        -0.00221
       7 -> 39        -0.00069
       7 -> 43         0.00051
       7 -> 45         0.00065
       7 -> 47         0.00217
       7 -> 51         0.00111
       7 -> 54        -0.00115
       8 -> 27         0.00137
       8 -> 38         0.00038
       8 -> 46         0.00248
       3 <-  9        -0.00317
       3 <- 13         0.00067
       3 <- 18        -0.00126
       3 <- 23         0.00067
       3 <- 28        -0.00207
       3 <- 31        -0.00027
       3 <- 37        -0.00022
       3 <- 44         0.00023
       3 <- 48        -0.00217
       3 <- 52         0.00043
       4 <-  9        -0.00981
       4 <- 13         0.00215
       4 <- 18         0.00057
       4 <- 23         0.00206
       4 <- 28         0.00187
       4 <- 31        -0.00049
       4 <- 37         0.00046
       4 <- 44        -0.00067
       5 <- 27        -0.00474

 The electronic state is 1-A1.
 Alpha  occ. eigenvalues --  -19.17286 -10.32808  -0.92382  -0.69876  -0.48877
 Alpha  occ. eigenvalues --   -0.41305  -0.32773  -0.28946
 Alpha virt. eigenvalues --   -0.14847  -0.01743   0.00981   0.04085   0.06122
 Alpha virt. eigenvalues --    0.08497   0.12767   0.14321   0.18923   0.21362
 Alpha virt. eigenvalues --    0.23975   0.30193   0.39015   0.40936   0.50920

 Mulliken charges:
               1
     1  C   -0.065311
     2  H    0.181093
     3  H    0.181093
     4  O   -0.296874
 Sum of Mulliken charges =   0.00000

 Dipole moment (field-independent basis, Debye):
    X=             -0.0000    Y=             -0.0000    Z=             -3.8063  Tot=              3.8063
 Quadrupole moment (field-independent basis, Debye-Ang):
   XX=            -12.7739   YY=            -11.9043   ZZ=            -11.2396
   XY=              0.0000   XZ=              0.0000   YZ=              0.0000

 Normal termination of Gaussian 16 at Fri Sep 17 10:53:02 2021.
