 Gaussian 16, Revision A.03,
 Gaussian 16:  ES64L-G16RevA.03 25-Dec-2016

 --------------------------------------------------------------------
 #p B3LYP/6-311+G** #p TD=(singlets,nstates=30)IOp(6/8=3) IOp(9/40=4)
 --------------------------------------------------------------------

 ---------------------------------------------
 Scan Step 186, Bond Length 1.4300000000000002
 ---------------------------------------------
 Symbolic Z-matrix:
 Charge =  0 Multiplicity = 1

                         Standard orientation:
 ---------------------------------------------------------------------
 Center     Atomic      Atomic             Coordinates (Angstroms)
 Number     Number       Type             X           Y           Z
 ---------------------------------------------------------------------
      1          6           0        0.000000   -0.000000   -0.641081
      2          1           0        0.000000    0.937260   -1.232431
      3          1           0       -0.000000   -0.937260   -1.232431
      4          8           0        0.000000    0.000000    0.788919
 ---------------------------------------------------------------------

 SCF Done:  E(RB3LYP) =  -114.490651376     A.U. after    9 cycles

 Excitation energies and oscillator strengths:

 Excited State   1:      Singlet-A2     2.7135 eV  456.91 nm  f=0.0000  <S**2>=0.000
       3 -> 27         0.00169
       3 -> 38         0.00136
       3 -> 46         0.00306
       4 -> 27         0.00110
       4 -> 38        -0.00028
       4 -> 46        -0.00141
       5 ->  9         0.01385
       5 -> 18         0.00408
       5 -> 23         0.00135
       5 -> 28         0.00363
       5 -> 31        -0.00068
       5 -> 37         0.00216
       5 -> 44         0.00045
       5 -> 48         0.00010
       5 -> 52         0.00052
       6 -> 27        -0.00054
       6 -> 38        -0.00087
       6 -> 46         0.00161
       7 -> 12        -0.00071
       7 -> 15         0.00407
       7 -> 19        -0.00355
       7 -> 22        -0.00027
       7 -> 25         0.00123
       7 -> 30        -0.00125
       7 -> 33         0.00043
       7 -> 42        -0.00011
       7 -> 49         0.00016
       7 -> 50         0.00025
       7 -> 53         0.00047
       8 ->  9         0.70728
       8 -> 13        -0.02162
       8 -> 18         0.02212
       8 -> 23        -0.00621
       8 -> 28         0.01087
       8 -> 31        -0.00013
       8 -> 37         0.00060
       8 -> 48        -0.00029
       8 -> 52         0.00190
       3 <- 27         0.00095
       3 <- 38         0.00105
       3 <- 46         0.00313
       4 <- 27         0.00177
       4 <- 38         0.00020
       4 <- 46        -0.00116
       5 <-  9        -0.00054
       5 <- 13        -0.00067
       5 <- 18        -0.00091
       5 <- 23         0.00039
       5 <- 28        -0.00064
       5 <- 31         0.00052
       5 <- 37         0.00114
       5 <- 44         0.00015
       5 <- 52         0.00014
       6 <- 38        -0.00074
       6 <- 46         0.00126
       7 <- 12        -0.00013
       7 <- 15        -0.00912
       7 <- 19         0.00225
       7 <- 22         0.00739
       7 <- 25         0.00034
       7 <- 30         0.00468
       7 <- 33        -0.00087
       7 <- 35         0.00156
       7 <- 40         0.00074
       7 <- 49        -0.00021
       7 <- 50         0.00016
       7 <- 53         0.00142
       8 <-  9        -0.03754
       8 <- 13         0.00136
       8 <- 18        -0.00559
       8 <- 23         0.00054
       8 <- 28        -0.00185
       8 <- 31        -0.00053
       8 <- 37        -0.00079
       8 <- 52         0.00052
 This state for optimization and/or second-order correction.
 Total Energy, E(TD-HF/TD-DFT) =  -114.390931322
 Copying the excited state density for this state as the 1-particle RhoCI density.

 Excited State   2:      Singlet-A1     6.7529 eV  183.60 nm  f=0.1222  <S**2>=0.000
       3 -> 10         0.00713
       3 -> 11        -0.01592
       3 -> 14         0.00947
       3 -> 16        -0.01980
       3 -> 17        -0.01100
       3 -> 20        -0.00144
       3 -> 21        -0.00430
       3 -> 24         0.00516
       3 -> 26         0.00718
       3 -> 29         0.00020
       3 -> 32         0.00292
       3 -> 34         0.00380
       3 -> 36        -0.00112
       3 -> 39         0.00125
       3 -> 41         0.00014
       3 -> 43         0.00053
       3 -> 45         0.00162
       3 -> 47         0.00131
       3 -> 51         0.00044
       3 -> 54         0.00030
       4 -> 10         0.02308
       4 -> 11         0.01050
       4 -> 14         0.01406
       4 -> 16         0.00515
       4 -> 17         0.00505
       4 -> 20         0.00885
       4 -> 21         0.00014
       4 -> 24        -0.00696
       4 -> 26         0.00609
       4 -> 29         0.00108
       4 -> 32        -0.00121
       4 -> 34        -0.00282
       4 -> 36         0.00048
       4 -> 39        -0.00021
       4 -> 41         0.00012
       4 -> 43        -0.00018
       4 -> 45        -0.00038
       4 -> 47        -0.00167
       4 -> 51        -0.00018
       5 -> 12         0.02717
       5 -> 15         0.02478
       5 -> 19         0.00193
       5 -> 22         0.00437
       5 -> 25         0.01211
       5 -> 30        -0.00210
       5 -> 33        -0.00336
       5 -> 35         0.00216
       5 -> 40         0.00164
       5 -> 42         0.00067
       5 -> 49         0.00062
       5 -> 50        -0.00051
       5 -> 53        -0.00028
       6 -> 10        -0.04769
       6 -> 11         0.07769
       6 -> 14        -0.03951
       6 -> 16         0.11881
       6 -> 17         0.01861
       6 -> 20        -0.02894
       6 -> 21         0.02527
       6 -> 24        -0.02233
       6 -> 26        -0.01153
       6 -> 29        -0.01040
       6 -> 32        -0.00011
       6 -> 34         0.00262
       6 -> 36         0.00187
       6 -> 39         0.00031
       6 -> 41        -0.00082
       6 -> 43         0.00053
       6 -> 45         0.00036
       6 -> 47         0.00178
       6 -> 51         0.00079
       6 -> 54        -0.00035
       7 ->  9         0.68555
       7 -> 13         0.01611
       7 -> 18        -0.02575
       7 -> 23         0.00477
       7 -> 28        -0.00430
       7 -> 31        -0.00211
       7 -> 37         0.00028
       7 -> 44        -0.00097
       7 -> 48         0.00060
       7 -> 52         0.00101
       8 -> 12         0.00135
       8 -> 15         0.11574
       8 -> 19        -0.02700
       8 -> 22        -0.04260
       8 -> 25         0.00253
       8 -> 30        -0.01487
       8 -> 33         0.00467
       8 -> 35        -0.00586
       8 -> 40        -0.00245
       8 -> 42        -0.00035
       8 -> 49         0.00069
       8 -> 50         0.00034
       8 -> 53        -0.00094
       3 <- 10         0.00399
       3 <- 11        -0.00974
       3 <- 14         0.00659
       3 <- 16        -0.01321
       3 <- 17        -0.00657
       3 <- 20        -0.00074
       3 <- 21        -0.00380
       3 <- 24         0.00350
       3 <- 26         0.00460
       3 <- 29         0.00024
       3 <- 32         0.00265
       3 <- 34         0.00249
       3 <- 36        -0.00073
       3 <- 39         0.00097
       3 <- 41         0.00014
       3 <- 43         0.00056
       3 <- 45         0.00161
       3 <- 47         0.00157
       3 <- 51         0.00041
       3 <- 54         0.00035
       4 <- 10         0.00988
       4 <- 11         0.00531
       4 <- 14         0.00629
       4 <- 16         0.00327
       4 <- 17         0.00246
       4 <- 20         0.00574
       4 <- 21         0.00022
       4 <- 24        -0.00423
       4 <- 26         0.00434
       4 <- 29         0.00018
       4 <- 32        -0.00160
       4 <- 34        -0.00233
       4 <- 36         0.00023
       4 <- 39        -0.00024
       4 <- 43        -0.00018
       4 <- 47        -0.00145
       5 <- 12         0.00889
       5 <- 15         0.01002
       5 <- 19         0.00118
       5 <- 22         0.00231
       5 <- 25         0.00714
       5 <- 30        -0.00120
       5 <- 33        -0.00243
       5 <- 35         0.00171
       5 <- 40         0.00138
       5 <- 42         0.00052
       5 <- 49         0.00052
       5 <- 50        -0.00046
       5 <- 53        -0.00024
       6 <- 10        -0.01065
       6 <- 11         0.01866
       6 <- 14        -0.01251
       6 <- 16         0.04416
       6 <- 17         0.00679
       6 <- 20        -0.01367
       6 <- 21         0.01265
       6 <- 24        -0.01230
       6 <- 26        -0.00673
       6 <- 29        -0.00658
       6 <- 32         0.00033
       6 <- 34         0.00253
       6 <- 36         0.00129
       6 <- 39         0.00048
       6 <- 41        -0.00055
       6 <- 43         0.00046
       6 <- 47         0.00139
       6 <- 51         0.00059
       6 <- 54        -0.00026
       7 <-  9        -0.10739
       7 <- 13         0.01124
       7 <- 18        -0.01482
       7 <- 23         0.00640
       7 <- 28        -0.00560
       7 <- 31        -0.00057
       7 <- 37        -0.00011
       7 <- 44        -0.00043
       7 <- 52         0.00084
       8 <- 15         0.02711
       8 <- 19        -0.00820
       8 <- 22        -0.01874
       8 <- 25         0.00080
       8 <- 30        -0.00960
       8 <- 33         0.00321
       8 <- 35        -0.00416
       8 <- 40        -0.00191
       8 <- 42        -0.00028
       8 <- 49         0.00047
       8 <- 50         0.00027
       8 <- 53        -0.00083

 Excited State   3:      Singlet-B1     6.7741 eV  183.03 nm  f=0.0015  <S**2>=0.000
       3 ->  9        -0.03258
       3 -> 13         0.00303
       3 -> 18        -0.00591
       3 -> 23         0.00274
       3 -> 28        -0.00164
       3 -> 31        -0.00050
       3 -> 44         0.00042
       3 -> 48         0.00062
       3 -> 52         0.00108
       4 ->  9         0.01561
       4 -> 13        -0.00271
       4 -> 18         0.00062
       4 -> 23        -0.00248
       4 -> 28         0.00018
       4 -> 31        -0.00193
       4 -> 37        -0.00046
       4 -> 48        -0.00141
       4 -> 52        -0.00081
       5 -> 27        -0.00100
       5 -> 38         0.00198
       5 -> 46         0.00173
       6 ->  9         0.70591
       6 -> 13        -0.02543
       6 -> 18         0.01959
       6 -> 23        -0.01181
       6 -> 28         0.00580
       6 -> 31         0.00391
       6 -> 37        -0.00251
       6 -> 44        -0.00337
       6 -> 48         0.00489
       6 -> 52         0.00175
       7 -> 10        -0.00343
       7 -> 11         0.00495
       7 -> 14        -0.00382
       7 -> 16         0.00740
       7 -> 17        -0.00881
       7 -> 20         0.00201
       7 -> 21        -0.00145
       7 -> 24         0.00065
       7 -> 26        -0.00027
       7 -> 29        -0.00451
       7 -> 32        -0.00112
       7 -> 34        -0.00021
       7 -> 36        -0.00170
       7 -> 39         0.00013
       7 -> 41        -0.00125
       7 -> 43         0.00078
       7 -> 45         0.00384
       7 -> 47         0.00318
       7 -> 51         0.00114
       7 -> 54         0.00056
       8 -> 27         0.00147
       8 -> 38         0.00047
       8 -> 46         0.00628
       3 <-  9        -0.01054
       3 <- 18        -0.00324
       3 <- 23        -0.00013
       3 <- 28        -0.00107
       3 <- 31        -0.00050
       3 <- 44        -0.00023
       3 <- 48         0.00085
       3 <- 52         0.00086
       4 <-  9         0.00629
       4 <- 18         0.00234
       4 <- 23        -0.00034
       4 <- 28         0.00209
       4 <- 31        -0.00153
       4 <- 44         0.00018
       4 <- 48        -0.00123
       4 <- 52        -0.00045
       5 <- 27        -0.00132
       5 <- 38         0.00154
       5 <- 46         0.00154
       6 <-  9        -0.02246
       6 <- 13         0.00209
       6 <- 18        -0.00301
       6 <- 28        -0.00286
       6 <- 31         0.00218
       6 <- 37        -0.00234
       6 <- 44        -0.00203
       6 <- 48         0.00434
       6 <- 52         0.00064
       7 <- 10         0.00366
       7 <- 11        -0.00619
       7 <- 14         0.00370
       7 <- 16        -0.01511
       7 <- 17        -0.00506
       7 <- 20         0.00650
       7 <- 21        -0.00589
       7 <- 24         0.00532
       7 <- 26         0.00257
       7 <- 29         0.00058
       7 <- 32        -0.00091
       7 <- 34        -0.00117
       7 <- 36        -0.00270
       7 <- 39         0.00038
       7 <- 41        -0.00080
       7 <- 43         0.00071
       7 <- 45         0.00355
       7 <- 47         0.00274
       7 <- 51         0.00086
       7 <- 54         0.00109
       8 <- 27         0.00168
       8 <- 38         0.00060
       8 <- 46         0.00569

 Excited State   4:      Singlet-B2     6.9250 eV  179.04 nm  f=0.0130  <S**2>=0.000
       3 -> 12         0.00185
       3 -> 15         0.00017
       3 -> 19         0.00186
       3 -> 22        -0.00032
       3 -> 25         0.00093
       3 -> 30         0.00053
       3 -> 33         0.00033
       3 -> 35        -0.00088
       3 -> 40        -0.00055
       3 -> 42        -0.00010
       3 -> 49         0.00058
       3 -> 50        -0.00010
       3 -> 53        -0.00014
       4 -> 12        -0.00158
       4 -> 15         0.00237
       4 -> 19         0.00143
       4 -> 22        -0.00322
       4 -> 25         0.00285
       4 -> 35         0.00010
       4 -> 40         0.00042
       4 -> 42        -0.00012
       4 -> 49        -0.00011
       5 -> 10        -0.00803
       5 -> 11         0.00231
       5 -> 14         0.00926
       5 -> 16        -0.00477
       5 -> 17        -0.00293
       5 -> 20         0.00093
       5 -> 21        -0.00554
       5 -> 24        -0.00134
       5 -> 26         0.00181
       5 -> 29         0.00109
       5 -> 32        -0.00084
       5 -> 34         0.00103
       5 -> 36        -0.00033
       5 -> 41        -0.00066
       5 -> 43        -0.00030
       5 -> 47         0.00019
       5 -> 51        -0.00012
       5 -> 54         0.00014
       6 -> 12        -0.00231
       6 -> 15         0.00104
       6 -> 19        -0.00018
       6 -> 22        -0.00153
       6 -> 25         0.00072
       6 -> 30        -0.00025
       6 -> 33        -0.00039
       6 -> 35         0.00118
       6 -> 40         0.00048
       6 -> 50        -0.00011
       7 -> 38        -0.00085
       7 -> 46        -0.00066
       8 -> 10         0.70515
       8 -> 11         0.01902
       8 -> 14         0.03584
       8 -> 16        -0.02449
       8 -> 17        -0.00915
       8 -> 20         0.01479
       8 -> 21         0.00103
       8 -> 24         0.00082
       8 -> 26         0.00391
       8 -> 29         0.00264
       8 -> 32         0.00089
       8 -> 39         0.00028
       8 -> 41        -0.00039
       8 -> 43         0.00062
       8 -> 45         0.00061
       8 -> 47         0.00044
       8 -> 51        -0.00057
       8 -> 54         0.00039
       3 <- 12         0.00042
       3 <- 15         0.00034
       3 <- 19         0.00077
       3 <- 22        -0.00064
       3 <- 25         0.00045
       3 <- 30         0.00011
       3 <- 33         0.00029
       3 <- 35        -0.00075
       3 <- 40        -0.00053
       3 <- 49         0.00063
       3 <- 53        -0.00022
       4 <- 12         0.00074
       4 <- 15         0.00210
       4 <- 19         0.00137
       4 <- 22        -0.00218
       4 <- 25         0.00185
       4 <- 33         0.00014
       4 <- 35        -0.00010
       4 <- 42        -0.00021
       4 <- 50        -0.00012
       5 <- 10         0.00207
       5 <- 11         0.00036
       5 <- 14         0.00435
       5 <- 16         0.00039
       5 <- 17        -0.00025
       5 <- 20         0.00026
       5 <- 21        -0.00135
       5 <- 24        -0.00245
       5 <- 26         0.00118
       5 <- 29         0.00019
       5 <- 32        -0.00082
       5 <- 34         0.00073
       5 <- 36        -0.00017
       5 <- 41        -0.00051
       5 <- 43        -0.00028
       5 <- 45         0.00012
       6 <- 12        -0.00023
       6 <- 15        -0.00116
       6 <- 19         0.00091
       6 <- 22         0.00043
       6 <- 25         0.00024
       6 <- 30         0.00105
       6 <- 33        -0.00046
       6 <- 35         0.00113
       6 <- 40         0.00044
       6 <- 50        -0.00014
       6 <- 53         0.00029
       7 <- 27         0.00011
       7 <- 38        -0.00064
       7 <- 46        -0.00050
       8 <- 10        -0.00174
       8 <- 11         0.00213
       8 <- 14        -0.00404
       8 <- 16         0.00256
       8 <- 17         0.00033
       8 <- 20        -0.00034
       8 <- 21         0.00145
       8 <- 24         0.00081
       8 <- 26        -0.00115
       8 <- 32         0.00028
       8 <- 36         0.00038
       8 <- 39        -0.00015
       8 <- 41        -0.00020
       8 <- 43         0.00026
       8 <- 45         0.00069
       8 <- 51        -0.00024
       8 <- 54         0.00011

 Excited State   5:      Singlet-B2     7.4765 eV  165.83 nm  f=0.0251  <S**2>=0.000
       3 -> 12         0.00043
       3 -> 15         0.00173
       3 -> 19        -0.00204
       3 -> 22        -0.00053
       3 -> 25         0.00042
       3 -> 30        -0.00345
       3 -> 33        -0.00019
       3 -> 35         0.00117
       3 -> 40         0.00093
       3 -> 49        -0.00114
       3 -> 50         0.00016
       4 -> 12        -0.00181
       4 -> 15        -0.00096
       4 -> 19        -0.00045
       4 -> 22         0.00137
       4 -> 25        -0.00192
       4 -> 30         0.00181
       4 -> 33        -0.00048
       4 -> 35         0.00066
       4 -> 40        -0.00012
       4 -> 49        -0.00011
       4 -> 50        -0.00010
       5 -> 10        -0.00119
       5 -> 11         0.00127
       5 -> 14        -0.01093
       5 -> 16        -0.00368
       5 -> 17         0.00360
       5 -> 20         0.00363
       5 -> 21         0.00405
       5 -> 24         0.00060
       5 -> 26        -0.00195
       5 -> 29        -0.00147
       5 -> 32        -0.00080
       5 -> 34        -0.00050
       5 -> 36         0.00075
       5 -> 39        -0.00078
       5 -> 41         0.00051
       5 -> 43        -0.00031
       5 -> 45        -0.00090
       5 -> 47        -0.00041
       5 -> 51         0.00051
       6 -> 12         0.00194
       6 -> 15         0.00039
       6 -> 19         0.00101
       6 -> 22        -0.00087
       6 -> 25        -0.00015
       6 -> 30        -0.00133
       6 -> 33         0.00046
       6 -> 35        -0.00150
       6 -> 40        -0.00142
       6 -> 42        -0.00017
       6 -> 49         0.00170
       6 -> 50        -0.00016
       6 -> 53        -0.00017
       7 -> 27        -0.00068
       7 -> 38         0.00060
       7 -> 46         0.00284
       8 -> 10        -0.01580
       8 -> 11         0.70359
       8 -> 14        -0.01909
       8 -> 16         0.06211
       8 -> 17         0.01603
       8 -> 20         0.01141
       8 -> 21         0.00100
       8 -> 24        -0.00339
       8 -> 26        -0.00084
       8 -> 29        -0.00476
       8 -> 32        -0.00035
       8 -> 34        -0.00049
       8 -> 36         0.00085
       8 -> 39         0.00019
       8 -> 41         0.00072
       8 -> 43        -0.00037
       8 -> 45        -0.00347
       8 -> 47        -0.00097
       8 -> 51         0.00163
       8 -> 54        -0.00035
       3 <- 12        -0.00031
       3 <- 15         0.00061
       3 <- 19        -0.00135
       3 <- 25         0.00011
       3 <- 30        -0.00169
       3 <- 33        -0.00028
       3 <- 35         0.00103
       3 <- 40         0.00085

 The electronic state is 1-A1.
 Alpha  occ. eigenvalues --  -19.16472 -10.31047  -0.97638  -0.67759  -0.48932
 Alpha  occ. eigenvalues --   -0.43632  -0.35770  -0.28981
 Alpha virt. eigenvalues --   -0.11663   0.00014   0.02994   0.04145   0.06197
 Alpha virt. eigenvalues --    0.11660   0.15644   0.18494   0.18991   0.21700
 Alpha virt. eigenvalues --    0.23791   0.30086   0.40534   0.42958   0.50971

 Mulliken charges:
               1
     1  C   -0.028250
     2  H    0.158752
     3  H    0.158752
     4  O   -0.289253
 Sum of Mulliken charges =  -0.00000

 Dipole moment (field-independent basis, Debye):
    X=             -0.0000    Y=              0.0000    Z=             -3.3306  Tot=              3.3306
 Quadrupole moment (field-independent basis, Debye-Ang):
   XX=            -12.3752   YY=            -11.7802   ZZ=            -11.8102
   XY=              0.0000   XZ=              0.0000   YZ=              0.0000

 Normal termination of Gaussian 16 at Fri Sep 17 10:52:52 2021.
