 Gaussian 16, Revision C.01,
 Gaussian 16:  ES64L-G16RevC.01  3-Jul-2019

 ---------------------------------------
 #P wB97XD/6-311+G* NoSymm #P Field=Z-48
 ---------------------------------------

 -------
 TitleMe
 -------
 Symbolic Z-matrix:
 Charge =  1 Multiplicity = 1

                          Input orientation:
 ---------------------------------------------------------------------
 Center     Atomic      Atomic             Coordinates (Angstroms)
 Number     Number       Type             X           Y           Z
 ---------------------------------------------------------------------
      1          6           0        0.029500    1.339700    0.068200
      2          6           0        1.434800    1.286700    0.006400
      3          6           0        2.111800    0.051100   -0.005400
      4          6           0        1.445100   -1.137200    0.031200
      5          6           0       -0.687900    0.168200    0.110000
      6          1           0       -0.471300    2.298400    0.078100
      7          1           0        2.027300    2.196500   -0.032200
      8          1           0        1.989700   -2.076400    0.023200
      9          1           0       -1.771600    0.180400    0.158200
     10          7           0        3.586400    0.051000   -0.067500
     11          8           0        4.147100   -1.059700   -0.088100
     12          8           0        4.145000    1.163900   -0.090100
     13          6           0       -0.023600   -1.145800    0.083500
     14          1           0       -0.436700   -1.872500    0.788900
     15         35           0       -0.535900   -1.869700   -1.740800
 ---------------------------------------------------------------------

 SCF Done:  E(RwB97XD) =  -3010.53608946     A.U. after   18 cycles

 Alpha  occ. eigenvalues -- -483.31833 -62.86871 -56.66546 -56.65998 -56.65995
 Alpha  occ. eigenvalues --  -19.45862 -19.45785 -14.85364 -10.58481 -10.57570
 Alpha  occ. eigenvalues --  -10.57203 -10.57015 -10.56746 -10.52933  -9.02686
 Alpha  occ. eigenvalues --   -6.85317  -6.83517  -6.83503  -2.95233  -2.94754
 Alpha  occ. eigenvalues --   -2.94741  -2.93300  -2.93300  -1.49623  -1.32597
 Alpha  occ. eigenvalues --   -1.22691  -1.14213  -1.11785  -1.04820  -1.01032
 Alpha  occ. eigenvalues --   -0.95509  -0.90955  -0.85253  -0.80739  -0.80638
 Alpha  occ. eigenvalues --   -0.79973  -0.78272  -0.76081  -0.75911  -0.72466
 Alpha  occ. eigenvalues --   -0.69357  -0.67556  -0.63856  -0.60383  -0.57356
 Alpha  occ. eigenvalues --   -0.56898  -0.56155  -0.55708  -0.55555
 Alpha virt. eigenvalues --   -0.29747  -0.21289  -0.15937  -0.13460  -0.08938
 Alpha virt. eigenvalues --   -0.06229  -0.06118  -0.05415  -0.04197  -0.03353
 Alpha virt. eigenvalues --   -0.02960  -0.02570  -0.01843  -0.01526  -0.00945

 Mulliken charges:
               1
     1  C   -0.586708
     2  C    0.533076
     3  C   -0.721627
     4  C    0.293451
     5  C    0.019159
     6  H    0.335614
     7  H    0.366744
     8  H    0.375160
     9  H    0.352752
    10  N   -0.106490
    11  O    0.031349
    12  O    0.027963
    13  C   -0.471800
    14  H    0.420653
    15  Br   0.130705
 Sum of Mulliken charges =   1.00000

 Dipole moment (field-independent basis, Debye):
    X=             -0.7121    Y=             -0.4067    Z=              0.8102  Tot=              1.1528
 Quadrupole moment (field-independent basis, Debye-Ang):
   XX=            -71.0868   YY=            -52.2393   ZZ=            -63.5327
   XY=              1.1686   XZ=              1.4932   YZ=              0.9524

 Normal termination of Gaussian 16 at Wed May  1 15:23:01 2024.
