 Gaussian 16, Revision C.01,
 Gaussian 16:  ES64L-G16RevC.01  3-Jul-2019

 ---------------------------------------
 #P wB97XD/6-311+G* NoSymm #P Field=Y-77
 ---------------------------------------

 -------
 TitleMe
 -------
 Symbolic Z-matrix:
 Charge =  1 Multiplicity = 1

                          Input orientation:
 ---------------------------------------------------------------------
 Center     Atomic      Atomic             Coordinates (Angstroms)
 Number     Number       Type             X           Y           Z
 ---------------------------------------------------------------------
      1          6           0        0.519300    1.233000   -0.031900
      2          6           0        1.944500    1.269200   -0.036700
      3          6           0        2.620400    0.092800   -0.025000
      4          6           0       -0.196000    0.030100    0.001000
      5          1           0       -0.020700    2.174200   -0.043400
      6          1           0        2.482800    2.208900   -0.036100
      7          1           0       -1.277700    0.039900    0.011700
      8          7           0        4.092100    0.095900    0.036600
      9          8           0        4.639300   -1.021700    0.144600
     10          8           0        4.664900    1.198400   -0.023300
     11          6           0        0.494300   -1.167100    0.021000
     12          1           0       -0.032500   -2.114900    0.054500
     13          6           0        1.962900   -1.216500   -0.021100
     14          1           0        2.443600   -1.963100    0.615100
     15         35           0        2.173000   -1.949100   -1.906200
 ---------------------------------------------------------------------

 SCF Done:  E(RwB97XD) =  -3010.53258359     A.U. after   19 cycles

 Alpha  occ. eigenvalues -- -483.32242 -62.87278 -56.66956 -56.66406 -56.66400
 Alpha  occ. eigenvalues --  -19.46334 -19.46191 -14.85690 -10.59341 -10.59025
 Alpha  occ. eigenvalues --  -10.57796 -10.57005 -10.53185 -10.53027  -9.03093
 Alpha  occ. eigenvalues --   -6.85731  -6.83922  -6.83905  -2.95645  -2.95165
 Alpha  occ. eigenvalues --   -2.95150  -2.93703  -2.93702  -1.49949  -1.32906
 Alpha  occ. eigenvalues --   -1.22814  -1.13251  -1.12774  -1.05445  -1.00652
 Alpha  occ. eigenvalues --   -0.95675  -0.90797  -0.85157  -0.81055  -0.80435
 Alpha  occ. eigenvalues --   -0.80134  -0.78214  -0.76241  -0.75864  -0.72425
 Alpha  occ. eigenvalues --   -0.68788  -0.67669  -0.63660  -0.60463  -0.57721
 Alpha  occ. eigenvalues --   -0.57445  -0.56823  -0.55935  -0.55198
 Alpha virt. eigenvalues --   -0.30509  -0.20450  -0.16496  -0.13322  -0.10754
 Alpha virt. eigenvalues --   -0.07348  -0.06626  -0.06040  -0.04401  -0.03330
 Alpha virt. eigenvalues --   -0.03146  -0.02588  -0.02362  -0.01758  -0.01007

 Mulliken charges:
               1
     1  C   -0.114054
     2  C    0.191442
     3  C   -0.061759
     4  C   -0.313692
     5  H    0.376707
     6  H    0.378822
     7  H    0.332891
     8  N   -0.237202
     9  O    0.046121
    10  O    0.114269
    11  C   -0.208631
    12  H    0.328258
    13  C   -0.352120
    14  H    0.392404
    15  Br   0.126544
 Sum of Mulliken charges =   1.00000

 Dipole moment (field-independent basis, Debye):
    X=              2.6675    Y=              1.3541    Z=             -0.4461  Tot=              3.0245
 Quadrupole moment (field-independent basis, Debye-Ang):
   XX=            -67.9674   YY=            -52.3822   ZZ=            -63.0043
   XY=              1.7392   XZ=             -1.8964   YZ=              1.2646

 Normal termination of Gaussian 16 at Thu May  2 14:18:44 2024.
