 Gaussian 16, Revision C.01,
 Gaussian 16:  ES64L-G16RevC.01  3-Jul-2019

 ---------------------------------------
 #P wB97XD/6-311+G* NoSymm #P Field=Y+48
 ---------------------------------------

 -------
 TitleMe
 -------
 Symbolic Z-matrix:
 Charge =  1 Multiplicity = 1

                          Input orientation:
 ---------------------------------------------------------------------
 Center     Atomic      Atomic             Coordinates (Angstroms)
 Number     Number       Type             X           Y           Z
 ---------------------------------------------------------------------
      1          6           0        0.519300    1.233000   -0.031900
      2          6           0        1.944500    1.269200   -0.036700
      3          6           0        2.620400    0.092800   -0.025000
      4          6           0       -0.196000    0.030100    0.001000
      5          1           0       -0.020700    2.174200   -0.043400
      6          1           0        2.482800    2.208900   -0.036100
      7          1           0       -1.277700    0.039900    0.011700
      8          7           0        4.092100    0.095900    0.036600
      9          8           0        4.639300   -1.021700    0.144600
     10          8           0        4.664900    1.198400   -0.023300
     11          6           0        0.494300   -1.167100    0.021000
     12          1           0       -0.032500   -2.114900    0.054500
     13          6           0        1.962900   -1.216500   -0.021100
     14          1           0        2.443600   -1.963100    0.615100
     15         35           0        2.173000   -1.949100   -1.906200
 ---------------------------------------------------------------------

 SCF Done:  E(RwB97XD) =  -3010.53494490     A.U. after   19 cycles

 Alpha  occ. eigenvalues -- -483.30316 -62.85326 -56.65032 -56.64448 -56.64434
 Alpha  occ. eigenvalues --  -19.46189 -19.46079 -14.85547 -10.58994 -10.57246
 Alpha  occ. eigenvalues --  -10.56822 -10.56784 -10.53359 -10.52447  -9.01123
 Alpha  occ. eigenvalues --   -6.83836  -6.81920  -6.81878  -2.93732  -2.93231
 Alpha  occ. eigenvalues --   -2.93197  -2.91664  -2.91663  -1.49818  -1.32781
 Alpha  occ. eigenvalues --   -1.22056  -1.12537  -1.12025  -1.04209  -0.99930
 Alpha  occ. eigenvalues --   -0.94994  -0.90300  -0.84748  -0.80706  -0.79920
 Alpha  occ. eigenvalues --   -0.79849  -0.77611  -0.76066  -0.75250  -0.71562
 Alpha  occ. eigenvalues --   -0.68198  -0.67310  -0.62977  -0.59312  -0.57280
 Alpha  occ. eigenvalues --   -0.56540  -0.55838  -0.55198  -0.53895
 Alpha virt. eigenvalues --   -0.29660  -0.20235  -0.14978  -0.12784  -0.09260
 Alpha virt. eigenvalues --   -0.06028  -0.05820  -0.04499  -0.04107  -0.03182
 Alpha virt. eigenvalues --   -0.02090  -0.01107  -0.00444  -0.00129   0.00935

 Mulliken charges:
               1
     1  C   -0.106955
     2  C    0.183598
     3  C   -0.084337
     4  C   -0.346235
     5  H    0.325027
     6  H    0.331581
     7  H    0.329401
     8  N   -0.241912
     9  O    0.115085
    10  O    0.042237
    11  C   -0.196408
    12  H    0.373729
    13  C   -0.366793
    14  H    0.422764
    15  Br   0.219220
 Sum of Mulliken charges =   1.00000

 Dipole moment (field-independent basis, Debye):
    X=              2.8534    Y=             -2.3142    Z=             -0.9444  Tot=              3.7933
 Quadrupole moment (field-independent basis, Debye-Ang):
   XX=            -67.7813   YY=            -50.4549   ZZ=            -61.6517
   XY=             -5.9107   XZ=             -2.9843   YZ=              3.2022

 Normal termination of Gaussian 16 at Thu May  2 14:18:36 2024.
