 Gaussian 16, Revision C.01,
 Gaussian 16:  ES64L-G16RevC.01  3-Jul-2019

 ----------------------------------------
 #P wB97XD/6-311+G* NoSymm #P Field=Z-107
 ----------------------------------------

 -------
 TitleMe
 -------
 Symbolic Z-matrix:
 Charge =  1 Multiplicity = 1

                          Input orientation:
 ---------------------------------------------------------------------
 Center     Atomic      Atomic             Coordinates (Angstroms)
 Number     Number       Type             X           Y           Z
 ---------------------------------------------------------------------
      1          6           0        0.519300    1.233000   -0.031900
      2          6           0        1.944500    1.269200   -0.036700
      3          6           0        2.620400    0.092800   -0.025000
      4          6           0       -0.196000    0.030100    0.001000
      5          1           0       -0.020700    2.174200   -0.043400
      6          1           0        2.482800    2.208900   -0.036100
      7          1           0       -1.277700    0.039900    0.011700
      8          7           0        4.092100    0.095900    0.036600
      9          8           0        4.639300   -1.021700    0.144600
     10          8           0        4.664900    1.198400   -0.023300
     11          6           0        0.494300   -1.167100    0.021000
     12          1           0       -0.032500   -2.114900    0.054500
     13          6           0        1.962900   -1.216500   -0.021100
     14          1           0        2.443600   -1.963100    0.615100
     15         35           0        2.173000   -1.949100   -1.906200
 ---------------------------------------------------------------------

 SCF Done:  E(RwB97XD) =  -3010.53278104     A.U. after   19 cycles

 Alpha  occ. eigenvalues -- -483.32875 -62.87921 -56.67584 -56.67056 -56.67049
 Alpha  occ. eigenvalues --  -19.46480 -19.46443 -14.85917 -10.59774 -10.58979
 Alpha  occ. eigenvalues --  -10.57879 -10.57651 -10.53923 -10.53254  -9.03743
 Alpha  occ. eigenvalues --   -6.86342  -6.84596  -6.84576  -2.96265  -2.95801
 Alpha  occ. eigenvalues --   -2.95784  -2.94387  -2.94387  -1.50155  -1.33107
 Alpha  occ. eigenvalues --   -1.23099  -1.13701  -1.13064  -1.05978  -1.00956
 Alpha  occ. eigenvalues --   -0.95970  -0.91113  -0.85320  -0.81321  -0.80617
 Alpha  occ. eigenvalues --   -0.80400  -0.78408  -0.76519  -0.76124  -0.72875
 Alpha  occ. eigenvalues --   -0.69108  -0.68133  -0.64294  -0.60948  -0.58348
 Alpha  occ. eigenvalues --   -0.57644  -0.57102  -0.56190  -0.55649
 Alpha virt. eigenvalues --   -0.30900  -0.20790  -0.17057  -0.13534  -0.11239
 Alpha virt. eigenvalues --   -0.08382  -0.07503  -0.06731  -0.05685  -0.04381
 Alpha virt. eigenvalues --   -0.04036  -0.02672  -0.02142  -0.01758  -0.01099

 Mulliken charges:
               1
     1  C   -0.081798
     2  C    0.139827
     3  C   -0.089738
     4  C   -0.343248
     5  H    0.348267
     6  H    0.353212
     7  H    0.334835
     8  N   -0.219211
     9  O    0.089745
    10  O    0.072031
    11  C   -0.172114
    12  H    0.360950
    13  C   -0.316032
    14  H    0.445687
    15  Br   0.077588
 Sum of Mulliken charges =   1.00000

 Dipole moment (field-independent basis, Debye):
    X=              2.6354    Y=             -0.4841    Z=              1.1670  Tot=              2.9226
 Quadrupole moment (field-independent basis, Debye-Ang):
   XX=            -67.8154   YY=            -51.8238   ZZ=            -64.7273
   XY=             -2.1297   XZ=              1.3926   YZ=              0.5814

 Normal termination of Gaussian 16 at Thu May  2 14:19:01 2024.
