 Gaussian 16, Revision C.01,
 Gaussian 16:  ES64L-G16RevC.01  3-Jul-2019

 ----------------------------------------
 #P wB97XD/6-311+G* NoSymm #P Field=Z+155
 ----------------------------------------

 -------
 TitleMe
 -------
 Symbolic Z-matrix:
 Charge =  1 Multiplicity = 1

                          Input orientation:
 ---------------------------------------------------------------------
 Center     Atomic      Atomic             Coordinates (Angstroms)
 Number     Number       Type             X           Y           Z
 ---------------------------------------------------------------------
      1          6           0        0.519300    1.233000   -0.031900
      2          6           0        1.944500    1.269200   -0.036700
      3          6           0        2.620400    0.092800   -0.025000
      4          6           0       -0.196000    0.030100    0.001000
      5          1           0       -0.020700    2.174200   -0.043400
      6          1           0        2.482800    2.208900   -0.036100
      7          1           0       -1.277700    0.039900    0.011700
      8          7           0        4.092100    0.095900    0.036600
      9          8           0        4.639300   -1.021700    0.144600
     10          8           0        4.664900    1.198400   -0.023300
     11          6           0        0.494300   -1.167100    0.021000
     12          1           0       -0.032500   -2.114900    0.054500
     13          6           0        1.962900   -1.216500   -0.021100
     14          1           0        2.443600   -1.963100    0.615100
     15         35           0        2.173000   -1.949100   -1.906200
 ---------------------------------------------------------------------

 SCF Done:  E(RwB97XD) =  -3010.54501135     A.U. after   20 cycles

 Alpha  occ. eigenvalues -- -483.28680 -62.83655 -56.63397 -56.62767 -56.62747
 Alpha  occ. eigenvalues --  -19.45842 -19.45837 -14.85222 -10.58265 -10.56571
 Alpha  occ. eigenvalues --  -10.56285 -10.55779 -10.52465 -10.51874  -8.99427
 Alpha  occ. eigenvalues --   -6.82232  -6.80179  -6.80119  -2.92105  -2.91574
 Alpha  occ. eigenvalues --   -2.91527  -2.89885  -2.89884  -1.49512  -1.32485
 Alpha  occ. eigenvalues --   -1.21337  -1.11883  -1.11112  -1.03000  -0.99085
 Alpha  occ. eigenvalues --   -0.94267  -0.89652  -0.84327  -0.80237  -0.79511
 Alpha  occ. eigenvalues --   -0.79308  -0.77057  -0.75645  -0.74637  -0.70616
 Alpha  occ. eigenvalues --   -0.67553  -0.66615  -0.61766  -0.58441  -0.56982
 Alpha  occ. eigenvalues --   -0.56212  -0.55523  -0.53157  -0.52166
 Alpha virt. eigenvalues --   -0.28797  -0.19768  -0.14028  -0.12423  -0.10704
 Alpha virt. eigenvalues --   -0.07852  -0.07561  -0.05724  -0.04050  -0.03579
 Alpha virt. eigenvalues --   -0.02142  -0.00936   0.00448   0.00753   0.01314

 Mulliken charges:
               1
     1  C   -0.150910
     2  C    0.232349
     3  C   -0.039897
     4  C   -0.334960
     5  H    0.343845
     6  H    0.348886
     7  H    0.327689
     8  N   -0.273715
     9  O    0.088375
    10  O    0.069832
    11  C   -0.240823
    12  H    0.352618
    13  C   -0.419315
    14  H    0.361148
    15  Br   0.334879
 Sum of Mulliken charges =   1.00000

 Dipole moment (field-independent basis, Debye):
    X=              3.0216    Y=             -1.5450    Z=             -3.5584  Tot=              4.9173
 Quadrupole moment (field-independent basis, Debye-Ang):
   XX=            -67.8878   YY=            -50.1599   ZZ=            -58.7922
   XY=             -4.2711   XZ=             -8.3473   YZ=              5.1906

 Normal termination of Gaussian 16 at Thu May  2 14:19:34 2024.
