 Gaussian 16, Revision A.03,
 Gaussian 16:  ES64L-G16RevA.03 25-Dec-2016

 --------------------------------------------------------------------
 #p B3LYP/6-311+G** #p TD=(singlets,nstates=30)IOp(6/8=3) IOp(9/40=4)
 --------------------------------------------------------------------

 -------------------------------
 Scan Step 234, Bond Length 1.67
 -------------------------------
 Symbolic Z-matrix:
 Charge =  0 Multiplicity = 1

                         Standard orientation:
 ---------------------------------------------------------------------
 Center     Atomic      Atomic             Coordinates (Angstroms)
 Number     Number       Type             X           Y           Z
 ---------------------------------------------------------------------
      1          6           0        0.000000   -0.000000   -0.761081
      2          1           0        0.000000    0.937260   -1.352431
      3          1           0       -0.000000   -0.937260   -1.352431
      4          8           0        0.000000    0.000000    0.908919
 ---------------------------------------------------------------------

 SCF Done:  E(RB3LYP) =  -114.401950962     A.U. after   11 cycles

 Excitation energies and oscillator strengths:

 Excited State   1:      Singlet-A2     1.7393 eV  712.84 nm  f=0.0000  <S**2>=0.000
       3 -> 27         0.00101
       3 -> 38         0.00072
       3 -> 46         0.00334
       4 -> 27         0.00059
       4 -> 46        -0.00121
       5 ->  9         0.00531
       5 -> 13         0.00105
       5 -> 18         0.00247
       5 -> 23         0.00158
       5 -> 28         0.00209
       5 -> 37         0.00114
       5 -> 44         0.00029
       5 -> 52         0.00028
       6 -> 27        -0.00062
       6 -> 38        -0.00071
       6 -> 46         0.00121
       7 -> 12        -0.00102
       7 -> 16         0.00496
       7 -> 19        -0.00424
       7 -> 22        -0.00093
       7 -> 25         0.00082
       7 -> 30        -0.00166
       7 -> 33         0.00033
       7 -> 49         0.00012
       7 -> 50         0.00013
       7 -> 53         0.00043
       8 ->  9         0.70914
       8 -> 13        -0.01084
       8 -> 18         0.02141
       8 -> 23        -0.00252
       8 -> 28         0.01089
       8 -> 31         0.00133
       8 -> 37         0.00059
       8 -> 48        -0.00031
       8 -> 52         0.00192
       3 <- 27         0.00042
       3 <- 38         0.00046
       3 <- 46         0.00338
       4 <- 27         0.00104
       4 <- 38         0.00023
       4 <- 46        -0.00097
       5 <- 13        -0.00046
       5 <- 18        -0.00058
       5 <- 23         0.00023
       5 <- 28        -0.00040
       5 <- 31         0.00030
       5 <- 37         0.00065
       6 <- 38        -0.00057
       6 <- 46         0.00092
       7 <- 12         0.00100
       7 <- 16        -0.01030
       7 <- 19         0.00433
       7 <- 22         0.00660
       7 <- 25         0.00058
       7 <- 30         0.00541
       7 <- 33        -0.00044
       7 <- 36         0.00057
       7 <- 40        -0.00036
       7 <- 42         0.00016
       7 <- 49        -0.00044
       7 <- 53         0.00146
       8 <-  9        -0.05849
       8 <- 13         0.00017
       8 <- 18        -0.00698
       8 <- 28        -0.00253
       8 <- 31        -0.00069
       8 <- 37        -0.00036
       8 <- 48         0.00011
       8 <- 52         0.00049
 This state for optimization and/or second-order correction.
 Total Energy, E(TD-HF/TD-DFT) =  -114.338032844
 Copying the excited state density for this state as the 1-particle RhoCI density.

 Excited State   2:      Singlet-A1     4.5168 eV  274.49 nm  f=0.0589  <S**2>=0.000
       3 -> 10        -0.01798
       3 -> 11        -0.00902
       3 -> 14         0.00742
       3 -> 15         0.00307
       3 -> 17        -0.00340
       3 -> 20        -0.00398
       3 -> 21        -0.00049
       3 -> 24         0.00177
       3 -> 26         0.00303
       3 -> 29        -0.00129
       3 -> 32         0.00276
       3 -> 34         0.00185
       3 -> 35        -0.00119
       3 -> 39         0.00069
       3 -> 43         0.00048
       3 -> 45         0.00040
       3 -> 47         0.00229
       3 -> 51         0.00122
       3 -> 54         0.00011
       4 -> 10        -0.00727
       4 -> 11         0.01299
       4 -> 14         0.00400
       4 -> 15        -0.00947
       4 -> 17         0.00289
       4 -> 20         0.00416
       4 -> 21         0.00039
       4 -> 24        -0.00459
       4 -> 26         0.00455
       4 -> 29         0.00095
       4 -> 32        -0.00136
       4 -> 34        -0.00135
       4 -> 35         0.00041
       4 -> 41         0.00012
       4 -> 43        -0.00050
       4 -> 45        -0.00083
       4 -> 47        -0.00107
       4 -> 51        -0.00033
       4 -> 54         0.00013
       5 -> 12         0.01462
       5 -> 16         0.00783
       5 -> 19         0.00142
       5 -> 22         0.00752
       5 -> 25         0.00707
       5 -> 33        -0.00287
       5 -> 36         0.00278
       5 -> 40        -0.00138
       5 -> 42         0.00072
       5 -> 49         0.00037
       5 -> 50        -0.00073
       5 -> 53        -0.00010
       6 -> 10         0.19210
       6 -> 11         0.08160
       6 -> 14        -0.08212
       6 -> 15        -0.04550
       6 -> 17        -0.01894
       6 -> 20        -0.00737
       6 -> 21         0.01076
       6 -> 24        -0.01196
       6 -> 26        -0.00557
       6 -> 29        -0.00712
       6 -> 32         0.00154
       6 -> 34         0.00141
       6 -> 35        -0.00030
       6 -> 39         0.00099
       6 -> 41        -0.00030
       6 -> 43         0.00085
       6 -> 45         0.00083
       6 -> 47         0.00108
       6 -> 51         0.00077
       6 -> 54        -0.00078
       7 ->  9         0.68192
       7 -> 13        -0.00231
       7 -> 18        -0.01580
       7 -> 23        -0.00097
       7 -> 28        -0.00046
       7 -> 31        -0.00315
       7 -> 37         0.00106
       7 -> 44        -0.00103
       7 -> 48         0.00030
       7 -> 52         0.00105
       8 -> 12        -0.00783
       8 -> 16         0.05794
       8 -> 19        -0.02264
       8 -> 22        -0.02174
       8 -> 25         0.00032
       8 -> 30        -0.01079
       8 -> 33         0.00174
       8 -> 36        -0.00193
       8 -> 40         0.00093
       8 -> 42        -0.00036
       8 -> 49         0.00046
       8 -> 50         0.00020
       8 -> 53        -0.00064
       3 <- 10        -0.01272
       3 <- 11        -0.00678
       3 <- 14         0.00572
       3 <- 15         0.00191
       3 <- 17        -0.00181
       3 <- 20        -0.00304
       3 <- 21        -0.00090
       3 <- 24         0.00100
       3 <- 26         0.00169
       3 <- 29        -0.00078
       3 <- 32         0.00251
       3 <- 34         0.00112
       3 <- 35        -0.00104
       3 <- 39         0.00064
       3 <- 43         0.00057
       3 <- 45         0.00058
       3 <- 47         0.00235
       3 <- 51         0.00120
       3 <- 54         0.00022
       4 <- 10        -0.00330
       4 <- 11         0.00850
       4 <- 14         0.00224
       4 <- 15        -0.00586
       4 <- 17         0.00155
       4 <- 20         0.00385
       4 <- 21         0.00026
       4 <- 24        -0.00324
       4 <- 26         0.00372
       4 <- 29         0.00021
       4 <- 32        -0.00162
       4 <- 34        -0.00117
       4 <- 35         0.00067
       4 <- 43        -0.00048
       4 <- 45        -0.00087
       4 <- 47        -0.00069
       4 <- 51        -0.00018
       5 <- 12         0.00722
       5 <- 16         0.00433
       5 <- 19         0.00102
       5 <- 22         0.00489
       5 <- 25         0.00503
       5 <- 30         0.00016
       5 <- 33        -0.00227
       5 <- 36         0.00231
       5 <- 40        -0.00121
       5 <- 42         0.00061
       5 <- 49         0.00033
       5 <- 50        -0.00068
       6 <- 10         0.06041
       6 <- 11         0.02809
       6 <- 14        -0.03416
       6 <- 15        -0.02077
       6 <- 17        -0.00986
       6 <- 20        -0.00532
       6 <- 21         0.00658
       6 <- 24        -0.00748
       6 <- 26        -0.00321
       6 <- 29        -0.00496
       6 <- 32         0.00192
       6 <- 34         0.00168
       6 <- 35        -0.00066
       6 <- 39         0.00101
       6 <- 41        -0.00022
       6 <- 43         0.00072
       6 <- 45         0.00069
       6 <- 47         0.00065
       6 <- 51         0.00061
       6 <- 54        -0.00068
       7 <-  9        -0.12764
       7 <- 13         0.00616
       7 <- 18        -0.01320
       7 <- 23         0.00261
       7 <- 28        -0.00319
       7 <- 31        -0.00151
       7 <- 37         0.00044
       7 <- 44        -0.00067
       7 <- 48        -0.00026
       7 <- 52         0.00094
       8 <- 12        -0.00222
       8 <- 16         0.02298
       8 <- 19        -0.01072
       8 <- 22        -0.01257
       8 <- 30        -0.00806
       8 <- 33         0.00133
       8 <- 36        -0.00150
       8 <- 40         0.00075
       8 <- 42        -0.00029
       8 <- 49         0.00029
       8 <- 50         0.00017
       8 <- 53        -0.00059

 Excited State   3:      Singlet-B1     4.9154 eV  252.24 nm  f=0.0012  <S**2>=0.000
       3 ->  9        -0.02715
       3 -> 13         0.00141
       3 -> 18        -0.00429
       3 -> 23         0.00156
       3 -> 28        -0.00082
       3 -> 31        -0.00049
       3 -> 44         0.00024
       3 -> 48         0.00098
       3 -> 52         0.00090
       4 ->  9         0.01253
       4 -> 13        -0.00258
       4 -> 18         0.00018
       4 -> 23        -0.00232
       4 -> 28         0.00029
       4 -> 31        -0.00144
       4 -> 37        -0.00038
       4 -> 44         0.00012
       4 -> 48        -0.00096
       4 -> 52        -0.00050
       5 -> 38         0.00200
       5 -> 46         0.00074
       6 ->  9         0.70269
       6 -> 13        -0.01898
       6 -> 18         0.01592
       6 -> 23        -0.01072
       6 -> 28         0.00392
       6 -> 31         0.00301
       6 -> 37        -0.00202
       6 -> 44        -0.00257
       6 -> 48         0.00392
       6 -> 52         0.00133
       7 -> 10         0.07343
       7 -> 11         0.02621
       7 -> 14        -0.02031
       7 -> 15        -0.00617
       7 -> 17        -0.00896
       7 -> 20         0.00321
       7 -> 21         0.00061
       7 -> 24        -0.00103
       7 -> 26        -0.00184
       7 -> 29        -0.00385
       7 -> 32        -0.00040
       7 -> 34         0.00091
       7 -> 35         0.00169
       7 -> 39         0.00016
       7 -> 41        -0.00040
       7 -> 43         0.00051
       7 -> 47         0.00402
       7 -> 51         0.00120
       7 -> 54         0.00030
       8 -> 27         0.00032
       8 -> 46         0.00500
       3 <-  9        -0.00916
       3 <- 13        -0.00075
       3 <- 18        -0.00277
       3 <- 23        -0.00061
       3 <- 28        -0.00049
       3 <- 31        -0.00071
       3 <- 37         0.00011
       3 <- 44        -0.00020
       3 <- 48         0.00113
       3 <- 52         0.00074
       4 <-  9         0.00667
       4 <- 13        -0.00037
       4 <- 18         0.00177
       4 <- 23        -0.00071
       4 <- 28         0.00152
       4 <- 31        -0.00096
       4 <- 37        -0.00023
       4 <- 48        -0.00083
       4 <- 52        -0.00028
       5 <- 27        -0.00048
       5 <- 38         0.00165
       5 <- 46         0.00065
       6 <-  9        -0.02784
       6 <- 13         0.00175
       6 <- 18        -0.00354
       6 <- 23        -0.00022
       6 <- 28        -0.00354
       6 <- 31         0.00096
       6 <- 37        -0.00172
       6 <- 44        -0.00126
       6 <- 48         0.00350
       6 <- 52         0.00039
       7 <- 10        -0.02508
       7 <- 11        -0.01157
       7 <- 14         0.01505
       7 <- 15         0.01059
       7 <- 17         0.00195
       7 <- 20         0.00450
       7 <- 21        -0.00396
       7 <- 24         0.00438
       7 <- 26         0.00170
       7 <- 29         0.00137
       7 <- 32         0.00015
       7 <- 34         0.00102
       7 <- 35         0.00235
       7 <- 39         0.00049
       7 <- 43         0.00034
       7 <- 45        -0.00015
       7 <- 47         0.00371
       7 <- 51         0.00114
       7 <- 54         0.00103
       8 <- 27         0.00080
       8 <- 38         0.00021
       8 <- 46         0.00468

 Excited State   4:      Singlet-B2     5.3587 eV  231.37 nm  f=0.0083  <S**2>=0.000
       3 -> 12        -0.00148
       3 -> 16         0.00195
       3 -> 19        -0.00461
       3 -> 22         0.00071
       3 -> 25         0.00065
       3 -> 30        -0.00330
       3 -> 33        -0.00011
       3 -> 36         0.00208
       3 -> 40        -0.00179
       3 -> 42         0.00035
       3 -> 49        -0.00315
       3 -> 50         0.00022
       3 -> 53         0.00031
       4 -> 12         0.00046
       4 -> 16        -0.00237
       4 -> 19         0.00035
       4 -> 22         0.00270
       4 -> 25        -0.00143
       4 -> 30         0.00139
       4 -> 33        -0.00046
       4 -> 36         0.00052
       4 -> 40         0.00047
       4 -> 49         0.00056
       4 -> 50        -0.00012
       5 -> 10         0.01006
       5 -> 11         0.00423
       5 -> 14        -0.00893
       5 -> 15         0.00428
       5 -> 20         0.00216
       5 -> 21         0.00526
       5 -> 24         0.00180
       5 -> 26        -0.00139
       5 -> 29        -0.00198
       5 -> 32        -0.00192
       5 -> 34        -0.00094
       5 -> 35        -0.00027
       5 -> 39        -0.00099
       5 -> 41         0.00064
       5 -> 45         0.00012
       5 -> 47        -0.00074
       5 -> 51         0.00045
       5 -> 54        -0.00024
       6 -> 12         0.00297
       6 -> 16        -0.00210
       6 -> 19         0.00352
       6 -> 22        -0.00036
       6 -> 25        -0.00093
       6 -> 30        -0.00040
       6 -> 33         0.00018
       6 -> 36        -0.00193
       6 -> 40         0.00158
       6 -> 42        -0.00053
       6 -> 49         0.00163
       6 -> 53        -0.00040
       7 -> 27        -0.00068
       7 -> 38         0.00069
       7 -> 46         0.00373
       8 -> 10         0.67358
       8 -> 11         0.17914
       8 -> 14        -0.11042
       8 -> 15        -0.04564
       8 -> 17        -0.01546
       8 -> 20         0.00050
       8 -> 21         0.00754
       8 -> 24        -0.00691
       8 -> 26        -0.00552
       8 -> 29        -0.01097
       8 -> 32        -0.00361
       8 -> 34        -0.00193
       8 -> 35         0.00017
       8 -> 39        -0.00074
       8 -> 43        -0.00026
       8 -> 45         0.00139
       8 -> 47        -0.00454
       8 -> 51         0.00214
       8 -> 54        -0.00198
       3 <- 12        -0.00053
       3 <- 16         0.00057
       3 <- 19        -0.00219
       3 <- 22         0.00094
       3 <- 25         0.00058
       3 <- 30        -0.00131
       3 <- 36         0.00155
       3 <- 40        -0.00157
       3 <- 42         0.00029
       3 <- 49        -0.00323
       3 <- 50         0.00019
       3 <- 53         0.00086
       4 <- 16        -0.00218
       4 <- 22         0.00262
       4 <- 25        -0.00090
       4 <- 30         0.00134
       4 <- 33        -0.00052
       4 <- 36         0.00075
       4 <- 40         0.00017
       4 <- 49         0.00041
       5 <- 10        -0.00040
       5 <- 11        -0.00138
       5 <- 14        -0.00101
       5 <- 15         0.00358
       5 <- 17         0.00021
       5 <- 20         0.00068
       5 <- 21         0.00206
       5 <- 24         0.00229
       5 <- 26        -0.00038
       5 <- 29        -0.00047
       5 <- 32        -0.00018
       5 <- 34        -0.00020
       5 <- 39        -0.00036
       5 <- 41         0.00066
       5 <- 43         0.00011
       5 <- 45         0.00039
       5 <- 47        -0.00066
       5 <- 51         0.00024
       6 <- 12        -0.00015
       6 <- 16         0.00627
       6 <- 19        -0.00290
       6 <- 22        -0.00453
       6 <- 25        -0.00072
       6 <- 30        -0.00527
       6 <- 33         0.00049
       6 <- 36        -0.00190
       6 <- 40         0.00160
       6 <- 42        -0.00060
       6 <- 49         0.00187
       6 <- 53        -0.00120
       7 <- 27        -0.00065
       7 <- 38         0.00054
       7 <- 46         0.00312
       8 <- 10        -0.02286
       8 <- 11        -0.01091
       8 <- 14         0.01107
       8 <- 15         0.00341
       8 <- 17         0.00070
       8 <- 20        -0.00270
       8 <- 21        -0.00211
       8 <- 24         0.00155
       8 <- 26         0.00184
       8 <- 29        -0.00050
       8 <- 32         0.00280
       8 <- 34         0.00125
       8 <- 35        -0.00044
       8 <- 39         0.00150
       8 <- 41         0.00046
       8 <- 43         0.00044
       8 <- 45         0.00212
       8 <- 47        -0.00351
       8 <- 51         0.00138
       8 <- 54        -0.00052

 Excited State   5:      Singlet-B1     6.3963 eV  193.84 nm  f=0.0077  <S**2>=0.000
       3 ->  9        -0.01408
       3 -> 13         0.00085
       3 -> 18        -0.00311
       3 -> 23         0.00100
       3 -> 28        -0.00339
       3 -> 31        -0.00160
       3 -> 44         0.00049
       3 -> 48        -0.00226
       4 ->  9        -0.03474
       4 -> 13         0.00639
       4 -> 18         0.00147
       4 -> 23         0.00465
       4 -> 28         0.00198
       4 -> 31        -0.00020
       4 -> 37         0.00035
       4 -> 44        -0.00046
       4 -> 48         0.00055
       4 -> 52         0.00011
       5 -> 27        -0.00734
       5 -> 38        -0.00311
       5 -> 46         0.00053
       6 ->  9        -0.07811
       6 -> 13        -0.00326
       6 -> 18         0.00228
       6 -> 23        -0.00109
       6 -> 28         0.00333
       6 -> 31        -0.00363
       6 -> 37         0.00189
       6 -> 48         0.00090
       6 -> 52        -0.00051
       7 -> 10         0.67646
       7 -> 11         0.15317
       7 -> 14        -0.09843
       7 -> 15        -0.04939
       7 -> 17        -0.00958
       7 -> 20        -0.00495
       7 -> 21         0.00361
       7 -> 24        -0.00970
       7 -> 26        -0.00758
       7 -> 29        -0.00661
       7 -> 32        -0.00164
       7 -> 34        -0.00398
       7 -> 35        -0.00195
       7 -> 39        -0.00067
       7 -> 43         0.00059
       7 -> 45         0.00084
       7 -> 47         0.00201
       7 -> 51         0.00103
       7 -> 54        -0.00133
       8 -> 27         0.00116
       8 -> 38         0.00032
       8 -> 46         0.00235
       3 <-  9        -0.00297
       3 <- 13         0.00066
       3 <- 18        -0.00126
       3 <- 23         0.00062
       3 <- 28        -0.00209
       3 <- 31        -0.00031
       3 <- 37        -0.00021
       3 <- 44         0.00022
       3 <- 48        -0.00245
       3 <- 52         0.00042
       4 <-  9        -0.01086
       4 <- 13         0.00238
       4 <- 18         0.00054
       4 <- 23         0.00227
       4 <- 28         0.00177
       4 <- 31        -0.00033
       4 <- 37         0.00043
       4 <- 44        -0.00069
       4 <- 48         0.00014
       5 <- 27        -0.00484
       5 <- 38        -0.00236
       5 <- 46         0.00049
       6 <-  9        -0.02424
       6 <- 18        -0.00361
       6 <- 23         0.00021
       6 <- 28        -0.00065
       6 <- 31        -0.00407

 The electronic state is 1-A1.
 Alpha  occ. eigenvalues --  -19.17419 -10.33111  -0.91517  -0.70273  -0.48939
 Alpha  occ. eigenvalues --   -0.40769  -0.32244  -0.28902
 Alpha virt. eigenvalues --   -0.15437  -0.02752   0.00609   0.04075   0.06113
 Alpha virt. eigenvalues --    0.07763   0.12424   0.14071   0.18892   0.21282
 Alpha virt. eigenvalues --    0.23985   0.30252   0.38844   0.40579   0.50873

 Mulliken charges:
               1
     1  C   -0.073229
     2  H    0.184435
     3  H    0.184435
     4  O   -0.295640
 Sum of Mulliken charges =  -0.00000

 Dipole moment (field-independent basis, Debye):
    X=             -0.0000    Y=             -0.0000    Z=             -3.8962  Tot=              3.8962
 Quadrupole moment (field-independent basis, Debye-Ang):
   XX=            -12.8456   YY=            -11.9351   ZZ=            -11.1065
   XY=              0.0000   XZ=              0.0000   YZ=             -0.0000

 Normal termination of Gaussian 16 at Fri Sep 17 10:53:02 2021.
