 Gaussian 16, Revision C.01,
 Gaussian 16:  ES64L-G16RevC.01  3-Jul-2019

 ----------------------------------------
 #P wB97XD/6-311+G* NoSymm #P Field=X+204
 ----------------------------------------

 -------
 TitleMe
 -------
 Symbolic Z-matrix:
 Charge =  1 Multiplicity = 1

                          Input orientation:
 ---------------------------------------------------------------------
 Center     Atomic      Atomic             Coordinates (Angstroms)
 Number     Number       Type             X           Y           Z
 ---------------------------------------------------------------------
      1          6           0        0.029500    1.339700    0.068200
      2          6           0        1.434800    1.286700    0.006400
      3          6           0        2.111800    0.051100   -0.005400
      4          6           0        1.445100   -1.137200    0.031200
      5          6           0       -0.687900    0.168200    0.110000
      6          1           0       -0.471300    2.298400    0.078100
      7          1           0        2.027300    2.196500   -0.032200
      8          1           0        1.989700   -2.076400    0.023200
      9          1           0       -1.771600    0.180400    0.158200
     10          7           0        3.586400    0.051000   -0.067500
     11          8           0        4.147100   -1.059700   -0.088100
     12          8           0        4.145000    1.163900   -0.090100
     13          6           0       -0.023600   -1.145800    0.083500
     14          1           0       -0.436700   -1.872500    0.788900
     15         35           0       -0.535900   -1.869700   -1.740800
 ---------------------------------------------------------------------

 SCF Done:  E(RwB97XD) =  -3010.56678980     A.U. after   19 cycles

 Alpha  occ. eigenvalues -- -483.32784 -62.87771 -56.67493 -56.66887 -56.66875
 Alpha  occ. eigenvalues --  -19.56141 -19.56053 -14.95302 -10.62106 -10.61148
 Alpha  occ. eigenvalues --  -10.60683 -10.59991 -10.58848 -10.54981  -9.03549
 Alpha  occ. eigenvalues --   -6.86301  -6.84324  -6.84280  -2.96187  -2.95671
 Alpha  occ. eigenvalues --   -2.95634  -2.94054  -2.94053  -1.59852  -1.42942
 Alpha  occ. eigenvalues --   -1.26297  -1.18043  -1.14664  -1.07439  -1.05727
 Alpha  occ. eigenvalues --   -0.98355  -0.95454  -0.92379  -0.89689  -0.88184
 Alpha  occ. eigenvalues --   -0.85404  -0.82471  -0.80667  -0.78847  -0.75172
 Alpha  occ. eigenvalues --   -0.71551  -0.70180  -0.67424  -0.67297  -0.66621
 Alpha  occ. eigenvalues --   -0.66166  -0.62521  -0.57332  -0.56792
 Alpha virt. eigenvalues --   -0.32123  -0.29761  -0.18554  -0.16926  -0.15854
 Alpha virt. eigenvalues --   -0.12799  -0.11799  -0.10477  -0.09880  -0.07476
 Alpha virt. eigenvalues --   -0.06648  -0.05851  -0.04951  -0.04181  -0.03517

 Mulliken charges:
               1
     1  C   -0.622905
     2  C    0.573698
     3  C   -0.749733
     4  C    0.162650
     5  C    0.076627
     6  H    0.376145
     7  H    0.328655
     8  H    0.344616
     9  H    0.436186
    10  N   -0.105502
    11  O   -0.060820
    12  O   -0.063862
    13  C   -0.428147
    14  H    0.438233
    15  Br   0.294162
 Sum of Mulliken charges =   1.00000

 Dipole moment (field-independent basis, Debye):
    X=             -7.0892    Y=             -1.3223    Z=             -0.5493  Tot=              7.2323
 Quadrupole moment (field-independent basis, Debye-Ang):
   XX=            -86.6566   YY=            -51.3715   ZZ=            -61.1603
   XY=              2.2116   XZ=              2.7142   YZ=              3.1431

 Normal termination of Gaussian 16 at Wed May  1 14:47:19 2024.
