 Gaussian 16, Revision C.01,
 Gaussian 16:  ES64L-G16RevC.01  3-Jul-2019

 ---------------------------------------
 #P wB97XD/6-311+G* NoSymm #P Field=Z-77
 ---------------------------------------

 -------
 TitleMe
 -------
 Symbolic Z-matrix:
 Charge =  1 Multiplicity = 1

                          Input orientation:
 ---------------------------------------------------------------------
 Center     Atomic      Atomic             Coordinates (Angstroms)
 Number     Number       Type             X           Y           Z
 ---------------------------------------------------------------------
      1          6           0        0.029500    1.339700    0.068200
      2          6           0        1.434800    1.286700    0.006400
      3          6           0        2.111800    0.051100   -0.005400
      4          6           0        1.445100   -1.137200    0.031200
      5          6           0       -0.687900    0.168200    0.110000
      6          1           0       -0.471300    2.298400    0.078100
      7          1           0        2.027300    2.196500   -0.032200
      8          1           0        1.989700   -2.076400    0.023200
      9          1           0       -1.771600    0.180400    0.158200
     10          7           0        3.586400    0.051000   -0.067500
     11          8           0        4.147100   -1.059700   -0.088100
     12          8           0        4.145000    1.163900   -0.090100
     13          6           0       -0.023600   -1.145800    0.083500
     14          1           0       -0.436700   -1.872500    0.788900
     15         35           0       -0.535900   -1.869700   -1.740800
 ---------------------------------------------------------------------

 SCF Done:  E(RwB97XD) =  -3010.53729993     A.U. after   18 cycles

 Alpha  occ. eigenvalues -- -483.32305 -62.87349 -56.67016 -56.66479 -56.66477
 Alpha  occ. eigenvalues --  -19.45989 -19.45909 -14.85489 -10.58725 -10.57742
 Alpha  occ. eigenvalues --  -10.57352 -10.57168 -10.56889 -10.53065  -9.03168
 Alpha  occ. eigenvalues --   -6.85777  -6.84013  -6.83999  -2.95698  -2.95228
 Alpha  occ. eigenvalues --   -2.95215  -2.93803  -2.93803  -1.49746  -1.32720
 Alpha  occ. eigenvalues --   -1.22864  -1.14449  -1.11946  -1.05195  -1.01169
 Alpha  occ. eigenvalues --   -0.95681  -0.91102  -0.85379  -0.80878  -0.80772
 Alpha  occ. eigenvalues --   -0.80103  -0.78401  -0.76211  -0.76053  -0.72719
 Alpha  occ. eigenvalues --   -0.69508  -0.67706  -0.64100  -0.60695  -0.57815
 Alpha  occ. eigenvalues --   -0.57115  -0.56327  -0.56011  -0.55699
 Alpha virt. eigenvalues --   -0.29967  -0.21419  -0.16288  -0.13652  -0.09794
 Alpha virt. eigenvalues --   -0.06914  -0.06587  -0.06095  -0.04669  -0.03489
 Alpha virt. eigenvalues --   -0.03248  -0.02773  -0.02084  -0.01914  -0.01586

 Mulliken charges:
               1
     1  C   -0.592533
     2  C    0.542158
     3  C   -0.724231
     4  C    0.296936
     5  C    0.028012
     6  H    0.336814
     7  H    0.367166
     8  H    0.376149
     9  H    0.354066
    10  N   -0.106406
    11  O    0.031704
    12  O    0.028167
    13  C   -0.472442
    14  H    0.430678
    15  Br   0.103762
 Sum of Mulliken charges =   1.00000

 Dipole moment (field-independent basis, Debye):
    X=             -0.6417    Y=             -0.2991    Z=              1.3117  Tot=              1.4906
 Quadrupole moment (field-independent basis, Debye-Ang):
   XX=            -70.9906   YY=            -52.3917   ZZ=            -64.1042
   XY=              1.0906   XZ=              1.7235   YZ=              0.5234

 Normal termination of Gaussian 16 at Wed May  1 15:22:49 2024.
