 Gaussian 16, Revision C.01,
 Gaussian 16:  ES64L-G16RevC.01  3-Jul-2019

 ---------------------------------------
 #P wB97XD/6-311+G* NoSymm #P Field=Y+77
 ---------------------------------------

 -------
 TitleMe
 -------
 Symbolic Z-matrix:
 Charge =  1 Multiplicity = 1

                          Input orientation:
 ---------------------------------------------------------------------
 Center     Atomic      Atomic             Coordinates (Angstroms)
 Number     Number       Type             X           Y           Z
 ---------------------------------------------------------------------
      1          6           0        0.519300    1.233000   -0.031900
      2          6           0        1.944500    1.269200   -0.036700
      3          6           0        2.620400    0.092800   -0.025000
      4          6           0       -0.196000    0.030100    0.001000
      5          1           0       -0.020700    2.174200   -0.043400
      6          1           0        2.482800    2.208900   -0.036100
      7          1           0       -1.277700    0.039900    0.011700
      8          7           0        4.092100    0.095900    0.036600
      9          8           0        4.639300   -1.021700    0.144600
     10          8           0        4.664900    1.198400   -0.023300
     11          6           0        0.494300   -1.167100    0.021000
     12          1           0       -0.032500   -2.114900    0.054500
     13          6           0        1.962900   -1.216500   -0.021100
     14          1           0        2.443600   -1.963100    0.615100
     15         35           0        2.173000   -1.949100   -1.906200
 ---------------------------------------------------------------------

 SCF Done:  E(RwB97XD) =  -3010.53807135     A.U. after   20 cycles

 Alpha  occ. eigenvalues -- -483.29906 -62.84909 -56.64621 -56.64029 -56.64014
 Alpha  occ. eigenvalues --  -19.46209 -19.46043 -14.85521 -10.58921 -10.56854
 Alpha  occ. eigenvalues --  -10.56749 -10.56597 -10.53414 -10.52344  -9.00700
 Alpha  occ. eigenvalues --   -6.83430  -6.81490  -6.81443  -2.93321  -2.92816
 Alpha  occ. eigenvalues --   -2.92778  -2.91226  -2.91226  -1.49802  -1.32767
 Alpha  occ. eigenvalues --   -1.21909  -1.12430  -1.11835  -1.03956  -0.99767
 Alpha  occ. eigenvalues --   -0.94851  -0.90203  -0.84696  -0.80646  -0.79888
 Alpha  occ. eigenvalues --   -0.79737  -0.77504  -0.76030  -0.75109  -0.71392
 Alpha  occ. eigenvalues --   -0.68059  -0.67201  -0.62823  -0.59099  -0.57262
 Alpha  occ. eigenvalues --   -0.56495  -0.55813  -0.54683  -0.53536
 Alpha virt. eigenvalues --   -0.29479  -0.20203  -0.14681  -0.12680  -0.10357
 Alpha virt. eigenvalues --   -0.06699  -0.06013  -0.04776  -0.04043  -0.03263
 Alpha virt. eigenvalues --   -0.01926  -0.01069  -0.00307  -0.00110   0.00913

 Mulliken charges:
               1
     1  C   -0.105602
     2  C    0.186035
     3  C   -0.090918
     4  C   -0.354302
     5  H    0.312417
     6  H    0.319988
     7  H    0.328736
     8  N   -0.243034
     9  O    0.131336
    10  O    0.025662
    11  C   -0.191862
    12  H    0.383807
    13  C   -0.373132
    14  H    0.429646
    15  Br   0.241223
 Sum of Mulliken charges =   1.00000

 Dipole moment (field-independent basis, Debye):
    X=              2.8967    Y=             -3.1665    Z=             -1.0629  Tot=              4.4212
 Quadrupole moment (field-independent basis, Debye-Ang):
   XX=            -67.7389   YY=            -50.0713   ZZ=            -61.3465
   XY=             -7.6913   XZ=             -3.2435   YZ=              3.6530

 Normal termination of Gaussian 16 at Thu May  2 14:19:12 2024.
