 Gaussian 16, Revision C.01,
 Gaussian 16:  ES64L-G16RevC.01  3-Jul-2019

 ---------------------------------------
 #P wB97XD/6-311+G* NoSymm #P Field=Z+19
 ---------------------------------------

 -------
 TitleMe
 -------
 Symbolic Z-matrix:
 Charge =  1 Multiplicity = 1

                          Input orientation:
 ---------------------------------------------------------------------
 Center     Atomic      Atomic             Coordinates (Angstroms)
 Number     Number       Type             X           Y           Z
 ---------------------------------------------------------------------
      1          6           0        0.519300    1.233000   -0.031900
      2          6           0        1.944500    1.269200   -0.036700
      3          6           0        2.620400    0.092800   -0.025000
      4          6           0       -0.196000    0.030100    0.001000
      5          1           0       -0.020700    2.174200   -0.043400
      6          1           0        2.482800    2.208900   -0.036100
      7          1           0       -1.277700    0.039900    0.011700
      8          7           0        4.092100    0.095900    0.036600
      9          8           0        4.639300   -1.021700    0.144600
     10          8           0        4.664900    1.198400   -0.023300
     11          6           0        0.494300   -1.167100    0.021000
     12          1           0       -0.032500   -2.114900    0.054500
     13          6           0        1.962900   -1.216500   -0.021100
     14          1           0        2.443600   -1.963100    0.615100
     15         35           0        2.173000   -1.949100   -1.906200
 ---------------------------------------------------------------------

 SCF Done:  E(RwB97XD) =  -3010.53259378     A.U. after   19 cycles

 Alpha  occ. eigenvalues -- -483.30717 -62.85733 -56.65434 -56.64855 -56.64843
 Alpha  occ. eigenvalues --  -19.46125 -19.46114 -14.85544 -10.59010 -10.57735
 Alpha  occ. eigenvalues --  -10.57077 -10.56719 -10.53173 -10.52542  -9.01533
 Alpha  occ. eigenvalues --   -6.84234  -6.82335  -6.82299  -2.94133  -2.93634
 Alpha  occ. eigenvalues --   -2.93605  -2.92086  -2.92085  -1.49809  -1.32771
 Alpha  occ. eigenvalues --   -1.22194  -1.12623  -1.12188  -1.04435  -1.00069
 Alpha  occ. eigenvalues --   -0.95118  -0.90369  -0.84796  -0.80743  -0.79970
 Alpha  occ. eigenvalues --   -0.79909  -0.77717  -0.76064  -0.75376  -0.71701
 Alpha  occ. eigenvalues --   -0.68314  -0.67358  -0.63048  -0.59523  -0.57292
 Alpha  occ. eigenvalues --   -0.56585  -0.55839  -0.55680  -0.54196
 Alpha virt. eigenvalues --   -0.29819  -0.20225  -0.15285  -0.12874  -0.08496
 Alpha virt. eigenvalues --   -0.06056  -0.05490  -0.04523  -0.03840  -0.03081
 Alpha virt. eigenvalues --   -0.02320  -0.01344  -0.00758  -0.00129   0.00795

 Mulliken charges:
               1
     1  C   -0.114507
     2  C    0.190173
     3  C   -0.071354
     4  C   -0.332432
     5  H    0.345024
     6  H    0.349888
     7  H    0.330054
     8  N   -0.243977
     9  O    0.088235
    10  O    0.069606
    11  C   -0.207834
    12  H    0.356019
    13  C   -0.365888
    14  H    0.405096
    15  Br   0.201898
 Sum of Mulliken charges =   1.00000

 Dipole moment (field-independent basis, Debye):
    X=              2.8095    Y=             -0.9818    Z=             -1.0921  Tot=              3.1701
 Quadrupole moment (field-independent basis, Debye-Ang):
   XX=            -67.8575   YY=            -51.0200   ZZ=            -61.7299
   XY=             -3.1238   XZ=             -3.2649   YZ=              2.7915

 Normal termination of Gaussian 16 at Thu May  2 14:18:49 2024.
