 Gaussian 16, Revision C.01,
 Gaussian 16:  ES64L-G16RevC.01  3-Jul-2019

 ---------------------------------------
 #P wB97XD/6-311+G* NoSymm #P Field=Y+87
 ---------------------------------------

 -------
 TitleMe
 -------
 Symbolic Z-matrix:
 Charge =  1 Multiplicity = 1

                          Input orientation:
 ---------------------------------------------------------------------
 Center     Atomic      Atomic             Coordinates (Angstroms)
 Number     Number       Type             X           Y           Z
 ---------------------------------------------------------------------
      1          6           0        0.029500    1.339700    0.068200
      2          6           0        1.434800    1.286700    0.006400
      3          6           0        2.111800    0.051100   -0.005400
      4          6           0        1.445100   -1.137200    0.031200
      5          6           0       -0.687900    0.168200    0.110000
      6          1           0       -0.471300    2.298400    0.078100
      7          1           0        2.027300    2.196500   -0.032200
      8          1           0        1.989700   -2.076400    0.023200
      9          1           0       -1.771600    0.180400    0.158200
     10          7           0        3.586400    0.051000   -0.067500
     11          8           0        4.147100   -1.059700   -0.088100
     12          8           0        4.145000    1.163900   -0.090100
     13          6           0       -0.023600   -1.145800    0.083500
     14          1           0       -0.436700   -1.872500    0.788900
     15         35           0       -0.535900   -1.869700   -1.740800
 ---------------------------------------------------------------------

 SCF Done:  E(RwB97XD) =  -3010.54163764     A.U. after   19 cycles

 Alpha  occ. eigenvalues -- -483.29782 -62.84789 -56.64498 -56.63904 -56.63901
 Alpha  occ. eigenvalues --  -19.45487 -19.45412 -14.84966 -10.57379 -10.56937
 Alpha  occ. eigenvalues --  -10.56588 -10.56434 -10.56202 -10.53096  -9.00582
 Alpha  occ. eigenvalues --   -6.83302  -6.81363  -6.81346  -2.93197  -2.92683
 Alpha  occ. eigenvalues --   -2.92668  -2.91117  -2.91117  -1.49242  -1.32224
 Alpha  occ. eigenvalues --   -1.22040  -1.13247  -1.11368  -1.03177  -1.00615
 Alpha  occ. eigenvalues --   -0.94833  -0.90462  -0.84939  -0.80381  -0.80143
 Alpha  occ. eigenvalues --   -0.79548  -0.77709  -0.75666  -0.75419  -0.71618
 Alpha  occ. eigenvalues --   -0.68833  -0.67132  -0.63073  -0.59330  -0.56744
 Alpha  occ. eigenvalues --   -0.55783  -0.55202  -0.54619  -0.53877
 Alpha virt. eigenvalues --   -0.28931  -0.20785  -0.14956  -0.12604  -0.10696
 Alpha virt. eigenvalues --   -0.07336  -0.06340  -0.04997  -0.04520  -0.03188
 Alpha virt. eigenvalues --   -0.01707  -0.01517  -0.00800  -0.00148   0.00635

 Mulliken charges:
               1
     1  C   -0.592295
     2  C    0.565147
     3  C   -0.766408
     4  C    0.321839
     5  C   -0.027796
     6  H    0.296488
     7  H    0.333457
     8  H    0.401800
     9  H    0.348451
    10  N   -0.104838
    11  O    0.075567
    12  O   -0.021443
    13  C   -0.490620
    14  H    0.425996
    15  Br   0.234654
 Sum of Mulliken charges =   1.00000

 Dipole moment (field-independent basis, Debye):
    X=             -1.1136    Y=             -3.0941    Z=             -0.3543  Tot=              3.3075
 Quadrupole moment (field-independent basis, Debye-Ang):
   XX=            -71.7045   YY=            -50.9751   ZZ=            -61.9089
   XY=             -1.4898   XZ=              1.3942   YZ=              2.8111

 Normal termination of Gaussian 16 at Wed May  1 15:07:48 2024.
