 Gaussian 16, Revision C.01,
 Gaussian 16:  ES64L-G16RevC.01  3-Jul-2019

 ----------------------------------------
 #P wB97XD/6-311+G* NoSymm #P Field=X+214
 ----------------------------------------

 -------
 TitleMe
 -------
 Symbolic Z-matrix:
 Charge =  1 Multiplicity = 1

                          Input orientation:
 ---------------------------------------------------------------------
 Center     Atomic      Atomic             Coordinates (Angstroms)
 Number     Number       Type             X           Y           Z
 ---------------------------------------------------------------------
      1          6           0        0.519300    1.233000   -0.031900
      2          6           0        1.944500    1.269200   -0.036700
      3          6           0        2.620400    0.092800   -0.025000
      4          6           0       -0.196000    0.030100    0.001000
      5          1           0       -0.020700    2.174200   -0.043400
      6          1           0        2.482800    2.208900   -0.036100
      7          1           0       -1.277700    0.039900    0.011700
      8          7           0        4.092100    0.095900    0.036600
      9          8           0        4.639300   -1.021700    0.144600
     10          8           0        4.664900    1.198400   -0.023300
     11          6           0        0.494300   -1.167100    0.021000
     12          1           0       -0.032500   -2.114900    0.054500
     13          6           0        1.962900   -1.216500   -0.021100
     14          1           0        2.443600   -1.963100    0.615100
     15         35           0        2.173000   -1.949100   -1.906200
 ---------------------------------------------------------------------

 SCF Done:  E(RwB97XD) =  -3010.53419085     A.U. after   19 cycles

 Alpha  occ. eigenvalues -- -483.38691 -62.93726 -56.73404 -56.72855 -56.72846
 Alpha  occ. eigenvalues --  -19.59628 -19.59504 -14.98642 -10.67025 -10.65738
 Alpha  occ. eigenvalues --  -10.63331 -10.62496 -10.61964 -10.57651  -9.09541
 Alpha  occ. eigenvalues --   -6.92180  -6.90374  -6.90347  -3.02093  -3.01617
 Alpha  occ. eigenvalues --   -3.01594  -3.00149  -3.00148  -1.63178  -1.46271
 Alpha  occ. eigenvalues --   -1.30019  -1.20709  -1.19711  -1.12431  -1.08706
 Alpha  occ. eigenvalues --   -1.02159  -0.98812  -0.95609  -0.93095  -0.91554
 Alpha  occ. eigenvalues --   -0.88159  -0.85719  -0.83910  -0.83041  -0.79020
 Alpha  occ. eigenvalues --   -0.73989  -0.73680  -0.70943  -0.70862  -0.69804
 Alpha  occ. eigenvalues --   -0.69558  -0.66810  -0.64050  -0.62255
 Alpha virt. eigenvalues --   -0.37693  -0.31056  -0.23264  -0.20841  -0.19464
 Alpha virt. eigenvalues --   -0.16383  -0.15151  -0.14632  -0.13172  -0.10692
 Alpha virt. eigenvalues --   -0.10205  -0.09740  -0.09455  -0.07986  -0.07043

 Mulliken charges:
               1
     1  C   -0.140681
     2  C    0.169582
     3  C   -0.178219
     4  C   -0.299013
     5  H    0.398171
     6  H    0.325192
     7  H    0.424820
     8  N   -0.237144
     9  O    0.004261
    10  O   -0.034139
    11  C   -0.144261
    12  H    0.408785
    13  C   -0.228263
    14  H    0.385821
    15  Br   0.145089
 Sum of Mulliken charges =   1.00000

 Dipole moment (field-independent basis, Debye):
    X=             -3.3686    Y=             -0.6107    Z=             -0.4694  Tot=              3.4555
 Quadrupole moment (field-independent basis, Debye-Ang):
   XX=            -92.7817   YY=            -51.6138   ZZ=            -62.8672
   XY=             -1.4097   XZ=             -0.8988   YZ=              1.7876

 Normal termination of Gaussian 16 at Thu May  2 14:18:13 2024.
