 Gaussian 16, Revision A.03,
 Gaussian 16:  ES64L-G16RevA.03 25-Dec-2016

 --------------------------------------------------------------------
 #p B3LYP/6-311+G** #p TD=(singlets,nstates=30)IOp(6/8=3) IOp(9/40=4)
 --------------------------------------------------------------------

 ---------------------------------------------
 Scan Step 122, Bond Length 1.1099999999999999
 ---------------------------------------------
 Symbolic Z-matrix:
 Charge =  0 Multiplicity = 1

                         Standard orientation:
 ---------------------------------------------------------------------
 Center     Atomic      Atomic             Coordinates (Angstroms)
 Number     Number       Type             X           Y           Z
 ---------------------------------------------------------------------
      1          6           0        0.000000   -0.000000   -0.481081
      2          1           0        0.000000    0.937260   -1.072431
      3          1           0       -0.000000   -0.937260   -1.072431
      4          8           0        0.000000    0.000000    0.628919
 ---------------------------------------------------------------------

 SCF Done:  E(RB3LYP) =  -114.525588728     A.U. after    9 cycles

 Excitation energies and oscillator strengths:

 Excited State   1:      Singlet-A2     4.5018 eV  275.41 nm  f=0.0000  <S**2>=0.000
       3 -> 27         0.00279
       3 -> 38         0.00236
       3 -> 45         0.00213
       4 -> 27         0.00242
       4 -> 38        -0.00068
       4 -> 45        -0.00115
       5 ->  9         0.02067
       5 -> 13        -0.00578
       5 -> 17         0.00606
       5 -> 23        -0.00146
       5 -> 29         0.00409
       5 -> 31         0.00285
       5 -> 36         0.00387
       5 -> 44         0.00068
       5 -> 47         0.00014
       5 -> 52         0.00084
       6 -> 27         0.00023
       6 -> 38        -0.00072
       6 -> 45         0.00172
       7 -> 12        -0.00062
       7 -> 16         0.00219
       7 -> 18        -0.00224
       7 -> 22         0.00122
       7 -> 24         0.00133
       7 -> 30        -0.00079
       7 -> 34         0.00039
       7 -> 35         0.00041
       7 -> 40        -0.00037
       7 -> 48         0.00052
       7 -> 51         0.00024
       7 -> 53         0.00043
       8 ->  9         0.70361
       8 -> 13        -0.06407
       8 -> 17         0.02427
       8 -> 23        -0.01163
       8 -> 29         0.00777
       8 -> 31         0.00330
       8 -> 36        -0.00084
       8 -> 44        -0.00020
       8 -> 47        -0.00021
       8 -> 52         0.00149
       3 <- 27         0.00189
       3 <- 38         0.00199
       3 <- 45         0.00222
       4 <- 27         0.00323
       4 <- 38        -0.00010
       4 <- 45        -0.00101
       5 <-  9        -0.00012
       5 <- 13        -0.00090
       5 <- 17        -0.00081
       5 <- 23         0.00054
       5 <- 29        -0.00053
       5 <- 31        -0.00105
       5 <- 36         0.00177
       5 <- 44         0.00033
       5 <- 47         0.00017
       5 <- 52         0.00022
       6 <- 27         0.00071
       6 <- 38        -0.00067
       6 <- 45         0.00133
       7 <- 12        -0.00093
       7 <- 16        -0.00601
       7 <- 18        -0.00076
       7 <- 22         0.00688
       7 <- 24        -0.00055
       7 <- 30         0.00273
       7 <- 34        -0.00133
       7 <- 35         0.00254
       7 <- 40        -0.00101
       7 <- 42         0.00028
       7 <- 48         0.00035
       7 <- 51         0.00012
       7 <- 53         0.00116
       8 <-  9        -0.01945
       8 <- 13         0.00440
       8 <- 17        -0.00395
       8 <- 23         0.00077
       8 <- 29        -0.00064
       8 <- 31         0.00139
       8 <- 36        -0.00183
       8 <- 52         0.00044
 This state for optimization and/or second-order correction.
 Total Energy, E(TD-HF/TD-DFT) =  -114.360150256
 Copying the excited state density for this state as the 1-particle RhoCI density.

 Excited State   2:      Singlet-B2     6.6844 eV  185.48 nm  f=0.0461  <S**2>=0.000
       3 -> 12         0.00129
       3 -> 16         0.00066
       3 -> 18         0.00112
       3 -> 22        -0.00026
       3 -> 24         0.00131
       3 -> 30        -0.00011
       3 -> 34         0.00012
       3 -> 35        -0.00029
       4 -> 12        -0.00406
       4 -> 16         0.00133
       4 -> 18         0.00230
       4 -> 22        -0.00335
       4 -> 24         0.00369
       4 -> 34        -0.00071
       4 -> 35         0.00077
       4 -> 40        -0.00050
       5 -> 10        -0.00398
       5 -> 11        -0.00931
       5 -> 14         0.00687
       5 -> 15        -0.00115
       5 -> 19         0.00235
       5 -> 20         0.00067
       5 -> 21         0.00503
       5 -> 26         0.00257
       5 -> 28         0.00189
       5 -> 32         0.00017
       5 -> 33        -0.00100
       5 -> 37        -0.00032
       5 -> 39        -0.00031
       5 -> 41        -0.00015
       5 -> 43        -0.00056
       5 -> 46        -0.00049
       5 -> 49         0.00013
       6 -> 12         0.00093
       6 -> 16         0.00126
       6 -> 18         0.00320
       6 -> 22        -0.00271
       6 -> 24         0.00154
       6 -> 30        -0.00038
       6 -> 34        -0.00016
       6 -> 35         0.00015
       6 -> 40         0.00021
       6 -> 42        -0.00025
       6 -> 48         0.00040
       6 -> 51        -0.00046
       7 -> 27         0.00039
       7 -> 38        -0.00036
       7 -> 45         0.00064
       8 -> 10         0.70436
       8 -> 11        -0.05683
       8 -> 14         0.00508
       8 -> 15        -0.00860
       8 -> 19         0.01621
       8 -> 20         0.01142
       8 -> 21        -0.00438
       8 -> 25         0.00064
       8 -> 26         0.00166
       8 -> 28         0.00059
       8 -> 33         0.00216
       8 -> 37         0.00049
       8 -> 39         0.00048
       8 -> 41        -0.00015
       8 -> 43         0.00068
       8 -> 46        -0.00081
       8 -> 54         0.00017
       3 <- 12         0.00034
       3 <- 16         0.00052
       3 <- 18         0.00046
       3 <- 22        -0.00037
       3 <- 24         0.00083
       3 <- 30        -0.00011
       3 <- 34         0.00010
       3 <- 35        -0.00028
       4 <- 12         0.00062
       4 <- 16         0.00167
       4 <- 18         0.00233
       4 <- 22        -0.00204
       4 <- 24         0.00260
       4 <- 34        -0.00047
       4 <- 35         0.00049
       4 <- 40        -0.00020
       4 <- 42        -0.00019
       4 <- 48        -0.00011
       5 <- 10         0.00246
       5 <- 11        -0.00022
       5 <- 14         0.00496
       5 <- 15        -0.00105
       5 <- 19         0.00055
       5 <- 20         0.00048
       5 <- 21         0.00230
       5 <- 25         0.00170
       5 <- 26         0.00157
       5 <- 28         0.00047
       5 <- 33        -0.00097
       5 <- 37        -0.00035
       5 <- 39        -0.00017
       5 <- 43        -0.00040
       5 <- 46        -0.00042
       5 <- 49         0.00012
       6 <- 12         0.00029
       6 <- 16        -0.00013
       6 <- 18         0.00154
       6 <- 22        -0.00091
       6 <- 24         0.00057
       6 <- 30         0.00035
       6 <- 34        -0.00022
       6 <- 35         0.00031
       6 <- 40         0.00020
       6 <- 42        -0.00024
       6 <- 48         0.00034
       6 <- 51        -0.00047
       6 <- 53         0.00012
       7 <- 27         0.00030
       7 <- 38        -0.00027
       7 <- 45         0.00055
       8 <- 10        -0.00241
       8 <- 11        -0.00066
       8 <- 14        -0.00744
       8 <- 19        -0.00040
       8 <- 20        -0.00042
       8 <- 21        -0.00272
       8 <- 25        -0.00271
       8 <- 26        -0.00019
       8 <- 28        -0.00070
       8 <- 32        -0.00074
       8 <- 33         0.00122
       8 <- 37         0.00048
       8 <- 39         0.00039
       8 <- 43         0.00050
       8 <- 46        -0.00055
       8 <- 50        -0.00013

 Excited State   3:      Singlet-B2     7.4799 eV  165.76 nm  f=0.0222  <S**2>=0.000
       3 -> 12        -0.00024
       3 -> 16        -0.00067
       3 -> 18         0.00063
       3 -> 22         0.00030
       3 -> 24         0.00027
       3 -> 30         0.00169
       3 -> 34         0.00013
       3 -> 35        -0.00037
       3 -> 40         0.00035
       3 -> 42        -0.00013
       3 -> 48         0.00031
       3 -> 51        -0.00027
       4 -> 12         0.00304
       4 -> 16        -0.00061
       4 -> 18         0.00306
       4 -> 22        -0.00153
       4 -> 24         0.00322
       4 -> 30        -0.00110
       4 -> 34         0.00053
       4 -> 35        -0.00045
       4 -> 42        -0.00018
       4 -> 48         0.00021
       4 -> 51        -0.00014
       5 -> 10        -0.00764
       5 -> 11         0.00023
       5 -> 14         0.00661
       5 -> 15        -0.00685
       5 -> 19        -0.00356
       5 -> 20        -0.00340
       5 -> 21         0.00102
       5 -> 25         0.00141
       5 -> 26        -0.00015
       5 -> 28         0.00155
       5 -> 32        -0.00047
       5 -> 33        -0.00149
       5 -> 37        -0.00013
       5 -> 39         0.00043
       5 -> 41        -0.00083
       5 -> 46         0.00082
       5 -> 49        -0.00010
       5 -> 50         0.00043
       6 -> 12        -0.00323
       6 -> 16        -0.00190
       6 -> 18        -0.00129
       6 -> 22         0.00144
       6 -> 30         0.00069
       6 -> 34        -0.00047
       6 -> 35         0.00147
       6 -> 40        -0.00094
       6 -> 42         0.00016
       6 -> 48        -0.00088
       6 -> 51         0.00064
       6 -> 53         0.00012
       7 -> 27        -0.00033
       7 -> 38        -0.00109
       7 -> 45        -0.00152
       8 -> 10         0.05744
       8 -> 11         0.70385
       8 -> 14        -0.01035
       8 -> 15         0.01491
       8 -> 19        -0.02565
       8 -> 20         0.01100
       8 -> 21        -0.00225
       8 -> 25         0.00058
       8 -> 26        -0.00163
       8 -> 28        -0.00025
       8 -> 32        -0.00038
       8 -> 41        -0.00136
       8 -> 43         0.00018
       8 -> 46         0.00143
       8 -> 49        -0.00026
       8 -> 50         0.00084
       8 -> 54        -0.00016
       3 <- 12         0.00033
       3 <- 16        -0.00025
       3 <- 18         0.00080
       3 <- 24         0.00038
       3 <- 30         0.00101
       3 <- 34         0.00022
       3 <- 35        -0.00043
       3 <- 40         0.00031
       3 <- 42        -0.00012
       3 <- 48         0.00025
       3 <- 51        -0.00017
       3 <- 53        -0.00024
       4 <- 12         0.00035
       4 <- 16         0.00058
       4 <- 18         0.00083
       4 <- 22        -0.00117
       4 <- 24         0.00133
       4 <- 30        -0.00049
       4 <- 34         0.00048
       4 <- 42        -0.00019
       4 <- 48         0.00014
       4 <- 51        -0.00019
       5 <- 10         0.00130
       5 <- 11        -0.00092
       5 <- 14         0.00234
       5 <- 15        -0.00044
       5 <- 19         0.00083
       5 <- 20        -0.00025
       5 <- 21         0.00084
       5 <- 25         0.00120
       5 <- 26        -0.00042
       5 <- 28         0.00077
       5 <- 32         0.00083
       5 <- 33        -0.00086
       5 <- 37         0.00018
       5 <- 39         0.00017
       5 <- 41        -0.00085
       5 <- 46         0.00076
       5 <- 50         0.00036
       6 <- 12        -0.00034
       6 <- 16        -0.00037
       6 <- 18        -0.00012
       6 <- 22         0.00053
       6 <- 30         0.00034
       6 <- 34        -0.00028
       6 <- 35         0.00112
       6 <- 40        -0.00069
       6 <- 42         0.00011
       6 <- 48        -0.00073
       6 <- 51         0.00053
       7 <- 38        -0.00087
       7 <- 45        -0.00129
       8 <- 10        -0.00076
       8 <- 14        -0.00413
       8 <- 15         0.00056
       8 <- 19         0.00325
       8 <- 20        -0.00132
       8 <- 21        -0.00209
       8 <- 25         0.00016
       8 <- 26        -0.00163
       8 <- 28        -0.00021
       8 <- 32         0.00127
       8 <- 33         0.00067
       8 <- 37        -0.00011
       8 <- 39        -0.00034
       8 <- 41        -0.00116
       8 <- 46         0.00115
       8 <- 50         0.00061

 Excited State   4:      Singlet-A1     7.6383 eV  162.32 nm  f=0.0536  <S**2>=0.000
       3 -> 10         0.00173
       3 -> 11        -0.00099
       3 -> 14         0.00064
       3 -> 15        -0.00029
       3 -> 19         0.00064
       3 -> 20         0.00133
       3 -> 21         0.00050
       3 -> 25        -0.00039
       3 -> 26         0.00097
       3 -> 28         0.00113
       3 -> 32        -0.00022
       3 -> 33        -0.00046
       3 -> 37        -0.00027
       3 -> 39         0.00011
       3 -> 41        -0.00021
       3 -> 46         0.00010
       3 -> 49         0.00018
       3 -> 50         0.00033
       3 -> 54        -0.00021
       4 -> 10         0.00518
       4 -> 11         0.00718
       4 -> 14         0.00546
       4 -> 19         0.00041
       4 -> 20         0.00500
       4 -> 21         0.00186
       4 -> 25         0.00720
       4 -> 26         0.00118
       4 -> 28        -0.00045
       4 -> 32         0.00049
       4 -> 33        -0.00052
       4 -> 39        -0.00021
       4 -> 41         0.00016
       4 -> 43         0.00015
       4 -> 46        -0.00023
       4 -> 49        -0.00014
       4 -> 50         0.00013
       5 -> 12         0.00720
       5 -> 16         0.00083
       5 -> 18         0.01139
       5 -> 22        -0.00155
       5 -> 24         0.00521
       5 -> 34        -0.00015
       5 -> 35         0.00081
       5 -> 51         0.00030
       5 -> 53        -0.00015
       6 -> 10         0.01305
       6 -> 11        -0.00353
       6 -> 14         0.00434
       6 -> 15         0.00142
       6 -> 19         0.00391
       6 -> 20         0.00448
       6 -> 21         0.00158
       6 -> 25         0.00283
       6 -> 26         0.00036
       6 -> 28        -0.00136
       6 -> 32         0.00062
       6 -> 33        -0.00023
       6 -> 43         0.00012
       6 -> 49        -0.00053
       6 -> 50        -0.00038
       7 ->  9         0.01379
       7 -> 13         0.00870
       7 -> 17         0.00386
       7 -> 23         0.00519
       7 -> 29        -0.00023
       7 -> 31         0.00085
       7 -> 36         0.00056
       7 -> 44         0.00066
       7 -> 47        -0.00035
       7 -> 52        -0.00011
       8 -> 12         0.70574
       8 -> 16        -0.01641
       8 -> 18         0.02929
       8 -> 22         0.00508
       8 -> 24         0.00274
       8 -> 30         0.00104
       8 -> 34         0.00153
       8 -> 35        -0.00208
       8 -> 40        -0.00073
       8 -> 42         0.00041
       8 -> 48        -0.00037
       8 -> 51         0.00030
       8 -> 53        -0.00021
       3 <- 10         0.00060
       3 <- 11        -0.00015
       3 <- 14         0.00037
       3 <- 19         0.00022
       3 <- 20         0.00061
       3 <- 21         0.00040
       3 <- 26         0.00058
       3 <- 28         0.00073
       3 <- 32        -0.00025
       3 <- 33        -0.00027
       3 <- 37        -0.00021
       3 <- 41        -0.00016
       3 <- 46         0.00019
       3 <- 49         0.00014
       3 <- 50         0.00029
       3 <- 54        -0.00019
       4 <- 10         0.00470
       4 <- 11         0.00189
       4 <- 14         0.00400
       4 <- 15        -0.00044
       4 <- 19         0.00028
       4 <- 20         0.00284
       4 <- 21         0.00074
       4 <- 25         0.00401
       4 <- 26         0.00074
       4 <- 32         0.00040
       4 <- 33        -0.00089
       4 <- 39        -0.00026
       4 <- 46        -0.00021
       4 <- 49        -0.00011
       4 <- 50         0.00013
       5 <- 12         0.00277
       5 <- 16         0.00197
       5 <- 18         0.00407
       5 <- 22        -0.00045
       5 <- 24         0.00282
       5 <- 34        -0.00034
       5 <- 35         0.00074
       5 <- 40         0.00010
       5 <- 51         0.00020
       5 <- 53        -0.00013
       6 <- 10         0.00350
       6 <- 11        -0.00035
       6 <- 14         0.00177
       6 <- 15         0.00045
       6 <- 19         0.00131
       6 <- 20         0.00220
       6 <- 21         0.00057
       6 <- 25         0.00146
       6 <- 26         0.00046
       6 <- 28        -0.00082
       6 <- 32         0.00046
       6 <- 33        -0.00029
       6 <- 41         0.00014
       6 <- 49        -0.00041
       6 <- 50        -0.00039
       7 <-  9         0.00153
       7 <- 13         0.00227
       7 <- 17         0.00119
       7 <- 23         0.00270
       7 <- 29        -0.00023
       7 <- 31         0.00060
       7 <- 36         0.00045
       7 <- 44         0.00054
       7 <- 47        -0.00030
       8 <- 12        -0.00146
       8 <- 16        -0.00719
       8 <- 18        -0.00258
       8 <- 22         0.00080
       8 <- 24        -0.00210
       8 <- 34         0.00078
       8 <- 35        -0.00108
       8 <- 40        -0.00067
       8 <- 42         0.00035
       8 <- 48        -0.00042
       8 <- 51         0.00024
       8 <- 53        -0.00022

 Excited State   5:      Singlet-A2     8.1404 eV  152.31 nm  f=0.0000  <S**2>=0.000
       3 -> 27        -0.00062
       3 -> 38        -0.00055
       3 -> 45        -0.00032
       4 -> 27         0.00017
       4 -> 38         0.00054
       5 ->  9        -0.00871
       5 -> 13        -0.00208
       5 -> 17         0.00611
       5 -> 23        -0.00151
       5 -> 31        -0.00170
       5 -> 36        -0.00117
       5 -> 44        -0.00022
       5 -> 52        -0.00012
       6 -> 27         0.00022
       6 -> 38         0.00029
       6 -> 45        -0.00033
       7 -> 12        -0.00050
       7 -> 16        -0.00181
       7 -> 18         0.00189
       7 -> 22        -0.00070
       7 -> 24        -0.00014
       7 -> 35        -0.00016
       7 -> 40         0.00013
       7 -> 48        -0.00012
       8 ->  9         0.06399
       8 -> 13         0.70371
       8 -> 17         0.01533
       8 -> 23         0.01832
       8 -> 31        -0.00137
       8 -> 36        -0.00018
       8 -> 47         0.00018
       8 -> 52        -0.00017
       3 <- 27        -0.00023
       3 <- 38        -0.00039
       3 <- 45        -0.00041
       4 <- 27        -0.00021
       5 <-  9        -0.00026
       5 <- 13        -0.00030
       5 <- 17         0.00059
       5 <- 36        -0.00026
       6 <- 38         0.00021
       7 <- 12        -0.00066
       7 <- 16        -0.00084
       7 <- 18         0.00068
       7 <- 22        -0.00119
       7 <- 24        -0.00037
       7 <- 30         0.00019
       7 <- 34         0.00044
       7 <- 35        -0.00072
       7 <- 40         0.00040
       7 <- 42        -0.00016
       7 <- 53        -0.00013
       8 <-  9         0.00270
       8 <- 13         0.00142
       8 <- 17         0.00023
       8 <- 23        -0.00023
       8 <- 31        -0.00013
       8 <- 36         0.00021

 Excited State   6:      Singlet-B1    10.2373 eV  121.11 nm  f=0.0004  <S**2>=0.000
       3 ->  9        -0.03023
       3 -> 13         0.00826
       3 -> 17        -0.00780
       3 -> 23         0.00546
       3 -> 29        -0.00345
       3 -> 31        -0.00049
       3 -> 36        -0.00017
       3 -> 44         0.00080
       3 -> 47        -0.00026
       3 -> 52         0.00108
       4 ->  9         0.01642
       4 -> 13        -0.00289
       4 -> 17         0.00104

 The electronic state is 1-A1.
 Alpha  occ. eigenvalues --  -19.14518 -10.26357  -1.12997  -0.63090  -0.52486
 Alpha  occ. eigenvalues --   -0.47858  -0.44705  -0.27386
 Alpha virt. eigenvalues --   -0.03910   0.01044   0.04109   0.04319   0.06748
 Alpha virt. eigenvalues --    0.13352   0.18334   0.18887   0.22017   0.22854
 Alpha virt. eigenvalues --    0.27198   0.34597   0.47768   0.48405   0.51079

 Mulliken charges:
               1
     1  C    0.049255
     2  H    0.084681
     3  H    0.084681
     4  O   -0.218616
 Sum of Mulliken charges =   0.00000

 Dipole moment (field-independent basis, Debye):
    X=             -0.0000    Y=             -0.0000    Z=             -2.0045  Tot=              2.0045
 Quadrupole moment (field-independent basis, Debye-Ang):
   XX=            -11.4655   YY=            -11.8087   ZZ=            -12.6797
   XY=              0.0000   XZ=              0.0000   YZ=              0.0000

 Normal termination of Gaussian 16 at Fri Sep 17 10:52:39 2021.
