 Gaussian 16, Revision C.01,
 Gaussian 16:  ES64L-G16RevC.01  3-Jul-2019

 ----------------------------------------
 #P wB97XD/6-311+G* NoSymm #P Field=Y+194
 ----------------------------------------

 -------
 TitleMe
 -------
 Symbolic Z-matrix:
 Charge =  1 Multiplicity = 1

                          Input orientation:
 ---------------------------------------------------------------------
 Center     Atomic      Atomic             Coordinates (Angstroms)
 Number     Number       Type             X           Y           Z
 ---------------------------------------------------------------------
      1          6           0        0.029500    1.339700    0.068200
      2          6           0        1.434800    1.286700    0.006400
      3          6           0        2.111800    0.051100   -0.005400
      4          6           0        1.445100   -1.137200    0.031200
      5          6           0       -0.687900    0.168200    0.110000
      6          1           0       -0.471300    2.298400    0.078100
      7          1           0        2.027300    2.196500   -0.032200
      8          1           0        1.989700   -2.076400    0.023200
      9          1           0       -1.771600    0.180400    0.158200
     10          7           0        3.586400    0.051000   -0.067500
     11          8           0        4.147100   -1.059700   -0.088100
     12          8           0        4.145000    1.163900   -0.090100
     13          6           0       -0.023600   -1.145800    0.083500
     14          1           0       -0.436700   -1.872500    0.788900
     15         35           0       -0.535900   -1.869700   -1.740800
 ---------------------------------------------------------------------

 SCF Done:  E(RwB97XD) =  -3010.56121026     A.U. after   20 cycles

 Alpha  occ. eigenvalues -- -483.28374 -62.83353 -56.63084 -56.62463 -56.62457
 Alpha  occ. eigenvalues --  -19.45482 -19.45250 -14.84782 -10.57537 -10.56336
 Alpha  occ. eigenvalues --  -10.56242 -10.55612 -10.55517 -10.53612  -8.99125
 Alpha  occ. eigenvalues --   -6.81902  -6.79876  -6.79851  -2.91781  -2.91248
 Alpha  occ. eigenvalues --   -2.91227  -2.89608  -2.89607  -1.49108  -1.32101
 Alpha  occ. eigenvalues --   -1.21707  -1.12691  -1.11166  -1.02062  -1.00417
 Alpha  occ. eigenvalues --   -0.94440  -0.90205  -0.84966  -0.80344  -0.79838
 Alpha  occ. eigenvalues --   -0.79374  -0.77614  -0.75445  -0.74934  -0.71242
 Alpha  occ. eigenvalues --   -0.68422  -0.66797  -0.62563  -0.58838  -0.56732
 Alpha  occ. eigenvalues --   -0.55678  -0.54946  -0.52775  -0.52375
 Alpha virt. eigenvalues --   -0.28448  -0.20446  -0.16521  -0.14838  -0.12346
 Alpha virt. eigenvalues --   -0.11547  -0.07946  -0.07606  -0.06222  -0.03885
 Alpha virt. eigenvalues --   -0.03048  -0.01994  -0.01066  -0.00231  -0.00066

 Mulliken charges:
               1
     1  C   -0.608249
     2  C    0.636528
     3  C   -0.833859
     4  C    0.380610
     5  C   -0.079496
     6  H    0.247385
     7  H    0.290445
     8  H    0.434178
     9  H    0.345972
    10  N   -0.101484
    11  O    0.130711
    12  O   -0.080294
    13  C   -0.526251
    14  H    0.452370
    15  Br   0.311434
 Sum of Mulliken charges =   1.00000

 Dipole moment (field-independent basis, Debye):
    X=             -1.4446    Y=             -6.2135    Z=             -0.7864  Tot=              6.4275
 Quadrupole moment (field-independent basis, Debye-Ang):
   XX=            -72.2226   YY=            -49.9774   ZZ=            -61.0715
   XY=             -4.9145   XZ=              1.7492   YZ=              4.2540

 Normal termination of Gaussian 16 at Wed May  1 15:10:33 2024.
