 Gaussian 16, Revision C.01,
 Gaussian 16:  ES64L-G16RevC.01  3-Jul-2019

 ----------------------------------------
 #P wB97XD/6-311+G* NoSymm #P Field=Y-126
 ----------------------------------------

 -------
 TitleMe
 -------
 Symbolic Z-matrix:
 Charge =  1 Multiplicity = 1

                          Input orientation:
 ---------------------------------------------------------------------
 Center     Atomic      Atomic             Coordinates (Angstroms)
 Number     Number       Type             X           Y           Z
 ---------------------------------------------------------------------
      1          6           0        0.519300    1.233000   -0.031900
      2          6           0        1.944500    1.269200   -0.036700
      3          6           0        2.620400    0.092800   -0.025000
      4          6           0       -0.196000    0.030100    0.001000
      5          1           0       -0.020700    2.174200   -0.043400
      6          1           0        2.482800    2.208900   -0.036100
      7          1           0       -1.277700    0.039900    0.011700
      8          7           0        4.092100    0.095900    0.036600
      9          8           0        4.639300   -1.021700    0.144600
     10          8           0        4.664900    1.198400   -0.023300
     11          6           0        0.494300   -1.167100    0.021000
     12          1           0       -0.032500   -2.114900    0.054500
     13          6           0        1.962900   -1.216500   -0.021100
     14          1           0        2.443600   -1.963100    0.615100
     15         35           0        2.173000   -1.949100   -1.906200
 ---------------------------------------------------------------------

 SCF Done:  E(RwB97XD) =  -3010.53658310     A.U. after   21 cycles

 Alpha  occ. eigenvalues -- -483.33067 -62.88111 -56.67777 -56.67242 -56.67239
 Alpha  occ. eigenvalues --  -19.46476 -19.46231 -14.85761 -10.59764 -10.59488
 Alpha  occ. eigenvalues --  -10.58188 -10.57123 -10.53316 -10.53145  -9.03932
 Alpha  occ. eigenvalues --   -6.86539  -6.84774  -6.84767  -2.96460  -2.95989
 Alpha  occ. eigenvalues --   -2.95981  -2.94570  -2.94569  -1.50027  -1.32984
 Alpha  occ. eigenvalues --   -1.23168  -1.13660  -1.13025  -1.05990  -1.00944
 Alpha  occ. eigenvalues --   -0.95975  -0.91028  -0.85402  -0.81234  -0.80708
 Alpha  occ. eigenvalues --   -0.80257  -0.78506  -0.76348  -0.76090  -0.72824
 Alpha  occ. eigenvalues --   -0.69009  -0.67760  -0.63955  -0.61028  -0.58611
 Alpha  occ. eigenvalues --   -0.57677  -0.57099  -0.55996  -0.55530
 Alpha virt. eigenvalues --   -0.30873  -0.20577  -0.17188  -0.13955  -0.12810
 Alpha virt. eigenvalues --   -0.09527  -0.08863  -0.06806  -0.05337  -0.04579
 Alpha virt. eigenvalues --   -0.04068  -0.03453  -0.02935  -0.02400  -0.01331

 Mulliken charges:
               1
     1  C   -0.116962
     2  C    0.201762
     3  C   -0.053898
     4  C   -0.302268
     5  H    0.395808
     6  H    0.396158
     7  H    0.334544
     8  N   -0.235644
     9  O    0.019813
    10  O    0.142618
    11  C   -0.208585
    12  H    0.309557
    13  C   -0.353944
    14  H    0.380258
    15  Br   0.090782
 Sum of Mulliken charges =   1.00000

 Dipole moment (field-independent basis, Debye):
    X=              2.5938    Y=              2.7960    Z=             -0.2550  Tot=              3.8224
 Quadrupole moment (field-independent basis, Debye-Ang):
   XX=            -68.0443   YY=            -53.2745   ZZ=            -63.5531
   XY=              4.7396   XZ=             -1.4808   YZ=              0.5001

 Normal termination of Gaussian 16 at Thu May  2 14:20:15 2024.
