 Gaussian 16, Revision A.03,
 Gaussian 16:  ES64L-G16RevA.03 25-Dec-2016

 --------------------------------------------------------------------
 #p B3LYP/6-311+G** #p TD=(singlets,nstates=30)IOp(6/8=3) IOp(9/40=4)
 --------------------------------------------------------------------

 ---------------------------------------------
 Scan Step 157, Bond Length 1.2850000000000001
 ---------------------------------------------
 Symbolic Z-matrix:
 Charge =  0 Multiplicity = 1

                         Standard orientation:
 ---------------------------------------------------------------------
 Center     Atomic      Atomic             Coordinates (Angstroms)
 Number     Number       Type             X           Y           Z
 ---------------------------------------------------------------------
      1          6           0        0.000000   -0.000000   -0.568581
      2          1           0        0.000000    0.937260   -1.159931
      3          1           0       -0.000000   -0.937260   -1.159931
      4          8           0        0.000000    0.000000    0.716419
 ---------------------------------------------------------------------

 SCF Done:  E(RB3LYP) =  -114.532605521     A.U. after    9 cycles

 Excitation energies and oscillator strengths:

 Excited State   1:      Singlet-A2     3.4806 eV  356.22 nm  f=0.0000  <S**2>=0.000
       3 -> 27         0.00221
       3 -> 38         0.00185
       3 -> 45         0.00271
       4 -> 27         0.00160
       4 -> 38        -0.00046
       4 -> 45        -0.00137
       5 ->  9         0.01936
       5 -> 13        -0.00174
       5 -> 17         0.00518
       5 -> 23         0.00049
       5 -> 29         0.00431
       5 -> 31        -0.00168
       5 -> 37         0.00301
       5 -> 44         0.00056
       5 -> 48         0.00014
       5 -> 52         0.00069
       6 -> 27        -0.00030
       6 -> 38        -0.00087
       6 -> 45         0.00176
       7 -> 12        -0.00062
       7 -> 15         0.00327
       7 -> 18        -0.00307
       7 -> 22         0.00035
       7 -> 25         0.00140
       7 -> 30        -0.00102
       7 -> 33         0.00045
       7 -> 35         0.00018
       7 -> 40         0.00017
       7 -> 42        -0.00012
       7 -> 49         0.00025
       7 -> 50         0.00032
       7 -> 53         0.00048
       8 ->  9         0.70615
       8 -> 13        -0.03399
       8 -> 17         0.02264
       8 -> 23        -0.00899
       8 -> 29         0.00988
       8 -> 31        -0.00178
       8 -> 37         0.00022
       8 -> 48        -0.00027
       8 -> 52         0.00178
       3 <- 27         0.00138
       3 <- 38         0.00151
       3 <- 45         0.00280
       4 <- 27         0.00239
       4 <- 38         0.00011
       4 <- 45        -0.00115
       5 <-  9        -0.00053
       5 <- 13        -0.00078
       5 <- 17        -0.00101
       5 <- 23         0.00050
       5 <- 29        -0.00071
       5 <- 31         0.00076
       5 <- 37         0.00148
       5 <- 44         0.00022
       5 <- 48         0.00014
       5 <- 52         0.00018
       6 <- 27         0.00030
       6 <- 38        -0.00077
       6 <- 45         0.00137
       7 <- 12        -0.00063
       7 <- 15        -0.00793
       7 <- 18         0.00093
       7 <- 22         0.00745
       7 <- 30         0.00388
       7 <- 33        -0.00122
       7 <- 35         0.00217
       7 <- 40         0.00091
       7 <- 50         0.00022
       7 <- 53         0.00134
       8 <-  9        -0.02807
       8 <- 13         0.00239
       8 <- 17        -0.00472
       8 <- 23         0.00076
       8 <- 29        -0.00125
       8 <- 31        -0.00064
       8 <- 37        -0.00121
       8 <- 52         0.00050
 This state for optimization and/or second-order correction.
 Total Energy, E(TD-HF/TD-DFT) =  -114.404696297
 Copying the excited state density for this state as the 1-particle RhoCI density.

 Excited State   2:      Singlet-B2     6.9327 eV  178.84 nm  f=0.0209  <S**2>=0.000
       3 -> 12         0.00163
       3 -> 15         0.00067
       3 -> 18         0.00126
       3 -> 22        -0.00033
       3 -> 25         0.00122
       3 -> 33         0.00024
       3 -> 35        -0.00049
       3 -> 40        -0.00019
       3 -> 49         0.00012
       4 -> 12        -0.00262
       4 -> 15         0.00201
       4 -> 18         0.00188
       4 -> 22        -0.00324
       4 -> 25         0.00313
       4 -> 30         0.00034
       4 -> 33        -0.00035
       4 -> 35         0.00047
       4 -> 40         0.00044
       4 -> 42        -0.00013
       5 -> 10        -0.00801
       5 -> 11        -0.00732
       5 -> 14         0.00706
       5 -> 16        -0.00067
       5 -> 19        -0.00209
       5 -> 20         0.00277
       5 -> 21         0.00581
       5 -> 24        -0.00051
       5 -> 26         0.00217
       5 -> 28         0.00101
       5 -> 32        -0.00105
       5 -> 34        -0.00099
       5 -> 36        -0.00018
       5 -> 39        -0.00025
       5 -> 41        -0.00046
       5 -> 43        -0.00049
       5 -> 46        -0.00022
       5 -> 54         0.00012
       6 -> 12        -0.00064
       6 -> 15         0.00144
       6 -> 18         0.00137
       6 -> 22        -0.00230
       6 -> 25         0.00099
       6 -> 30        -0.00053
       6 -> 33        -0.00027
       6 -> 35         0.00055
       6 -> 42        -0.00017
       6 -> 49         0.00044
       6 -> 50        -0.00023
       7 -> 38        -0.00066
       7 -> 45         0.00023
       8 -> 10         0.70261
       8 -> 11        -0.07385
       8 -> 14         0.01881
       8 -> 16        -0.00436
       8 -> 19         0.00296
       8 -> 20         0.01732
       8 -> 21        -0.00242
       8 -> 26         0.00287
       8 -> 28         0.00100
       8 -> 32         0.00096
       8 -> 34         0.00080
       8 -> 36         0.00031
       8 -> 39         0.00032
       8 -> 41        -0.00023
       8 -> 43         0.00059
       8 -> 46        -0.00041
       8 -> 47         0.00016
       8 -> 51        -0.00014
       8 -> 54         0.00021
       3 <- 12         0.00037
       3 <- 15         0.00052
       3 <- 18         0.00047
       3 <- 22        -0.00051
       3 <- 25         0.00068
       3 <- 30        -0.00011
       3 <- 33         0.00021
       3 <- 35        -0.00044
       3 <- 40        -0.00020
       3 <- 49         0.00017
       4 <- 12         0.00077
       4 <- 15         0.00196
       4 <- 18         0.00179
       4 <- 22        -0.00203
       4 <- 25         0.00212
       4 <- 30         0.00024
       4 <- 33        -0.00017
       4 <- 35         0.00022
       4 <- 40         0.00011
       4 <- 42        -0.00023
       4 <- 50        -0.00014
       5 <- 10         0.00228
       5 <- 11        -0.00024
       5 <- 14         0.00465
       5 <- 16        -0.00056
       5 <- 19        -0.00033
       5 <- 20         0.00079
       5 <- 21         0.00176
       5 <- 24        -0.00210
       5 <- 26         0.00144
       5 <- 28         0.00012
       5 <- 32        -0.00077
       5 <- 34        -0.00090
       5 <- 36        -0.00024
       5 <- 39        -0.00014
       5 <- 41        -0.00028
       5 <- 43        -0.00038
       5 <- 46        -0.00020
       6 <- 15        -0.00023
       6 <- 18         0.00099
       6 <- 22        -0.00050
       6 <- 25         0.00033
       6 <- 30         0.00035
       6 <- 33        -0.00032
       6 <- 35         0.00060
       6 <- 42        -0.00015
       6 <- 49         0.00036
       6 <- 50        -0.00025
       6 <- 53         0.00016
       7 <- 38        -0.00049
       7 <- 45         0.00022
       8 <- 10        -0.00147
       8 <- 11        -0.00058
       8 <- 14        -0.00445
       8 <- 16        -0.00055
       8 <- 19         0.00028
       8 <- 20        -0.00070
       8 <- 21        -0.00150
       8 <- 24         0.00187
       8 <- 26        -0.00085
       8 <- 28        -0.00044
       8 <- 32         0.00094
       8 <- 36         0.00031
       8 <- 39         0.00022
       8 <- 43         0.00037
       8 <- 46        -0.00023

 Excited State   3:      Singlet-B2     7.6802 eV  161.43 nm  f=0.0278  <S**2>=0.000
       3 -> 12        -0.00035
       3 -> 15        -0.00101
       3 -> 18         0.00113
       3 -> 22         0.00051
       3 -> 30         0.00254
       3 -> 33         0.00015
       3 -> 35        -0.00064
       3 -> 40        -0.00055
       3 -> 49         0.00062
       3 -> 50        -0.00018
       4 -> 12         0.00243
       4 -> 15         0.00043
       4 -> 18         0.00181
       4 -> 22        -0.00149
       4 -> 25         0.00277
       4 -> 30        -0.00141
       4 -> 33         0.00049
       4 -> 35        -0.00058
       4 -> 49         0.00023
       5 -> 10        -0.00549
       5 -> 11        -0.00020
       5 -> 14         0.00997
       5 -> 16        -0.00679
       5 -> 19        -0.00046
       5 -> 20        -0.00477
       5 -> 21         0.00254
       5 -> 24        -0.00079
       5 -> 26         0.00162
       5 -> 28         0.00154
       5 -> 34        -0.00083
       5 -> 36        -0.00040
       5 -> 39         0.00046
       5 -> 41        -0.00066
       5 -> 43         0.00020
       5 -> 46         0.00091
       5 -> 51        -0.00043
       6 -> 12        -0.00281
       6 -> 15        -0.00141
       6 -> 18        -0.00074
       6 -> 22         0.00109
       6 -> 25         0.00017
       6 -> 30         0.00118
       6 -> 33        -0.00055
       6 -> 35         0.00149
       6 -> 40         0.00114
       6 -> 49        -0.00130
       6 -> 50         0.00029
       6 -> 53         0.00012
       7 -> 27         0.00024
       7 -> 38        -0.00082
       7 -> 45        -0.00204
       8 -> 10         0.07393
       8 -> 11         0.70214
       8 -> 14        -0.00101
       8 -> 16         0.00865
       8 -> 19        -0.03563
       8 -> 20        -0.00123
       8 -> 21        -0.00279
       8 -> 24         0.00046
       8 -> 26        -0.00059
       8 -> 28         0.00221
       8 -> 32         0.00011
       8 -> 34        -0.00021
       8 -> 36        -0.00024
       8 -> 39        -0.00026
       8 -> 41        -0.00109
       8 -> 43         0.00039
       8 -> 46         0.00241
       8 -> 51        -0.00111
       3 <- 12         0.00034
       3 <- 15        -0.00032
       3 <- 18         0.00102
       3 <- 25         0.00021
       3 <- 30         0.00136
       3 <- 33         0.00026
       3 <- 35        -0.00066
       3 <- 40        -0.00050
       3 <- 49         0.00056
       3 <- 50        -0.00012
       3 <- 53        -0.00034
       4 <- 12         0.00029
       4 <- 15         0.00086
       4 <- 18         0.00039
       4 <- 22        -0.00117
       4 <- 25         0.00119
       4 <- 30        -0.00075
       4 <- 33         0.00046
       4 <- 35        -0.00030
       4 <- 42        -0.00010
       4 <- 49         0.00017
       5 <- 10         0.00118
       5 <- 11        -0.00138
       5 <- 14         0.00274
       5 <- 16        -0.00043
       5 <- 19         0.00149
       5 <- 20        -0.00038
       5 <- 21         0.00082
       5 <- 24        -0.00142
       5 <- 26         0.00013
       5 <- 28         0.00064
       5 <- 32        -0.00087
       5 <- 36         0.00012
       5 <- 39         0.00011
       5 <- 41        -0.00070
       5 <- 43         0.00011
       5 <- 46         0.00087
       5 <- 47        -0.00011
       5 <- 51        -0.00030
       6 <- 12        -0.00027
       6 <- 15        -0.00110
       6 <- 18         0.00038
       6 <- 22         0.00094
       6 <- 25        -0.00015
       6 <- 30         0.00117
       6 <- 33        -0.00048
       6 <- 35         0.00131
       6 <- 40         0.00091
       6 <- 49        -0.00106
       6 <- 50         0.00022
       7 <- 27         0.00037
       7 <- 38        -0.00065
       7 <- 45        -0.00170
       8 <- 10        -0.00084
       8 <- 11        -0.00192
       8 <- 14        -0.00362
       8 <- 16         0.00040
       8 <- 19         0.00540
       8 <- 20         0.00025
       8 <- 21        -0.00194
       8 <- 24        -0.00048
       8 <- 26        -0.00165
       8 <- 28         0.00062
       8 <- 32        -0.00130
       8 <- 34         0.00164
       8 <- 39        -0.00073
       8 <- 41        -0.00102
       8 <- 43         0.00018
       8 <- 46         0.00193
       8 <- 47        -0.00030
       8 <- 51        -0.00073

 Excited State   4:      Singlet-A1     7.9468 eV  156.02 nm  f=0.0364  <S**2>=0.000
       3 -> 10         0.00231
       3 -> 14         0.00147
       3 -> 19        -0.00261
       3 -> 20         0.00220
       3 -> 21         0.00118
       3 -> 24         0.00095
       3 -> 26         0.00147
       3 -> 28         0.00084
       3 -> 32         0.00022
       3 -> 34        -0.00094
       3 -> 36        -0.00018
       3 -> 39         0.00011
       3 -> 41        -0.00019
       3 -> 46         0.00024
       3 -> 47        -0.00028
       3 -> 51        -0.00014
       3 -> 54        -0.00016
       4 -> 10         0.00530
       4 -> 11         0.00377
       4 -> 14         0.00465
       4 -> 16         0.00072
       4 -> 19         0.00044
       4 -> 20         0.00302
       4 -> 21        -0.00070
       4 -> 24        -0.00683
       4 -> 26         0.00237
       4 -> 28        -0.00024
       4 -> 32        -0.00063
       4 -> 34         0.00034
       4 -> 36         0.00011
       4 -> 43         0.00016
       4 -> 46        -0.00020
       4 -> 51        -0.00012
       5 -> 12         0.00589
       5 -> 15         0.00422
       5 -> 18         0.00880
       5 -> 22        -0.00269
       5 -> 25         0.00572
       5 -> 30        -0.00044
       5 -> 33        -0.00027
       5 -> 35         0.00075
       5 -> 50         0.00013
       5 -> 53        -0.00012
       6 -> 10         0.00961
       6 -> 11        -0.00313
       6 -> 14         0.00361
       6 -> 16        -0.00118
       6 -> 19         0.00346
       6 -> 20         0.00055
       6 -> 21        -0.00226
       6 -> 24        -0.00535
       6 -> 26        -0.00082
       6 -> 28        -0.00259
       6 -> 32        -0.00022
       6 -> 34        -0.00022
       6 -> 39         0.00023
       6 -> 43         0.00016
       6 -> 47         0.00074
       6 -> 51         0.00020
       6 -> 54        -0.00012
       7 ->  9         0.04712
       7 -> 13         0.01312
       7 -> 17        -0.00046
       7 -> 23         0.00524
       7 -> 29        -0.00107
       7 -> 31        -0.00103
       7 -> 37         0.00058
       7 -> 44         0.00058
       7 -> 48        -0.00030
       8 -> 12         0.70452
       8 -> 15         0.00649
       8 -> 18         0.02859
       8 -> 22         0.00101
       8 -> 25         0.00507
       8 -> 30        -0.00134
       8 -> 33         0.00183
       8 -> 35        -0.00215
       8 -> 40         0.00026
       8 -> 49        -0.00046
       8 -> 50         0.00024
       8 -> 53        -0.00028
       3 <- 10         0.00072
       3 <- 11         0.00059
       3 <- 14         0.00077
       3 <- 16         0.00016
       3 <- 19        -0.00155
       3 <- 20         0.00095
       3 <- 21         0.00081
       3 <- 24         0.00031
       3 <- 26         0.00102
       3 <- 28         0.00056
       3 <- 32         0.00033
       3 <- 34        -0.00064
       3 <- 36        -0.00011
       3 <- 41        -0.00010
       3 <- 46         0.00032
       3 <- 47        -0.00021
       3 <- 51        -0.00011
       3 <- 54        -0.00014
       4 <- 10         0.00404
       4 <- 11         0.00061
       4 <- 14         0.00331
       4 <- 19         0.00013
       4 <- 20         0.00174
       4 <- 21        -0.00054
       4 <- 24        -0.00368
       4 <- 26         0.00144
       4 <- 32        -0.00084
       4 <- 41        -0.00014
       4 <- 43         0.00013
       4 <- 46        -0.00014
       4 <- 51        -0.00011
       5 <- 12         0.00285
       5 <- 15         0.00326
       5 <- 18         0.00317
       5 <- 22        -0.00105
       5 <- 25         0.00311
       5 <- 30        -0.00022
       5 <- 33        -0.00040
       5 <- 35         0.00066
       5 <- 53        -0.00010
       6 <- 10         0.00227
       6 <- 11        -0.00018
       6 <- 14         0.00138
       6 <- 16        -0.00043
       6 <- 19         0.00101
       6 <- 20         0.00028
       6 <- 21        -0.00124
       6 <- 24        -0.00258
       6 <- 26        -0.00030
       6 <- 28        -0.00168
       6 <- 32        -0.00030
       6 <- 34        -0.00023
       6 <- 39         0.00011
       6 <- 46        -0.00017
       6 <- 47         0.00061
       6 <- 51         0.00022
       6 <- 54        -0.00011
       7 <-  9        -0.00426
       7 <- 13         0.00272
       7 <- 17        -0.00070
       7 <- 23         0.00270
       7 <- 29        -0.00087
       7 <- 31        -0.00065
       7 <- 37         0.00044
       7 <- 44         0.00050
       7 <- 48        -0.00028
       8 <- 12        -0.00028
       8 <- 15        -0.00288
       8 <- 18        -0.00168
       8 <- 22        -0.00034
       8 <- 25        -0.00117
       8 <- 30        -0.00143
       8 <- 33         0.00070
       8 <- 35        -0.00081
       8 <- 40         0.00036
       8 <- 49        -0.00045
       8 <- 50         0.00015
       8 <- 53        -0.00027

 Excited State   5:      Singlet-B1     8.1769 eV  151.63 nm  f=0.0012  <S**2>=0.000
       3 ->  9        -0.03348
       3 -> 13         0.00477
       3 -> 17        -0.00692
       3 -> 23         0.00386
       3 -> 29        -0.00247
       3 -> 31        -0.00029
       3 -> 44         0.00063
       3 -> 48         0.00020
       3 -> 52         0.00113
       4 ->  9         0.01680
       4 -> 13        -0.00275
       4 -> 17         0.00096
       4 -> 23        -0.00249
       4 -> 31        -0.00244
       4 -> 37        -0.00041
       4 -> 48        -0.00160
       4 -> 52        -0.00096
       5 -> 27        -0.00169
       5 -> 38         0.00210
       5 -> 45         0.00276
       6 ->  9         0.70513
       6 -> 13        -0.03377
       6 -> 17         0.02246
       6 -> 23        -0.01240
       6 -> 29         0.00776
       6 -> 31         0.00375
       6 -> 37        -0.00262
       6 -> 44        -0.00352
       6 -> 48         0.00551
       6 -> 52         0.00195
       7 -> 10         0.00274
       7 -> 11         0.00775
       7 -> 14         0.00029
       7 -> 16        -0.01242
       7 -> 19        -0.00349
       7 -> 20         0.00250
       7 -> 21         0.00367
       7 -> 24         0.00267
       7 -> 26         0.00218
       7 -> 28        -0.00470
       7 -> 32        -0.00129
       7 -> 36        -0.00156
       7 -> 39         0.00030
       7 -> 41        -0.00208
       7 -> 43         0.00102
       7 -> 46         0.00494
       7 -> 47         0.00233
       7 -> 51         0.00110
       7 -> 54         0.00055
       8 -> 27         0.00287
       8 -> 38         0.00097
       8 -> 45         0.00682
       3 <-  9        -0.01043
       3 <- 13         0.00073
       3 <- 17        -0.00337
       3 <- 23         0.00048
       3 <- 29        -0.00149
       3 <- 31        -0.00018
       3 <- 37        -0.00016
       3 <- 44        -0.00011
       3 <- 48         0.00049
       3 <- 52         0.00091
       4 <-  9         0.00541
       4 <- 17         0.00250
       4 <- 23        -0.00031
       4 <- 29         0.00224
       4 <- 31        -0.00237
       4 <- 37         0.00019
       4 <- 44         0.00020
       4 <- 48        -0.00138
       4 <- 52        -0.00052
       5 <- 27        -0.00171
       5 <- 38         0.00159
       5 <- 45         0.00243

 The electronic state is 1-A1.
 Alpha  occ. eigenvalues --  -19.15637 -10.29179  -1.03488  -0.65790  -0.49710
 Alpha  occ. eigenvalues --   -0.45405  -0.39017  -0.28642
 Alpha virt. eigenvalues --   -0.08532   0.00523   0.03696   0.04214   0.06331
 Alpha virt. eigenvalues --    0.12531   0.16940   0.18744   0.21902   0.23468
 Alpha virt. eigenvalues --    0.25373   0.31143   0.43329   0.45062   0.50922

 Mulliken charges:
               1
     1  C    0.000158
     2  H    0.131747
     3  H    0.131747
     4  O   -0.263653
 Sum of Mulliken charges =  -0.00000

 Dipole moment (field-independent basis, Debye):
    X=             -0.0000    Y=             -0.0000    Z=             -2.8374  Tot=              2.8374
 Quadrupole moment (field-independent basis, Debye-Ang):
   XX=            -11.9931   YY=            -11.7310   ZZ=            -12.2179
   XY=              0.0000   XZ=              0.0000   YZ=              0.0000

 Normal termination of Gaussian 16 at Fri Sep 17 10:52:45 2021.
