 Gaussian 16, Revision A.03,
 Gaussian 16:  ES64L-G16RevA.03 25-Dec-2016

 --------------------------------------------------------------------
 #p B3LYP/6-311+G** #p TD=(singlets,nstates=30)IOp(6/8=3) IOp(9/40=4)
 --------------------------------------------------------------------

 --------------------------------
 Scan Step 139, Bond Length 1.195
 --------------------------------
 Symbolic Z-matrix:
 Charge =  0 Multiplicity = 1

                         Standard orientation:
 ---------------------------------------------------------------------
 Center     Atomic      Atomic             Coordinates (Angstroms)
 Number     Number       Type             X           Y           Z
 ---------------------------------------------------------------------
      1          6           0        0.000000   -0.000000   -0.523581
      2          1           0        0.000000    0.937260   -1.114931
      3          1           0       -0.000000   -0.937260   -1.114931
      4          8           0        0.000000    0.000000    0.671419
 ---------------------------------------------------------------------

 SCF Done:  E(RB3LYP) =  -114.541683795     A.U. after    9 cycles

 Excitation energies and oscillator strengths:

 Excited State   1:      Singlet-A2     4.0020 eV  309.80 nm  f=0.0000  <S**2>=0.000
       3 -> 27         0.00253
       3 -> 38         0.00214
       3 -> 45         0.00243
       4 -> 27         0.00199
       4 -> 38        -0.00058
       4 -> 45        -0.00128
       5 ->  9         0.02118
       5 -> 13        -0.00358
       5 -> 17         0.00573
       5 -> 23        -0.00041
       5 -> 29         0.00434
       5 -> 31        -0.00241
       5 -> 37         0.00351
       5 -> 44         0.00063
       5 -> 47         0.00015
       5 -> 52         0.00079
       6 -> 38        -0.00082
       6 -> 45         0.00177
       7 -> 12        -0.00062
       7 -> 15         0.00271
       7 -> 18        -0.00270
       7 -> 22         0.00080
       7 -> 25         0.00142
       7 -> 30        -0.00090
       7 -> 33         0.00043
       7 -> 35        -0.00030
       7 -> 40        -0.00027
       7 -> 49         0.00038
       7 -> 50         0.00031
       7 -> 53         0.00046
       8 ->  9         0.70517
       8 -> 13        -0.04635
       8 -> 17         0.02324
       8 -> 23        -0.01059
       8 -> 29         0.00885
       8 -> 31        -0.00275
       8 -> 37        -0.00025
       8 -> 44        -0.00014
       8 -> 47        -0.00024
       8 -> 52         0.00165
       3 <- 27         0.00166
       3 <- 38         0.00178
       3 <- 45         0.00252
       4 <- 27         0.00282
       4 <- 45        -0.00109
       5 <-  9        -0.00037
       5 <- 13        -0.00084
       5 <- 17        -0.00096
       5 <- 23         0.00055
       5 <- 29        -0.00065
       5 <- 31         0.00093
       5 <- 37         0.00166
       5 <- 44         0.00027
       5 <- 47         0.00016
       5 <- 52         0.00021
       6 <- 27         0.00050
       6 <- 38        -0.00074
       6 <- 45         0.00138
       7 <- 12        -0.00082
       7 <- 15        -0.00701
       7 <- 22         0.00726
       7 <- 25        -0.00021
       7 <- 30         0.00328
       7 <- 33        -0.00133
       7 <- 35        -0.00243
       7 <- 40        -0.00099
       7 <- 42         0.00012
       7 <- 49         0.00019
       7 <- 50         0.00020
       7 <- 53         0.00126
       8 <-  9        -0.02333
       8 <- 13         0.00327
       8 <- 17        -0.00425
       8 <- 23         0.00080
       8 <- 29        -0.00090
       8 <- 31        -0.00093
       8 <- 37        -0.00152
       8 <- 52         0.00048
 This state for optimization and/or second-order correction.
 Total Energy, E(TD-HF/TD-DFT) =  -114.394611296
 Copying the excited state density for this state as the 1-particle RhoCI density.

 Excited State   2:      Singlet-B2     6.8433 eV  181.18 nm  f=0.0323  <S**2>=0.000
       3 -> 12         0.00146
       3 -> 15         0.00072
       3 -> 18         0.00116
       3 -> 22        -0.00031
       3 -> 25         0.00129
       3 -> 30        -0.00010
       3 -> 33         0.00018
       3 -> 35         0.00038
       4 -> 12        -0.00333
       4 -> 15         0.00176
       4 -> 18         0.00212
       4 -> 22        -0.00334
       4 -> 25         0.00343
       4 -> 30         0.00027
       4 -> 33        -0.00055
       4 -> 35        -0.00064
       4 -> 40        -0.00047
       4 -> 42        -0.00011
       5 -> 10        -0.00625
       5 -> 11        -0.00887
       5 -> 14         0.00700
       5 -> 16        -0.00090
       5 -> 19         0.00078
       5 -> 20         0.00196
       5 -> 21         0.00571
       5 -> 26         0.00255
       5 -> 28         0.00130
       5 -> 32         0.00082
       5 -> 34        -0.00101
       5 -> 36        -0.00021
       5 -> 39        -0.00030
       5 -> 41        -0.00032
       5 -> 43        -0.00055
       5 -> 46        -0.00037
       5 -> 54         0.00011
       6 -> 12         0.00022
       6 -> 15         0.00151
       6 -> 18         0.00230
       6 -> 22        -0.00258
       6 -> 25         0.00125
       6 -> 30        -0.00050
       6 -> 33        -0.00021
       6 -> 35        -0.00032
       6 -> 40         0.00016
       6 -> 42        -0.00020
       6 -> 49         0.00046
       6 -> 50        -0.00035
       7 -> 27         0.00022
       7 -> 38        -0.00053
       7 -> 45         0.00047
       8 -> 10         0.70324
       8 -> 11        -0.06880
       8 -> 14         0.01219
       8 -> 16        -0.00666
       8 -> 19         0.01233
       8 -> 20         0.01394
       8 -> 21        -0.00323
       8 -> 24         0.00026
       8 -> 26         0.00230
       8 -> 28         0.00070
       8 -> 32        -0.00097
       8 -> 34         0.00140
       8 -> 36         0.00041
       8 -> 39         0.00040
       8 -> 41        -0.00017
       8 -> 43         0.00063
       8 -> 46        -0.00066
       8 -> 48        -0.00013
       8 -> 54         0.00018
       3 <- 12         0.00036
       3 <- 15         0.00054
       3 <- 18         0.00045
       3 <- 22        -0.00044
       3 <- 25         0.00077
       3 <- 30        -0.00011
       3 <- 33         0.00015
       3 <- 35         0.00035
       3 <- 40         0.00010
       4 <- 12         0.00073
       4 <- 15         0.00189
       4 <- 18         0.00206
       4 <- 22        -0.00205
       4 <- 25         0.00236
       4 <- 30         0.00020
       4 <- 33        -0.00033
       4 <- 35        -0.00037
       4 <- 40        -0.00015
       4 <- 42        -0.00023
       4 <- 50        -0.00011
       5 <- 10         0.00241
       5 <- 11        -0.00025
       5 <- 14         0.00489
       5 <- 16        -0.00079
       5 <- 19         0.00017
       5 <- 20         0.00077
       5 <- 21         0.00217
       5 <- 24         0.00185
       5 <- 26         0.00156
       5 <- 28         0.00021
       5 <- 32         0.00055
       5 <- 34        -0.00098
       5 <- 36        -0.00029
       5 <- 39        -0.00016
       5 <- 41        -0.00013
       5 <- 43        -0.00041
       5 <- 46        -0.00032
       6 <- 12         0.00014
       6 <- 18         0.00125
       6 <- 22        -0.00076
       6 <- 25         0.00043
       6 <- 30         0.00030
       6 <- 33        -0.00027
       6 <- 35        -0.00043
       6 <- 40         0.00016
       6 <- 42        -0.00019
       6 <- 49         0.00039
       6 <- 50        -0.00036
       6 <- 53         0.00014
       7 <- 27         0.00018
       7 <- 38        -0.00039
       7 <- 45         0.00042
       8 <- 10        -0.00187
       8 <- 11        -0.00052
       8 <- 14        -0.00579
       8 <- 16        -0.00034
       8 <- 19        -0.00020
       8 <- 20        -0.00053
       8 <- 21        -0.00204
       8 <- 24        -0.00238
       8 <- 26        -0.00061
       8 <- 28        -0.00059
       8 <- 32        -0.00111
       8 <- 34         0.00041
       8 <- 36         0.00038
       8 <- 39         0.00032
       8 <- 43         0.00044
       8 <- 46        -0.00043

 Excited State   3:      Singlet-B2     7.6304 eV  162.49 nm  f=0.0250  <S**2>=0.000
       3 -> 12        -0.00030
       3 -> 15        -0.00078
       3 -> 18         0.00082
       3 -> 22         0.00040
       3 -> 25         0.00017
       3 -> 30         0.00206
       3 -> 33         0.00013
       3 -> 35         0.00046
       3 -> 40         0.00042
       3 -> 49         0.00044
       3 -> 50        -0.00023
       4 -> 12         0.00279
       4 -> 18         0.00250
       4 -> 22        -0.00150
       4 -> 25         0.00303
       4 -> 30        -0.00122
       4 -> 33         0.00050
       4 -> 35         0.00052
       4 -> 42        -0.00014
       4 -> 49         0.00024
       5 -> 10        -0.00727
       5 -> 14         0.00832
       5 -> 16        -0.00712
       5 -> 19        -0.00250
       5 -> 20        -0.00441
       5 -> 21         0.00143
       5 -> 24         0.00116
       5 -> 26         0.00086
       5 -> 28         0.00163
       5 -> 32         0.00019
       5 -> 34        -0.00119
       5 -> 36        -0.00024
       5 -> 39         0.00041
       5 -> 41        -0.00076
       5 -> 43         0.00013
       5 -> 46         0.00088
       5 -> 51        -0.00041
       6 -> 12        -0.00311
       6 -> 15        -0.00179
       6 -> 18        -0.00094
       6 -> 22         0.00131
       6 -> 25         0.00015
       6 -> 30         0.00096
       6 -> 33        -0.00053
       6 -> 35        -0.00149
       6 -> 40        -0.00103
       6 -> 49        -0.00109
       6 -> 50         0.00048
       6 -> 53         0.00011
       7 -> 38        -0.00095
       7 -> 45        -0.00174
       8 -> 10         0.06926
       8 -> 11         0.70279
       8 -> 14        -0.00668
       8 -> 16         0.01126
       8 -> 19        -0.02939
       8 -> 20         0.00728
       8 -> 21        -0.00278
       8 -> 24         0.00045
       8 -> 26        -0.00138
       8 -> 28         0.00096
       8 -> 32        -0.00024
       8 -> 34        -0.00018
       8 -> 36        -0.00010
       8 -> 39        -0.00020
       8 -> 41        -0.00124
       8 -> 43         0.00029
       8 -> 46         0.00186
       8 -> 48         0.00011
       8 -> 51        -0.00095
       8 -> 54        -0.00012
       3 <- 12         0.00034
       3 <- 15        -0.00024
       3 <- 18         0.00089
       3 <- 25         0.00031
       3 <- 30         0.00117
       3 <- 33         0.00024
       3 <- 35         0.00051
       3 <- 40         0.00038
       3 <- 49         0.00037
       3 <- 50        -0.00015
       3 <- 53        -0.00027
       4 <- 12         0.00034
       4 <- 15         0.00073
       4 <- 18         0.00061
       4 <- 22        -0.00115
       4 <- 25         0.00126
       4 <- 30        -0.00058
       4 <- 33         0.00046
       4 <- 35         0.00018
       4 <- 42        -0.00014
       4 <- 49         0.00018
       4 <- 50        -0.00012
       5 <- 10         0.00126
       5 <- 11        -0.00116
       5 <- 14         0.00257
       5 <- 16        -0.00043
       5 <- 19         0.00106
       5 <- 20        -0.00045
       5 <- 21         0.00076
       5 <- 24         0.00134
       5 <- 26        -0.00010
       5 <- 28         0.00072
       5 <- 32         0.00105
       5 <- 34        -0.00019
       5 <- 36         0.00016
       5 <- 39         0.00012
       5 <- 41        -0.00079
       5 <- 46         0.00081
       5 <- 48         0.00014
       5 <- 51        -0.00031
       6 <- 12        -0.00032
       6 <- 15        -0.00067
       6 <- 22         0.00069
       6 <- 25        -0.00011
       6 <- 30         0.00070
       6 <- 33        -0.00039
       6 <- 35        -0.00121
       6 <- 40        -0.00078
       6 <- 49        -0.00089
       6 <- 50         0.00038
       7 <- 27         0.00019
       7 <- 38        -0.00076
       7 <- 45        -0.00146
       8 <- 10        -0.00069
       8 <- 11        -0.00078
       8 <- 14        -0.00374
       8 <- 16         0.00046
       8 <- 19         0.00412
       8 <- 20        -0.00100
       8 <- 21        -0.00203
       8 <- 24         0.00035
       8 <- 26        -0.00168
       8 <- 28         0.00027
       8 <- 32         0.00113
       8 <- 34         0.00131
       8 <- 39        -0.00053
       8 <- 41        -0.00110
       8 <- 43         0.00015
       8 <- 46         0.00148
       8 <- 48         0.00023
       8 <- 51        -0.00065

 Excited State   4:      Singlet-A1     7.8238 eV  158.47 nm  f=0.0492  <S**2>=0.000
       3 -> 10         0.00194
       3 -> 11        -0.00082
       3 -> 14         0.00092
       3 -> 16        -0.00014
       3 -> 19        -0.00025
       3 -> 20         0.00190
       3 -> 21         0.00084
       3 -> 24        -0.00067
       3 -> 26         0.00120
       3 -> 28         0.00094
       3 -> 34        -0.00065
       3 -> 36        -0.00019
       3 -> 41        -0.00021
       3 -> 46         0.00014
       3 -> 48         0.00031
       3 -> 51        -0.00020
       3 -> 54        -0.00019
       4 -> 10         0.00483
       4 -> 11         0.00568
       4 -> 14         0.00485
       4 -> 16         0.00042
       4 -> 19         0.00025
       4 -> 20         0.00394
       4 -> 21         0.00060
       4 -> 24         0.00712
       4 -> 26         0.00173
       4 -> 28        -0.00038
       4 -> 32         0.00064
       4 -> 43         0.00016
       4 -> 46        -0.00021
       4 -> 51        -0.00015
       5 -> 12         0.00624
       5 -> 15         0.00233
       5 -> 18         0.01037
       5 -> 22        -0.00225
       5 -> 25         0.00536
       5 -> 30        -0.00017
       5 -> 33        -0.00017
       5 -> 35        -0.00076
       5 -> 50         0.00023
       5 -> 53        -0.00013
       6 -> 10         0.01213
       6 -> 11        -0.00259
       6 -> 14         0.00438
       6 -> 16         0.00082
       6 -> 19         0.00225
       6 -> 20         0.00387
       6 -> 21         0.00049
       6 -> 24         0.00369
       6 -> 28        -0.00187
       6 -> 32         0.00042
       6 -> 39         0.00012
       6 -> 43         0.00014
       6 -> 48        -0.00066
       6 -> 51         0.00020
       6 -> 54        -0.00011
       7 ->  9         0.01959
       7 -> 13         0.01063
       7 -> 17         0.00239
       7 -> 23         0.00522
       7 -> 29        -0.00057
       7 -> 31        -0.00090
       7 -> 37         0.00058
       7 -> 44         0.00065
       7 -> 47        -0.00034
       7 -> 52        -0.00011
       8 -> 12         0.70574
       8 -> 15        -0.00723
       8 -> 18         0.03019
       8 -> 22         0.00416
       8 -> 25         0.00381
       8 -> 33         0.00159
       8 -> 35         0.00198
       8 -> 40        -0.00057
       8 -> 42         0.00019
       8 -> 49        -0.00044
       8 -> 50         0.00028
       8 -> 53        -0.00023
       3 <- 10         0.00062
       3 <- 14         0.00050
       3 <- 19        -0.00029
       3 <- 20         0.00086
       3 <- 21         0.00058
       3 <- 24        -0.00012
       3 <- 26         0.00078
       3 <- 28         0.00062
       3 <- 32        -0.00020
       3 <- 34        -0.00044
       3 <- 36        -0.00015
       3 <- 41        -0.00014
       3 <- 46         0.00023
       3 <- 48         0.00025
       3 <- 51        -0.00018
       3 <- 54        -0.00017
       4 <- 10         0.00423
       4 <- 11         0.00130
       4 <- 14         0.00358
       4 <- 16        -0.00015
       4 <- 19         0.00011
       4 <- 20         0.00226
       4 <- 21         0.00012
       4 <- 24         0.00387
       4 <- 26         0.00108
       4 <- 32         0.00078
       4 <- 34        -0.00043
       4 <- 39        -0.00015
       4 <- 43         0.00011
       4 <- 46        -0.00017
       4 <- 51        -0.00014
       5 <- 12         0.00272
       5 <- 15         0.00260
       5 <- 18         0.00364
       5 <- 22        -0.00081
       5 <- 25         0.00291
       5 <- 30        -0.00015
       5 <- 33        -0.00034
       5 <- 35        -0.00070
       5 <- 50         0.00014
       5 <- 53        -0.00012
       6 <- 10         0.00299
       6 <- 14         0.00169
       6 <- 16         0.00023
       6 <- 19         0.00060
       6 <- 20         0.00180
       6 <- 24         0.00181
       6 <- 26         0.00018
       6 <- 28        -0.00121
       6 <- 32         0.00042
       6 <- 34        -0.00013
       6 <- 41         0.00012
       6 <- 46        -0.00013
       6 <- 48        -0.00055
       6 <- 51         0.00024
       7 <-  9         0.00024
       7 <- 13         0.00236
       7 <- 17         0.00050
       7 <- 23         0.00263
       7 <- 29        -0.00047
       7 <- 31        -0.00062
       7 <- 37         0.00045
       7 <- 44         0.00054
       7 <- 47        -0.00029
       7 <- 52        -0.00010
       8 <- 12        -0.00084
       8 <- 15        -0.00552
       8 <- 18        -0.00183
       8 <- 22         0.00067
       8 <- 25        -0.00169
       8 <- 30        -0.00066
       8 <- 33         0.00067
       8 <- 35         0.00085
       8 <- 40        -0.00057
       8 <- 42         0.00018
       8 <- 49        -0.00045
       8 <- 50         0.00019
       8 <- 53        -0.00024

 Excited State   5:      Singlet-A2     8.3303 eV  148.83 nm  f=0.0000  <S**2>=0.000
       3 -> 27        -0.00046
       3 -> 38        -0.00041
       3 -> 45        -0.00022
       4 -> 27         0.00019
       4 -> 38         0.00048
       5 ->  9        -0.00598
       5 -> 13        -0.00450
       5 -> 17         0.00659
       5 -> 23        -0.00200
       5 -> 29        -0.00015
       5 -> 31         0.00145
       5 -> 37        -0.00095
       5 -> 44        -0.00019
       6 -> 27         0.00023
       6 -> 38         0.00029
       6 -> 45        -0.00023
       7 -> 12        -0.00026
       7 -> 15        -0.00188
       7 -> 18         0.00201
       7 -> 22        -0.00069
       7 -> 35         0.00013
       7 -> 40         0.00010
       8 ->  9         0.04602
       8 -> 13         0.70505
       8 -> 17         0.01977
       8 -> 23         0.01681
       8 -> 29         0.00021
       8 -> 31         0.00159
       8 -> 37        -0.00034
       8 -> 47         0.00017
       3 <- 27        -0.00013
       3 <- 38        -0.00026
       3 <- 45        -0.00030
       4 <- 27        -0.00011
       5 <-  9        -0.00033
       5 <- 13        -0.00033
       5 <- 17         0.00052
       5 <- 37        -0.00020
       6 <- 38         0.00019
       7 <- 12        -0.00060
       7 <- 15        -0.00100
       7 <- 18         0.00075
       7 <- 22        -0.00095
       7 <- 25        -0.00042
       7 <- 30         0.00022
       7 <- 33         0.00037
       7 <- 35         0.00059
       7 <- 40         0.00036
       8 <-  9         0.00174
       8 <- 13         0.00131
       8 <- 17         0.00024
       8 <- 23        -0.00015
       8 <- 37         0.00013

 Excited State   6:      Singlet-B1     9.1834 eV  135.01 nm  f=0.0009  <S**2>=0.000
       3 ->  9        -0.03250
       3 -> 13         0.00632
       3 -> 17        -0.00744
       3 -> 23         0.00468
       3 -> 29        -0.00302
       3 -> 44         0.00074
       3 -> 52         0.00112
       4 ->  9         0.01698
       4 -> 13        -0.00283
       4 -> 17         0.00109
       4 -> 23        -0.00247
       4 -> 29        -0.00013
       4 -> 31        -0.00285
       4 -> 37        -0.00031
       4 -> 44        -0.00015
       4 -> 47        -0.00168
       4 -> 52        -0.00102
       5 -> 27        -0.00194

 The electronic state is 1-A1.
 Alpha  occ. eigenvalues --  -19.15059 -10.27779  -1.08056  -0.64433  -0.50807
 Alpha  occ. eigenvalues --   -0.46598  -0.41651  -0.28139
 Alpha virt. eigenvalues --   -0.06250   0.00801   0.03943   0.04267   0.06490
 Alpha virt. eigenvalues --    0.12962   0.17895   0.18556   0.21984   0.23177
 Alpha virt. eigenvalues --    0.26970   0.33031   0.45800   0.46668   0.50943

 Mulliken charges:
               1
     1  C    0.020745
     2  H    0.109643
     3  H    0.109643
     4  O   -0.240031
 Sum of Mulliken charges =  -0.00000

 Dipole moment (field-independent basis, Debye):
    X=             -0.0000    Y=             -0.0000    Z=             -2.4456  Tot=              2.4456
 Quadrupole moment (field-independent basis, Debye-Ang):
   XX=            -11.7280   YY=            -11.7447   ZZ=            -12.4597
   XY=              0.0000   XZ=              0.0000   YZ=              0.0000

 Normal termination of Gaussian 16 at Fri Sep 17 10:52:42 2021.
