 Gaussian 16, Revision A.03,
 Gaussian 16:  ES64L-G16RevA.03 25-Dec-2016

 --------------------------------------------------------------------
 #p B3LYP/6-311+G** #p TD=(singlets,nstates=30)IOp(6/8=3) IOp(9/40=4)
 --------------------------------------------------------------------

 --------------------------------
 Scan Step 185, Bond Length 1.425
 --------------------------------
 Symbolic Z-matrix:
 Charge =  0 Multiplicity = 1

                         Standard orientation:
 ---------------------------------------------------------------------
 Center     Atomic      Atomic             Coordinates (Angstroms)
 Number     Number       Type             X           Y           Z
 ---------------------------------------------------------------------
      1          6           0        0.000000    0.000000   -0.638581
      2          1           0        0.000000    0.937260   -1.229931
      3          1           0       -0.000000   -0.937260   -1.229931
      4          8           0        0.000000   -0.000000    0.786419
 ---------------------------------------------------------------------

 SCF Done:  E(RB3LYP) =  -114.492389410     A.U. after    9 cycles

 Excitation energies and oscillator strengths:

 Excited State   1:      Singlet-A2     2.7379 eV  452.84 nm  f=0.0000  <S**2>=0.000
       3 -> 27         0.00171
       3 -> 38         0.00138
       3 -> 46         0.00305
       4 -> 27         0.00111
       4 -> 38        -0.00028
       4 -> 46        -0.00141
       5 ->  9         0.01406
       5 -> 18         0.00412
       5 -> 23         0.00133
       5 -> 28         0.00366
       5 -> 31        -0.00070
       5 -> 37         0.00219
       5 -> 44         0.00045
       5 -> 48         0.00010
       5 -> 52         0.00052
       6 -> 27        -0.00053
       6 -> 38        -0.00087
       6 -> 46         0.00162
       7 -> 12        -0.00070
       7 -> 15         0.00404
       7 -> 19        -0.00354
       7 -> 22        -0.00025
       7 -> 25         0.00124
       7 -> 30        -0.00124
       7 -> 33         0.00043
       7 -> 42        -0.00011
       7 -> 49         0.00016
       7 -> 50         0.00025
       7 -> 53         0.00047
       8 ->  9         0.70724
       8 -> 13        -0.02195
       8 -> 18         0.02213
       8 -> 23        -0.00630
       8 -> 28         0.01085
       8 -> 31        -0.00017
       8 -> 37         0.00059
       8 -> 48        -0.00029
       8 -> 52         0.00190
       3 <- 27         0.00096
       3 <- 38         0.00107
       3 <- 46         0.00312
       4 <- 27         0.00179
       4 <- 38         0.00020
       4 <- 46        -0.00116
       5 <-  9        -0.00054
       5 <- 13        -0.00067
       5 <- 18        -0.00091
       5 <- 23         0.00039
       5 <- 28        -0.00065
       5 <- 31         0.00052
       5 <- 37         0.00115
       5 <- 44         0.00016
       5 <- 52         0.00014
       6 <- 38        -0.00074
       6 <- 46         0.00126
       7 <- 12        -0.00015
       7 <- 15        -0.00908
       7 <- 19         0.00220
       7 <- 22         0.00740
       7 <- 25         0.00034
       7 <- 30         0.00466
       7 <- 33        -0.00088
       7 <- 35         0.00158
       7 <- 40         0.00075
       7 <- 49        -0.00020
       7 <- 50         0.00016
       7 <- 53         0.00142
       8 <-  9        -0.03717
       8 <- 13         0.00139
       8 <- 18        -0.00556
       8 <- 23         0.00055
       8 <- 28        -0.00183
       8 <- 31        -0.00053
       8 <- 37        -0.00080
       8 <- 52         0.00052
 This state for optimization and/or second-order correction.
 Total Energy, E(TD-HF/TD-DFT) =  -114.391772358
 Copying the excited state density for this state as the 1-particle RhoCI density.

 Excited State   2:      Singlet-A1     6.8070 eV  182.14 nm  f=0.1234  <S**2>=0.000
       3 -> 10         0.00699
       3 -> 11        -0.01583
       3 -> 14         0.00931
       3 -> 16        -0.01645
       3 -> 17        -0.01591
       3 -> 20        -0.00128
       3 -> 21        -0.00443
       3 -> 24         0.00525
       3 -> 26         0.00729
       3 -> 29         0.00026
       3 -> 32         0.00293
       3 -> 34         0.00381
       3 -> 36        -0.00118
       3 -> 39         0.00126
       3 -> 41         0.00014
       3 -> 43         0.00054
       3 -> 45         0.00165
       3 -> 47         0.00127
       3 -> 51         0.00042
       3 -> 54         0.00030
       4 -> 10         0.02337
       4 -> 11         0.01054
       4 -> 14         0.01423
       4 -> 16         0.00366
       4 -> 17         0.00619
       4 -> 20         0.00895
       4 -> 21         0.00012
       4 -> 24        -0.00703
       4 -> 26         0.00611
       4 -> 29         0.00107
       4 -> 32        -0.00122
       4 -> 34        -0.00285
       4 -> 36         0.00051
       4 -> 39        -0.00021
       4 -> 41         0.00012
       4 -> 43        -0.00018
       4 -> 45        -0.00042
       4 -> 47        -0.00166
       4 -> 51        -0.00017
       5 -> 12         0.02753
       5 -> 15         0.02530
       5 -> 19         0.00197
       5 -> 22         0.00420
       5 -> 25         0.01224
       5 -> 30        -0.00217
       5 -> 33        -0.00335
       5 -> 35         0.00212
       5 -> 40         0.00165
       5 -> 42         0.00068
       5 -> 49         0.00062
       5 -> 50        -0.00050
       5 -> 53        -0.00028
       6 -> 10        -0.04650
       6 -> 11         0.07610
       6 -> 14        -0.03790
       6 -> 16         0.10929
       6 -> 17         0.04843
       6 -> 20        -0.02969
       6 -> 21         0.02567
       6 -> 24        -0.02263
       6 -> 26        -0.01170
       6 -> 29        -0.01048
       6 -> 32        -0.00012
       6 -> 34         0.00267
       6 -> 36         0.00191
       6 -> 39         0.00029
       6 -> 41        -0.00084
       6 -> 43         0.00052
       6 -> 45         0.00039
       6 -> 47         0.00178
       6 -> 51         0.00079
       6 -> 54        -0.00034
       7 ->  9         0.68542
       7 -> 13         0.01675
       7 -> 18        -0.02594
       7 -> 23         0.00495
       7 -> 28        -0.00438
       7 -> 31        -0.00207
       7 -> 37         0.00026
       7 -> 44        -0.00096
       7 -> 48         0.00060
       7 -> 52         0.00101
       8 -> 12         0.00205
       8 -> 15         0.11746
       8 -> 19        -0.02700
       8 -> 22        -0.04309
       8 -> 25         0.00261
       8 -> 30        -0.01492
       8 -> 33         0.00476
       8 -> 35        -0.00597
       8 -> 40        -0.00248
       8 -> 42        -0.00035
       8 -> 49         0.00069
       8 -> 50         0.00035
       8 -> 53        -0.00095
       3 <- 10         0.00389
       3 <- 11        -0.00965
       3 <- 14         0.00647
       3 <- 16        -0.01116
       3 <- 17        -0.00985
       3 <- 20        -0.00062
       3 <- 21        -0.00389
       3 <- 24         0.00357
       3 <- 26         0.00467
       3 <- 29         0.00029
       3 <- 32         0.00265
       3 <- 34         0.00250
       3 <- 36        -0.00077
       3 <- 39         0.00098
       3 <- 41         0.00014
       3 <- 43         0.00056
       3 <- 45         0.00164
       3 <- 47         0.00153
       3 <- 51         0.00040
       3 <- 54         0.00035
       4 <- 10         0.00993
       4 <- 11         0.00528
       4 <- 14         0.00634
       4 <- 16         0.00251
       4 <- 17         0.00321
       4 <- 20         0.00576
       4 <- 21         0.00021
       4 <- 24        -0.00426
       4 <- 26         0.00434
       4 <- 29         0.00017
       4 <- 32        -0.00160
       4 <- 34        -0.00235
       4 <- 36         0.00025
       4 <- 39        -0.00024
       4 <- 43        -0.00017
       4 <- 47        -0.00145
       5 <- 12         0.00891
       5 <- 15         0.01015
       5 <- 19         0.00119
       5 <- 22         0.00222
       5 <- 25         0.00718
       5 <- 30        -0.00124
       5 <- 33        -0.00242
       5 <- 35         0.00168
       5 <- 40         0.00138
       5 <- 42         0.00053
       5 <- 49         0.00052
       5 <- 50        -0.00045
       5 <- 53        -0.00025
       6 <- 10        -0.01028
       6 <- 11         0.01809
       6 <- 14        -0.01191
       6 <- 16         0.04052
       6 <- 17         0.01787
       6 <- 20        -0.01392
       6 <- 21         0.01279
       6 <- 24        -0.01243
       6 <- 26        -0.00682
       6 <- 29        -0.00661
       6 <- 32         0.00031
       6 <- 34         0.00255
       6 <- 36         0.00131
       6 <- 39         0.00046
       6 <- 41        -0.00055
       6 <- 43         0.00045
       6 <- 47         0.00140
       6 <- 51         0.00059
       6 <- 54        -0.00025
       7 <-  9        -0.10673
       7 <- 13         0.01136
       7 <- 18        -0.01482
       7 <- 23         0.00649
       7 <- 28        -0.00564
       7 <- 31        -0.00054
       7 <- 37        -0.00012
       7 <- 44        -0.00042
       7 <- 52         0.00084
       8 <- 15         0.02711
       8 <- 19        -0.00811
       8 <- 22        -0.01883
       8 <- 25         0.00083
       8 <- 30        -0.00960
       8 <- 33         0.00327
       8 <- 35        -0.00423
       8 <- 40        -0.00193
       8 <- 42        -0.00028
       8 <- 49         0.00047
       8 <- 50         0.00027
       8 <- 53        -0.00084

 Excited State   3:      Singlet-B1     6.8185 eV  181.84 nm  f=0.0015  <S**2>=0.000
       3 ->  9        -0.03265
       3 -> 13         0.00307
       3 -> 18        -0.00594
       3 -> 23         0.00277
       3 -> 28        -0.00166
       3 -> 31        -0.00050
       3 -> 44         0.00042
       3 -> 48         0.00061
       3 -> 52         0.00108
       4 ->  9         0.01566
       4 -> 13        -0.00271
       4 -> 18         0.00063
       4 -> 23        -0.00248
       4 -> 28         0.00018
       4 -> 31        -0.00194
       4 -> 37        -0.00046
       4 -> 48        -0.00142
       4 -> 52        -0.00082
       5 -> 27        -0.00103
       5 -> 38         0.00198
       5 -> 46         0.00176
       6 ->  9         0.70589
       6 -> 13        -0.02564
       6 -> 18         0.01968
       6 -> 23        -0.01183
       6 -> 28         0.00586
       6 -> 31         0.00392
       6 -> 37        -0.00252
       6 -> 44        -0.00338
       6 -> 48         0.00491
       6 -> 52         0.00175
       7 -> 10        -0.00309
       7 -> 11         0.00444
       7 -> 14        -0.00360
       7 -> 16         0.00923
       7 -> 17        -0.00680
       7 -> 20         0.00199
       7 -> 21        -0.00151
       7 -> 24         0.00070
       7 -> 26        -0.00021
       7 -> 29        -0.00453
       7 -> 32        -0.00113
       7 -> 34        -0.00022
       7 -> 36        -0.00169
       7 -> 39         0.00013
       7 -> 41        -0.00127
       7 -> 43         0.00079
       7 -> 45         0.00391
       7 -> 47         0.00313
       7 -> 51         0.00114
       7 -> 54         0.00056
       8 -> 27         0.00150
       8 -> 38         0.00049
       8 -> 46         0.00631
       3 <-  9        -0.01055
       3 <- 18        -0.00324
       3 <- 23        -0.00011
       3 <- 28        -0.00109
       3 <- 31        -0.00049
       3 <- 44        -0.00023
       3 <- 48         0.00084
       3 <- 52         0.00086
       4 <-  9         0.00626
       4 <- 18         0.00235
       4 <- 23        -0.00033
       4 <- 28         0.00210
       4 <- 31        -0.00155
       4 <- 44         0.00019
       4 <- 48        -0.00123
       4 <- 52        -0.00046
       5 <- 27        -0.00133
       5 <- 38         0.00154
       5 <- 46         0.00157
       6 <-  9        -0.02241
       6 <- 13         0.00211
       6 <- 18        -0.00301
       6 <- 28        -0.00284
       6 <- 31         0.00221
       6 <- 37        -0.00236
       6 <- 44        -0.00204
       6 <- 48         0.00435
       6 <- 52         0.00065
       7 <- 10         0.00354
       7 <- 11        -0.00601
       7 <- 14         0.00349
       7 <- 16        -0.01312
       7 <- 17        -0.00875
       7 <- 20         0.00656
       7 <- 21        -0.00595
       7 <- 24         0.00536
       7 <- 26         0.00261
       7 <- 29         0.00057
       7 <- 32        -0.00092
       7 <- 34        -0.00120
       7 <- 36        -0.00269
       7 <- 39         0.00038
       7 <- 41        -0.00082
       7 <- 43         0.00072
       7 <- 45         0.00361
       7 <- 47         0.00268
       7 <- 51         0.00086
       7 <- 54         0.00109
       8 <- 27         0.00170
       8 <- 38         0.00061
       8 <- 46         0.00571

 Excited State   4:      Singlet-B2     6.9292 eV  178.93 nm  f=0.0130  <S**2>=0.000
       3 -> 12         0.00185
       3 -> 15         0.00021
       3 -> 19         0.00182
       3 -> 22        -0.00032
       3 -> 25         0.00094
       3 -> 30         0.00048
       3 -> 33         0.00033
       3 -> 35        -0.00086
       3 -> 40        -0.00053
       3 -> 49         0.00055
       3 -> 50        -0.00010
       3 -> 53        -0.00014
       4 -> 12        -0.00162
       4 -> 15         0.00235
       4 -> 19         0.00145
       4 -> 22        -0.00321
       4 -> 25         0.00285
       4 -> 35         0.00012
       4 -> 40         0.00042
       4 -> 42        -0.00012
       4 -> 49        -0.00011
       5 -> 10        -0.00814
       5 -> 11         0.00255
       5 -> 14         0.00907
       5 -> 16        -0.00384
       5 -> 17        -0.00404
       5 -> 20         0.00102
       5 -> 21        -0.00552
       5 -> 24        -0.00131
       5 -> 26         0.00180
       5 -> 29         0.00107
       5 -> 32        -0.00086
       5 -> 34         0.00102
       5 -> 36        -0.00032
       5 -> 41        -0.00065
       5 -> 43        -0.00031
       5 -> 47         0.00018
       5 -> 51        -0.00011
       5 -> 54         0.00014
       6 -> 12        -0.00224
       6 -> 15         0.00105
       6 -> 19        -0.00011
       6 -> 22        -0.00157
       6 -> 25         0.00072
       6 -> 30        -0.00028
       6 -> 33        -0.00039
       6 -> 35         0.00114
       6 -> 40         0.00045
       6 -> 50        -0.00011
       7 -> 38        -0.00084
       7 -> 46        -0.00060
       8 -> 10         0.70509
       8 -> 11         0.02475
       8 -> 14         0.03466
       8 -> 16        -0.01975
       8 -> 17        -0.01443
       8 -> 20         0.01501
       8 -> 21         0.00113
       8 -> 24         0.00074
       8 -> 26         0.00386
       8 -> 29         0.00252
       8 -> 32         0.00088
       8 -> 39         0.00028
       8 -> 41        -0.00038
       8 -> 43         0.00062
       8 -> 45         0.00054
       8 -> 47         0.00040
       8 -> 51        -0.00053
       8 -> 54         0.00037
       3 <- 12         0.00042
       3 <- 15         0.00035
       3 <- 19         0.00074
       3 <- 22        -0.00063
       3 <- 25         0.00046
       3 <- 33         0.00028
       3 <- 35        -0.00073
       3 <- 40        -0.00050
       3 <- 49         0.00060
       3 <- 53        -0.00021
       4 <- 12         0.00075
       4 <- 15         0.00209
       4 <- 19         0.00139
       4 <- 22        -0.00216
       4 <- 25         0.00186
       4 <- 33         0.00013
       4 <- 42        -0.00021
       4 <- 50        -0.00013
       5 <- 10         0.00207
       5 <- 11         0.00034
       5 <- 14         0.00435
       5 <- 16         0.00038
       5 <- 17        -0.00018
       5 <- 20         0.00028
       5 <- 21        -0.00135
       5 <- 24        -0.00243
       5 <- 26         0.00119
       5 <- 29         0.00019
       5 <- 32        -0.00083
       5 <- 34         0.00074
       5 <- 36        -0.00017
       5 <- 41        -0.00050
       5 <- 43        -0.00029
       6 <- 12        -0.00023
       6 <- 15        -0.00109
       6 <- 19         0.00089
       6 <- 22         0.00037
       6 <- 25         0.00024
       6 <- 30         0.00099
       6 <- 33        -0.00045
       6 <- 35         0.00110
       6 <- 40         0.00041
       6 <- 50        -0.00015
       6 <- 53         0.00028
       7 <- 27         0.00011
       7 <- 38        -0.00063
       7 <- 46        -0.00046
       8 <- 10        -0.00168
       8 <- 11         0.00199
       8 <- 14        -0.00398
       8 <- 16         0.00228
       8 <- 17         0.00090
       8 <- 20        -0.00038
       8 <- 21         0.00143
       8 <- 24         0.00086
       8 <- 26        -0.00113
       8 <- 32         0.00032
       8 <- 36         0.00038
       8 <- 39        -0.00013
       8 <- 41        -0.00018
       8 <- 43         0.00027
       8 <- 45         0.00062
       8 <- 51        -0.00022
       8 <- 54         0.00011

 Excited State   5:      Singlet-B2     7.4907 eV  165.52 nm  f=0.0256  <S**2>=0.000
       3 -> 12         0.00042
       3 -> 15         0.00170
       3 -> 19        -0.00201
       3 -> 22        -0.00054
       3 -> 25         0.00040
       3 -> 30        -0.00343
       3 -> 33        -0.00019
       3 -> 35         0.00115
       3 -> 40         0.00091
       3 -> 49        -0.00112
       3 -> 50         0.00016
       4 -> 12        -0.00182
       4 -> 15        -0.00096
       4 -> 19        -0.00051
       4 -> 22         0.00139
       4 -> 25        -0.00198
       4 -> 30         0.00180
       4 -> 33        -0.00048
       4 -> 35         0.00066
       4 -> 40        -0.00012
       4 -> 49        -0.00012
       5 -> 10        -0.00085
       5 -> 11         0.00118
       5 -> 14        -0.01100
       5 -> 16        -0.00447
       5 -> 17         0.00266
       5 -> 20         0.00367
       5 -> 21         0.00404
       5 -> 24         0.00060
       5 -> 26        -0.00197
       5 -> 29        -0.00147
       5 -> 32        -0.00076
       5 -> 34        -0.00051
       5 -> 36         0.00074
       5 -> 39        -0.00076
       5 -> 41         0.00051
       5 -> 43        -0.00031
       5 -> 45        -0.00091
       5 -> 47        -0.00039
       5 -> 51         0.00051
       6 -> 12         0.00199
       6 -> 15         0.00043
       6 -> 19         0.00099
       6 -> 22        -0.00087
       6 -> 25        -0.00015
       6 -> 30        -0.00133
       6 -> 33         0.00047
       6 -> 35        -0.00150
       6 -> 40        -0.00141
       6 -> 42        -0.00017
       6 -> 49         0.00168
       6 -> 50        -0.00016
       6 -> 53        -0.00017
       7 -> 27        -0.00067
       7 -> 38         0.00062
       7 -> 46         0.00281
       8 -> 10        -0.02180
       8 -> 11         0.70359
       8 -> 14        -0.01798
       8 -> 16         0.05459
       8 -> 17         0.03097
       8 -> 20         0.01122
       8 -> 21         0.00079
       8 -> 24        -0.00328
       8 -> 26        -0.00081
       8 -> 29        -0.00466
       8 -> 32        -0.00033
       8 -> 34        -0.00046
       8 -> 36         0.00083
       8 -> 39         0.00020
       8 -> 41         0.00074
       8 -> 43        -0.00037
       8 -> 45        -0.00345
       8 -> 47        -0.00089
       8 -> 51         0.00161
       8 -> 54        -0.00033
       3 <- 12        -0.00031
       3 <- 15         0.00060
       3 <- 19        -0.00134
       3 <- 30        -0.00169
       3 <- 33        -0.00028
       3 <- 35         0.00101
       3 <- 40         0.00084
       3 <- 49        -0.00109
       3 <- 50         0.00012
       3 <- 53         0.00051
       4 <- 15        -0.00096
       4 <- 19         0.00010
       4 <- 22         0.00123

 The electronic state is 1-A1.
 Alpha  occ. eigenvalues --  -19.16446 -10.30991  -0.97810  -0.67696  -0.48945
 Alpha  occ. eigenvalues --   -0.43692  -0.35865  -0.28976
 Alpha virt. eigenvalues --   -0.11567   0.00034   0.03028   0.04147   0.06200
 Alpha virt. eigenvalues --    0.11700   0.15684   0.18691   0.19048   0.21708
 Alpha virt. eigenvalues --    0.23783   0.30094   0.40599   0.43021   0.50970

 Mulliken charges:
               1
     1  C   -0.027277
     2  H    0.157983
     3  H    0.157983
     4  O   -0.288689
 Sum of Mulliken charges =  -0.00000

 Dipole moment (field-independent basis, Debye):
    X=             -0.0000    Y=             -0.0000    Z=             -3.3160  Tot=              3.3160
 Quadrupole moment (field-independent basis, Debye-Ang):
   XX=            -12.3632   YY=            -11.7776   ZZ=            -11.8246
   XY=              0.0000   XZ=              0.0000   YZ=             -0.0000

 Normal termination of Gaussian 16 at Fri Sep 17 10:52:51 2021.
