 Gaussian 16, Revision C.01,
 Gaussian 16:  ES64L-G16RevC.01  3-Jul-2019

 ----------------------------------------
 #P wB97XD/6-311+G* NoSymm #P Field=Z-204
 ----------------------------------------

 -------
 TitleMe
 -------
 Symbolic Z-matrix:
 Charge =  1 Multiplicity = 1

                          Input orientation:
 ---------------------------------------------------------------------
 Center     Atomic      Atomic             Coordinates (Angstroms)
 Number     Number       Type             X           Y           Z
 ---------------------------------------------------------------------
      1          6           0        0.519300    1.233000   -0.031900
      2          6           0        1.944500    1.269200   -0.036700
      3          6           0        2.620400    0.092800   -0.025000
      4          6           0       -0.196000    0.030100    0.001000
      5          1           0       -0.020700    2.174200   -0.043400
      6          1           0        2.482800    2.208900   -0.036100
      7          1           0       -1.277700    0.039900    0.011700
      8          7           0        4.092100    0.095900    0.036600
      9          8           0        4.639300   -1.021700    0.144600
     10          8           0        4.664900    1.198400   -0.023300
     11          6           0        0.494300   -1.167100    0.021000
     12          1           0       -0.032500   -2.114900    0.054500
     13          6           0        1.962900   -1.216500   -0.021100
     14          1           0        2.443600   -1.963100    0.615100
     15         35           0        2.173000   -1.949100   -1.906200
 ---------------------------------------------------------------------

 SCF Done:  E(RwB97XD) =  -3010.54056459     A.U. after   21 cycles

 Alpha  occ. eigenvalues -- -483.34711 -62.89775 -56.69409 -56.68921 -56.68917
 Alpha  occ. eigenvalues --  -19.46815 -19.46753 -14.86257 -10.60418 -10.60044
 Alpha  occ. eigenvalues --  -10.58551 -10.58416 -10.54566 -10.53867  -9.05610
 Alpha  occ. eigenvalues --   -6.88129  -6.86505  -6.86494  -2.98071  -2.97636
 Alpha  occ. eigenvalues --   -2.97626  -2.96325  -2.96325  -1.50472  -1.33417
 Alpha  occ. eigenvalues --   -1.23880  -1.14798  -1.13675  -1.07265  -1.01643
 Alpha  occ. eigenvalues --   -0.96676  -0.91744  -0.85788  -0.81853  -0.81175
 Alpha  occ. eigenvalues --   -0.80828  -0.78998  -0.76986  -0.76684  -0.73901
 Alpha  occ. eigenvalues --   -0.69787  -0.68793  -0.65286  -0.62409  -0.60380
 Alpha  occ. eigenvalues --   -0.58123  -0.57765  -0.56554  -0.56260
 Alpha virt. eigenvalues --   -0.31840  -0.21385  -0.19329  -0.16625  -0.14224
 Alpha virt. eigenvalues --   -0.12931  -0.11449  -0.09206  -0.07958  -0.07081
 Alpha virt. eigenvalues --   -0.05424  -0.05021  -0.02985  -0.02373  -0.01855

 Mulliken charges:
               1
     1  C   -0.057502
     2  C    0.095498
     3  C   -0.098244
     4  C   -0.359867
     5  H    0.352148
     6  H    0.357334
     7  H    0.340150
     8  N   -0.202325
     9  O    0.092076
    10  O    0.075593
    11  C   -0.141843
    12  H    0.365844
    13  C   -0.275378
    14  H    0.476771
    15  Br  -0.020254
 Sum of Mulliken charges =   1.00000

 Dipole moment (field-independent basis, Debye):
    X=              2.5133    Y=             -0.1108    Z=              2.9156  Tot=              3.8509
 Quadrupole moment (field-independent basis, Debye-Ang):
   XX=            -67.7798   YY=            -52.4567   ZZ=            -67.2621
   XY=             -1.3956   XZ=              4.9905   YZ=             -1.1328

 Normal termination of Gaussian 16 at Thu May  2 14:21:13 2024.
