 Gaussian 16, Revision C.01,
 Gaussian 16:  ES64L-G16RevC.01  3-Jul-2019

 ---------------------------------------
 #P wB97XD/6-311+G* NoSymm #P Field=Y-58
 ---------------------------------------

 -------
 TitleMe
 -------
 Symbolic Z-matrix:
 Charge =  1 Multiplicity = 1

                          Input orientation:
 ---------------------------------------------------------------------
 Center     Atomic      Atomic             Coordinates (Angstroms)
 Number     Number       Type             X           Y           Z
 ---------------------------------------------------------------------
      1          6           0        0.519300    1.233000   -0.031900
      2          6           0        1.944500    1.269200   -0.036700
      3          6           0        2.620400    0.092800   -0.025000
      4          6           0       -0.196000    0.030100    0.001000
      5          1           0       -0.020700    2.174200   -0.043400
      6          1           0        2.482800    2.208900   -0.036100
      7          1           0       -1.277700    0.039900    0.011700
      8          7           0        4.092100    0.095900    0.036600
      9          8           0        4.639300   -1.021700    0.144600
     10          8           0        4.664900    1.198400   -0.023300
     11          6           0        0.494300   -1.167100    0.021000
     12          1           0       -0.032500   -2.114900    0.054500
     13          6           0        1.962900   -1.216500   -0.021100
     14          1           0        2.443600   -1.963100    0.615100
     15         35           0        2.173000   -1.949100   -1.906200
 ---------------------------------------------------------------------

 SCF Done:  E(RwB97XD) =  -3010.53177995     A.U. after   19 cycles

 Alpha  occ. eigenvalues -- -483.31933 -62.86966 -56.66648 -56.66092 -56.66085
 Alpha  occ. eigenvalues --  -19.46285 -19.46181 -14.85665 -10.59284 -10.58745
 Alpha  occ. eigenvalues --  -10.57646 -10.56964 -10.53205 -10.52924  -9.02778
 Alpha  occ. eigenvalues --   -6.85428  -6.83602  -6.83581  -2.95339  -2.94856
 Alpha  occ. eigenvalues --   -2.94838  -2.93377  -2.93376  -1.49923  -1.32880
 Alpha  occ. eigenvalues --   -1.22686  -1.13110  -1.12673  -1.05243  -1.00541
 Alpha  occ. eigenvalues --   -0.95564  -0.90714  -0.85075  -0.80992  -0.80336
 Alpha  occ. eigenvalues --   -0.80092  -0.78108  -0.76209  -0.75771  -0.72280
 Alpha  occ. eigenvalues --   -0.68701  -0.67626  -0.63551  -0.60262  -0.57521
 Alpha  occ. eigenvalues --   -0.57247  -0.56715  -0.55917  -0.55037
 Alpha virt. eigenvalues --   -0.30373  -0.20408  -0.16243  -0.13218  -0.09962
 Alpha virt. eigenvalues --   -0.06712  -0.05888  -0.05829  -0.04276  -0.03188
 Alpha virt. eigenvalues --   -0.02847  -0.02227  -0.02194  -0.01427  -0.00605

 Mulliken charges:
               1
     1  C   -0.112911
     2  C    0.188471
     3  C   -0.064820
     4  C   -0.318362
     5  H    0.369128
     6  H    0.371923
     7  H    0.332294
     8  N   -0.237871
     9  O    0.056453
    10  O    0.103283
    11  C   -0.207770
    12  H    0.335380
    13  C   -0.352742
    14  H    0.397082
    15  Br   0.140461
 Sum of Mulliken charges =   1.00000

 Dipole moment (field-independent basis, Debye):
    X=              2.6958    Y=              0.7961    Z=             -0.5207  Tot=              2.8587
 Quadrupole moment (field-independent basis, Debye-Ang):
   XX=            -67.9384   YY=            -52.0585   ZZ=            -62.7945
   XY=              0.5771   XZ=             -2.0590   YZ=              1.5597

 Normal termination of Gaussian 16 at Thu May  2 14:18:44 2024.
