 Gaussian 16, Revision A.03,
 Gaussian 16:  ES64L-G16RevA.03 25-Dec-2016

 --------------------------------------------------------------------
 #p B3LYP/6-311+G** #p TD=(singlets,nstates=30)IOp(6/8=3) IOp(9/40=4)
 --------------------------------------------------------------------

 -------------------------------
 Scan Step 142, Bond Length 1.21
 -------------------------------
 Symbolic Z-matrix:
 Charge =  0 Multiplicity = 1

                         Standard orientation:
 ---------------------------------------------------------------------
 Center     Atomic      Atomic             Coordinates (Angstroms)
 Number     Number       Type             X           Y           Z
 ---------------------------------------------------------------------
      1          6           0        0.000000   -0.000000   -0.531081
      2          1           0        0.000000    0.937260   -1.122431
      3          1           0       -0.000000   -0.937260   -1.122431
      4          8           0        0.000000    0.000000    0.678919
 ---------------------------------------------------------------------

 SCF Done:  E(RB3LYP) =  -114.541637004     A.U. after    9 cycles

 Excitation energies and oscillator strengths:

 Excited State   1:      Singlet-A2     3.9139 eV  316.78 nm  f=0.0000  <S**2>=0.000
       3 -> 27         0.00248
       3 -> 38         0.00209
       3 -> 45         0.00248
       4 -> 27         0.00192
       4 -> 38        -0.00056
       4 -> 45        -0.00130
       5 ->  9         0.02102
       5 -> 13        -0.00323
       5 -> 17         0.00565
       5 -> 23        -0.00024
       5 -> 29         0.00436
       5 -> 31        -0.00230
       5 -> 37         0.00343
       5 -> 44         0.00062
       5 -> 47         0.00015
       5 -> 52         0.00077
       6 -> 27        -0.00010
       6 -> 38        -0.00083
       6 -> 45         0.00178
       7 -> 12        -0.00062
       7 -> 15         0.00281
       7 -> 18        -0.00276
       7 -> 22         0.00073
       7 -> 25         0.00142
       7 -> 30        -0.00092
       7 -> 33         0.00043
       7 -> 35        -0.00028
       7 -> 40         0.00025
       7 -> 42        -0.00010
       7 -> 49         0.00036
       7 -> 50         0.00032
       7 -> 53         0.00046
       8 ->  9         0.70537
       8 -> 13        -0.04392
       8 -> 17         0.02311
       8 -> 23        -0.01035
       8 -> 29         0.00903
       8 -> 31        -0.00261
       8 -> 37        -0.00016
       8 -> 44        -0.00013
       8 -> 47        -0.00025
       8 -> 52         0.00167
       3 <- 27         0.00161
       3 <- 38         0.00174
       3 <- 45         0.00257
       4 <- 27         0.00274
       4 <- 45        -0.00110
       5 <-  9        -0.00040
       5 <- 13        -0.00083
       5 <- 17        -0.00098
       5 <- 23         0.00054
       5 <- 29        -0.00066
       5 <- 31         0.00090
       5 <- 37         0.00163
       5 <- 44         0.00026
       5 <- 47         0.00016
       5 <- 52         0.00020
       6 <- 27         0.00046
       6 <- 38        -0.00074
       6 <- 45         0.00139
       7 <- 12        -0.00080
       7 <- 15        -0.00717
       7 <- 18         0.00023
       7 <- 22         0.00731
       7 <- 25        -0.00016
       7 <- 30         0.00339
       7 <- 33        -0.00132
       7 <- 35        -0.00240
       7 <- 40         0.00098
       7 <- 42         0.00011
       7 <- 49         0.00016
       7 <- 50         0.00021
       7 <- 53         0.00128
       8 <-  9        -0.02407
       8 <- 13         0.00311
       8 <- 17        -0.00432
       8 <- 23         0.00080
       8 <- 29        -0.00095
       8 <- 31        -0.00087
       8 <- 37        -0.00147
       8 <- 52         0.00048
 This state for optimization and/or second-order correction.
 Total Energy, E(TD-HF/TD-DFT) =  -114.397805625
 Copying the excited state density for this state as the 1-particle RhoCI density.

 Excited State   2:      Singlet-B2     6.8635 eV  180.64 nm  f=0.0301  <S**2>=0.000
       3 -> 12         0.00149
       3 -> 15         0.00071
       3 -> 18         0.00118
       3 -> 22        -0.00031
       3 -> 25         0.00129
       3 -> 33         0.00019
       3 -> 35         0.00040
       4 -> 12        -0.00320
       4 -> 15         0.00181
       4 -> 18         0.00209
       4 -> 22        -0.00333
       4 -> 25         0.00338
       4 -> 30         0.00029
       4 -> 33        -0.00052
       4 -> 35        -0.00062
       4 -> 40         0.00046
       4 -> 42        -0.00011
       5 -> 10        -0.00660
       5 -> 11        -0.00869
       5 -> 14         0.00700
       5 -> 16        -0.00086
       5 -> 19         0.00040
       5 -> 20         0.00219
       5 -> 21         0.00578
       5 -> 26         0.00250
       5 -> 28         0.00123
       5 -> 32         0.00088
       5 -> 34        -0.00101
       5 -> 36        -0.00020
       5 -> 39        -0.00030
       5 -> 41        -0.00035
       5 -> 43        -0.00054
       5 -> 46        -0.00035
       5 -> 54         0.00011
       6 -> 15         0.00151
       6 -> 18         0.00214
       6 -> 22        -0.00255
       6 -> 25         0.00120
       6 -> 30        -0.00051
       6 -> 33        -0.00022
       6 -> 35        -0.00035
       6 -> 40        -0.00014
       6 -> 42        -0.00020
       6 -> 49         0.00047
       6 -> 50        -0.00033
       7 -> 27         0.00019
       7 -> 38        -0.00055
       7 -> 45         0.00044
       8 -> 10         0.70307
       8 -> 11        -0.07033
       8 -> 14         0.01334
       8 -> 16        -0.00630
       8 -> 19         0.01125
       8 -> 20         0.01454
       8 -> 21        -0.00306
       8 -> 24         0.00020
       8 -> 26         0.00241
       8 -> 28         0.00074
       8 -> 32        -0.00099
       8 -> 34         0.00128
       8 -> 36         0.00040
       8 -> 39         0.00038
       8 -> 41        -0.00018
       8 -> 43         0.00062
       8 -> 46        -0.00063
       8 -> 48        -0.00014
       8 -> 54         0.00019
       3 <- 12         0.00036
       3 <- 15         0.00054
       3 <- 18         0.00045
       3 <- 22        -0.00045
       3 <- 25         0.00076
       3 <- 30        -0.00011
       3 <- 33         0.00016
       3 <- 35         0.00036
       3 <- 40        -0.00012
       4 <- 12         0.00074
       4 <- 15         0.00191
       4 <- 18         0.00201
       4 <- 22        -0.00205
       4 <- 25         0.00232
       4 <- 30         0.00021
       4 <- 33        -0.00030
       4 <- 35        -0.00035
       4 <- 40         0.00014
       4 <- 42        -0.00023
       4 <- 50        -0.00012
       5 <- 10         0.00239
       5 <- 11        -0.00025
       5 <- 14         0.00486
       5 <- 16        -0.00075
       5 <- 20         0.00080
       5 <- 21         0.00212
       5 <- 24         0.00189
       5 <- 26         0.00155
       5 <- 28         0.00018
       5 <- 32         0.00060
       5 <- 34        -0.00097
       5 <- 36        -0.00028
       5 <- 39        -0.00016
       5 <- 41        -0.00016
       5 <- 43        -0.00041
       5 <- 46        -0.00031
       6 <- 12         0.00011
       6 <- 18         0.00120
       6 <- 22        -0.00073
       6 <- 25         0.00041
       6 <- 30         0.00030
       6 <- 33        -0.00028
       6 <- 35        -0.00046
       6 <- 40        -0.00014
       6 <- 42        -0.00018
       6 <- 49         0.00039
       6 <- 50        -0.00034
       6 <- 53         0.00014
       7 <- 27         0.00017
       7 <- 38        -0.00041
       7 <- 45         0.00039
       8 <- 10        -0.00179
       8 <- 11        -0.00052
       8 <- 14        -0.00554
       8 <- 16        -0.00039
       8 <- 19        -0.00015
       8 <- 20        -0.00057
       8 <- 21        -0.00193
       8 <- 24        -0.00230
       8 <- 26        -0.00067
       8 <- 28        -0.00057
       8 <- 32        -0.00109
       8 <- 34         0.00032
       8 <- 36         0.00036
       8 <- 39         0.00030
       8 <- 43         0.00043
       8 <- 46        -0.00040

 Excited State   3:      Singlet-B2     7.6467 eV  162.14 nm  f=0.0255  <S**2>=0.000
       3 -> 12        -0.00031
       3 -> 15        -0.00080
       3 -> 18         0.00086
       3 -> 22         0.00042
       3 -> 25         0.00015
       3 -> 30         0.00213
       3 -> 33         0.00014
       3 -> 35         0.00048
       3 -> 40        -0.00044
       3 -> 49         0.00046
       3 -> 50        -0.00022
       4 -> 12         0.00273
       4 -> 18         0.00239
       4 -> 22        -0.00149
       4 -> 25         0.00300
       4 -> 30        -0.00125
       4 -> 33         0.00050
       4 -> 35         0.00054
       4 -> 42        -0.00013
       4 -> 49         0.00024
       5 -> 10        -0.00708
       5 -> 11        -0.00011
       5 -> 14         0.00861
       5 -> 16        -0.00712
       5 -> 19        -0.00222
       5 -> 20        -0.00454
       5 -> 21         0.00158
       5 -> 24         0.00110
       5 -> 26         0.00101
       5 -> 28         0.00162
       5 -> 32         0.00021
       5 -> 34        -0.00112
       5 -> 36        -0.00026
       5 -> 39         0.00041
       5 -> 41        -0.00074
       5 -> 43         0.00014
       5 -> 46         0.00088
       5 -> 51        -0.00041
       6 -> 12        -0.00307
       6 -> 15        -0.00174
       6 -> 18        -0.00089
       6 -> 22         0.00128
       6 -> 25         0.00015
       6 -> 30         0.00100
       6 -> 33        -0.00054
       6 -> 35        -0.00149
       6 -> 40         0.00104
       6 -> 49        -0.00113
       6 -> 50         0.00044
       6 -> 53         0.00011
       7 -> 38        -0.00093
       7 -> 45        -0.00178
       8 -> 10         0.07075
       8 -> 11         0.70263
       8 -> 14        -0.00589
       8 -> 16         0.01069
       8 -> 19        -0.03023
       8 -> 20         0.00625
       8 -> 21        -0.00286
       8 -> 24         0.00036
       8 -> 26        -0.00127
       8 -> 28         0.00116
       8 -> 32        -0.00021
       8 -> 34        -0.00019
       8 -> 36        -0.00012
       8 -> 39        -0.00022
       8 -> 41        -0.00122
       8 -> 43         0.00031
       8 -> 46         0.00195
       8 -> 48         0.00012
       8 -> 51        -0.00097
       8 -> 54        -0.00010
       3 <- 12         0.00034
       3 <- 15        -0.00025
       3 <- 18         0.00091
       3 <- 25         0.00030
       3 <- 30         0.00120
       3 <- 33         0.00024
       3 <- 35         0.00053
       3 <- 40        -0.00040
       3 <- 49         0.00040
       3 <- 50        -0.00015
       3 <- 53        -0.00028
       4 <- 12         0.00033
       4 <- 15         0.00075
       4 <- 18         0.00058
       4 <- 22        -0.00114
       4 <- 25         0.00125
       4 <- 30        -0.00061
       4 <- 33         0.00046
       4 <- 35         0.00020
       4 <- 42        -0.00014
       4 <- 49         0.00018
       4 <- 50        -0.00011
       5 <- 10         0.00125
       5 <- 11        -0.00120
       5 <- 14         0.00260
       5 <- 16        -0.00043
       5 <- 19         0.00112
       5 <- 20        -0.00046
       5 <- 21         0.00076
       5 <- 24         0.00136
       5 <- 28         0.00071
       5 <- 32         0.00103
       5 <- 34        -0.00013
       5 <- 36         0.00016
       5 <- 39         0.00011
       5 <- 41        -0.00077
       5 <- 46         0.00082
       5 <- 48         0.00014
       5 <- 51        -0.00031
       6 <- 12        -0.00031
       6 <- 15        -0.00073
       6 <- 18         0.00014
       6 <- 22         0.00073
       6 <- 25        -0.00011
       6 <- 30         0.00077
       6 <- 33        -0.00040
       6 <- 35        -0.00122
       6 <- 40         0.00080
       6 <- 49        -0.00092
       6 <- 50         0.00035
       7 <- 27         0.00022
       7 <- 38        -0.00074
       7 <- 45        -0.00149
       8 <- 10        -0.00070
       8 <- 11        -0.00094
       8 <- 14        -0.00370
       8 <- 16         0.00045
       8 <- 19         0.00431
       8 <- 20        -0.00088
       8 <- 21        -0.00202
       8 <- 24         0.00037
       8 <- 26        -0.00167
       8 <- 28         0.00033
       8 <- 32         0.00115
       8 <- 34         0.00137
       8 <- 39        -0.00056
       8 <- 41        -0.00108
       8 <- 43         0.00016
       8 <- 46         0.00155
       8 <- 48         0.00025
       8 <- 51        -0.00066

 Excited State   4:      Singlet-A1     7.8492 eV  157.96 nm  f=0.0479  <S**2>=0.000
       3 -> 10         0.00198
       3 -> 11        -0.00076
       3 -> 14         0.00098
       3 -> 16        -0.00012
       3 -> 19        -0.00050
       3 -> 20         0.00199
       3 -> 21         0.00089
       3 -> 24        -0.00070
       3 -> 26         0.00122
       3 -> 28         0.00091
       3 -> 34        -0.00068
       3 -> 36        -0.00018
       3 -> 41        -0.00021
       3 -> 46         0.00015
       3 -> 48         0.00031
       3 -> 51        -0.00019
       3 -> 54        -0.00019
       4 -> 10         0.00479
       4 -> 11         0.00541
       4 -> 14         0.00475
       4 -> 16         0.00048
       4 -> 19         0.00022
       4 -> 20         0.00374
       4 -> 21         0.00035
       4 -> 24         0.00707
       4 -> 26         0.00183
       4 -> 28        -0.00036
       4 -> 32         0.00064
       4 -> 43         0.00016
       4 -> 46        -0.00020
       4 -> 51        -0.00015
       5 -> 12         0.00605
       5 -> 15         0.00254
       5 -> 18         0.01012
       5 -> 22        -0.00235
       5 -> 25         0.00538
       5 -> 30        -0.00021
       5 -> 33        -0.00017
       5 -> 35        -0.00075
       5 -> 50         0.00022
       5 -> 53        -0.00013
       6 -> 10         0.01188
       6 -> 11        -0.00246
       6 -> 14         0.00435
       6 -> 16         0.00065
       6 -> 19         0.00203
       6 -> 20         0.00361
       6 -> 21         0.00019
       6 -> 24         0.00387
       6 -> 26        -0.00013
       6 -> 28        -0.00195
       6 -> 32         0.00039
       6 -> 39         0.00014
       6 -> 43         0.00014
       6 -> 48        -0.00067
       6 -> 51         0.00020
       6 -> 54        -0.00011
       7 ->  9         0.02130
       7 -> 13         0.01095
       7 -> 17         0.00206
       7 -> 23         0.00521
       7 -> 29        -0.00064
       7 -> 31        -0.00092
       7 -> 37         0.00058
       7 -> 44         0.00064
       7 -> 47        -0.00033
       7 -> 52        -0.00011
       8 -> 12         0.70572
       8 -> 15        -0.00556
       8 -> 18         0.03013
       8 -> 22         0.00389
       8 -> 25         0.00401
       8 -> 33         0.00160
       8 -> 35         0.00197
       8 -> 40         0.00053
       8 -> 42         0.00017
       8 -> 49        -0.00045
       8 -> 50         0.00027
       8 -> 53        -0.00024
       3 <- 10         0.00062
       3 <- 11         0.00011
       3 <- 14         0.00052
       3 <- 16         0.00010
       3 <- 19        -0.00042
       3 <- 20         0.00090
       3 <- 21         0.00061
       3 <- 24        -0.00014
       3 <- 26         0.00081
       3 <- 28         0.00061
       3 <- 32        -0.00021
       3 <- 34        -0.00047
       3 <- 36        -0.00014
       3 <- 41        -0.00013
       3 <- 46         0.00024
       3 <- 48         0.00025
       3 <- 51        -0.00016
       3 <- 54        -0.00017
       4 <- 10         0.00415
       4 <- 11         0.00120
       4 <- 14         0.00351
       4 <- 16        -0.00011
       4 <- 20         0.00216
       4 <- 24         0.00383
       4 <- 26         0.00114
       4 <- 32         0.00079
       4 <- 34        -0.00037
       4 <- 39        -0.00014
       4 <- 43         0.00012
       4 <- 46        -0.00016
       4 <- 51        -0.00013
       5 <- 12         0.00271
       5 <- 15         0.00268
       5 <- 18         0.00356
       5 <- 22        -0.00086
       5 <- 25         0.00292
       5 <- 30        -0.00015
       5 <- 33        -0.00035
       5 <- 35        -0.00069
       5 <- 50         0.00013
       5 <- 53        -0.00011
       6 <- 10         0.00289
       6 <- 14         0.00166
       6 <- 16         0.00017
       6 <- 19         0.00051
       6 <- 20         0.00166
       6 <- 21        -0.00012
       6 <- 24         0.00189
       6 <- 26         0.00013
       6 <- 28        -0.00127
       6 <- 32         0.00040
       6 <- 34        -0.00013
       6 <- 41         0.00012
       6 <- 46        -0.00014
       6 <- 48        -0.00056
       6 <- 51         0.00023
       7 <-  9        -0.00011
       7 <- 13         0.00237
       7 <- 17         0.00036
       7 <- 23         0.00262
       7 <- 29        -0.00051
       7 <- 31        -0.00063
       7 <- 37         0.00045
       7 <- 44         0.00053
       7 <- 47        -0.00029
       8 <- 12        -0.00074
       8 <- 15        -0.00519
       8 <- 18        -0.00175
       8 <- 22         0.00060
       8 <- 25        -0.00161
       8 <- 30        -0.00076
       8 <- 33         0.00066
       8 <- 35         0.00081
       8 <- 40         0.00055
       8 <- 42         0.00016
       8 <- 49        -0.00046
       8 <- 50         0.00018
       8 <- 53        -0.00024

 Excited State   5:      Singlet-A2     8.3579 eV  148.34 nm  f=0.0000  <S**2>=0.000
       3 -> 27        -0.00044
       3 -> 38        -0.00039
       3 -> 45        -0.00021
       4 -> 27         0.00019
       4 -> 38         0.00047
       5 ->  9        -0.00521
       5 -> 13        -0.00484
       5 -> 17         0.00662
       5 -> 23        -0.00206
       5 -> 29        -0.00017
       5 -> 31         0.00140
       5 -> 37        -0.00092
       5 -> 44        -0.00019
       6 -> 27         0.00023
       6 -> 38         0.00029
       6 -> 45        -0.00021
       7 -> 12        -0.00017
       7 -> 15        -0.00189
       7 -> 18         0.00202
       7 -> 22        -0.00070
       7 -> 35         0.00013
       7 -> 40        -0.00010
       8 ->  9         0.04354
       8 -> 13         0.70520
       8 -> 17         0.02047
       8 -> 23         0.01657
       8 -> 29         0.00021
       8 -> 31         0.00163
       8 -> 37        -0.00036
       8 -> 47         0.00017
       3 <- 27        -0.00012
       3 <- 38        -0.00024
       3 <- 45        -0.00028
       4 <- 27        -0.00010
       5 <-  9        -0.00034
       5 <- 13        -0.00033
       5 <- 17         0.00051
       5 <- 37        -0.00019
       6 <- 38         0.00019
       7 <- 12        -0.00058
       7 <- 15        -0.00102
       7 <- 18         0.00076
       7 <- 22        -0.00091
       7 <- 25        -0.00042
       7 <- 30         0.00022
       7 <- 33         0.00036
       7 <- 35         0.00058
       7 <- 40        -0.00035
       8 <-  9         0.00161
       8 <- 13         0.00128
       8 <- 17         0.00024
       8 <- 23        -0.00014
       8 <- 37         0.00012

 Excited State   6:      Singlet-B1     9.0078 eV  137.64 nm  f=0.0009  <S**2>=0.000
       3 ->  9        -0.03275
       3 -> 13         0.00603
       3 -> 17        -0.00736
       3 -> 23         0.00454
       3 -> 29        -0.00293
       3 -> 44         0.00072
       3 -> 52         0.00112
       4 ->  9         0.01699
       4 -> 13        -0.00281
       4 -> 17         0.00107
       4 -> 23        -0.00248
       4 -> 31        -0.00278
       4 -> 37        -0.00033
       4 -> 44        -0.00013
       4 -> 47        -0.00167
       4 -> 52        -0.00101

 The electronic state is 1-A1.
 Alpha  occ. eigenvalues --  -19.15157 -10.28023  -1.07245  -0.64665  -0.50581
 Alpha  occ. eigenvalues --   -0.46391  -0.41172  -0.28242
 Alpha virt. eigenvalues --   -0.06647   0.00756   0.03908   0.04258   0.06457
 Alpha virt. eigenvalues --    0.12892   0.17728   0.18592   0.21973   0.23230
 Alpha virt. eigenvalues --    0.26841   0.32701   0.45392   0.46384   0.50933

 Mulliken charges:
               1
     1  C    0.016868
     2  H    0.113630
     3  H    0.113630
     4  O   -0.244128
 Sum of Mulliken charges =  -0.00000

 Dipole moment (field-independent basis, Debye):
    X=             -0.0000    Y=             -0.0000    Z=             -2.5161  Tot=              2.5161
 Quadrupole moment (field-independent basis, Debye-Ang):
   XX=            -11.7733   YY=            -11.7391   ZZ=            -12.4201
   XY=              0.0000   XZ=              0.0000   YZ=              0.0000

 Normal termination of Gaussian 16 at Fri Sep 17 10:52:42 2021.
