 Gaussian 16, Revision A.03,
 Gaussian 16:  ES64L-G16RevA.03 25-Dec-2016

 --------------------------------------------------------------------
 #p B3LYP/6-311+G** #p TD=(singlets,nstates=30)IOp(6/8=3) IOp(9/40=4)
 --------------------------------------------------------------------

 --------------------------------
 Scan Step 125, Bond Length 1.125
 --------------------------------
 Symbolic Z-matrix:
 Charge =  0 Multiplicity = 1

                         Standard orientation:
 ---------------------------------------------------------------------
 Center     Atomic      Atomic             Coordinates (Angstroms)
 Number     Number       Type             X           Y           Z
 ---------------------------------------------------------------------
      1          6           0        0.000000    0.000000   -0.488581
      2          1           0        0.000000    0.937260   -1.079931
      3          1           0       -0.000000   -0.937260   -1.079931
      4          8           0        0.000000   -0.000000    0.636419
 ---------------------------------------------------------------------

 SCF Done:  E(RB3LYP) =  -114.530845430     A.U. after    9 cycles

 Excitation energies and oscillator strengths:

 Excited State   1:      Singlet-A2     4.4143 eV  280.87 nm  f=0.0000  <S**2>=0.000
       3 -> 27         0.00275
       3 -> 38         0.00232
       3 -> 45         0.00219
       4 -> 27         0.00234
       4 -> 38        -0.00066
       4 -> 45        -0.00117
       5 ->  9         0.02094
       5 -> 13        -0.00537
       5 -> 17         0.00602
       5 -> 23        -0.00127
       5 -> 29         0.00415
       5 -> 31         0.00280
       5 -> 36         0.00382
       5 -> 44         0.00067
       5 -> 47         0.00014
       5 -> 52         0.00084
       6 -> 27         0.00018
       6 -> 38        -0.00074
       6 -> 45         0.00173
       7 -> 12        -0.00062
       7 -> 16         0.00228
       7 -> 18        -0.00233
       7 -> 22         0.00115
       7 -> 24         0.00136
       7 -> 30        -0.00081
       7 -> 33         0.00040
       7 -> 35         0.00039
       7 -> 40        -0.00035
       7 -> 48         0.00050
       7 -> 50         0.00026
       7 -> 53         0.00044
       8 ->  9         0.70396
       8 -> 13        -0.06037
       8 -> 17         0.02404
       8 -> 23        -0.01150
       8 -> 29         0.00796
       8 -> 31         0.00323
       8 -> 36        -0.00073
       8 -> 44        -0.00019
       8 -> 47        -0.00022
       8 -> 52         0.00152
       3 <- 27         0.00186
       3 <- 38         0.00196
       3 <- 45         0.00227
       4 <- 27         0.00316
       4 <- 45        -0.00103
       5 <-  9        -0.00017
       5 <- 13        -0.00089
       5 <- 17        -0.00085
       5 <- 23         0.00055
       5 <- 29        -0.00055
       5 <- 31        -0.00103
       5 <- 36         0.00176
       5 <- 44         0.00032
       5 <- 47         0.00017
       5 <- 52         0.00022
       6 <- 27         0.00067
       6 <- 38        -0.00068
       6 <- 45         0.00135
       7 <- 12        -0.00091
       7 <- 16        -0.00620
       7 <- 18        -0.00060
       7 <- 22         0.00696
       7 <- 24        -0.00048
       7 <- 30         0.00282
       7 <- 33        -0.00134
       7 <- 35         0.00253
       7 <- 40        -0.00102
       7 <- 42         0.00023
       7 <- 48         0.00033
       7 <- 50         0.00013
       7 <- 53         0.00118
       8 <-  9        -0.02011
       8 <- 13         0.00418
       8 <- 17        -0.00399
       8 <- 23         0.00078
       8 <- 29        -0.00068
       8 <- 31         0.00130
       8 <- 36        -0.00178
       8 <- 52         0.00044
 This state for optimization and/or second-order correction.
 Total Energy, E(TD-HF/TD-DFT) =  -114.368622270
 Copying the excited state density for this state as the 1-particle RhoCI density.

 Excited State   2:      Singlet-B2     6.7182 eV  184.55 nm  f=0.0435  <S**2>=0.000
       3 -> 12         0.00132
       3 -> 16         0.00068
       3 -> 18         0.00112
       3 -> 22        -0.00027
       3 -> 24         0.00131
       3 -> 30        -0.00011
       3 -> 33         0.00013
       3 -> 35        -0.00031
       4 -> 12        -0.00393
       4 -> 16         0.00143
       4 -> 18         0.00228
       4 -> 22        -0.00335
       4 -> 24         0.00365
       4 -> 30         0.00013
       4 -> 33        -0.00069
       4 -> 35         0.00075
       4 -> 40        -0.00049
       5 -> 10        -0.00441
       5 -> 11        -0.00931
       5 -> 14         0.00691
       5 -> 15        -0.00110
       5 -> 19         0.00213
       5 -> 20         0.00087
       5 -> 21         0.00517
       5 -> 26         0.00261
       5 -> 28         0.00177
       5 -> 32         0.00034
       5 -> 34        -0.00102
       5 -> 37        -0.00030
       5 -> 39        -0.00031
       5 -> 41        -0.00018
       5 -> 43        -0.00056
       5 -> 46        -0.00047
       5 -> 49         0.00011
       6 -> 12         0.00081
       6 -> 16         0.00134
       6 -> 18         0.00304
       6 -> 22        -0.00270
       6 -> 24         0.00148
       6 -> 30        -0.00041
       6 -> 33        -0.00016
       6 -> 35         0.00018
       6 -> 40         0.00021
       6 -> 42        -0.00024
       6 -> 48         0.00041
       6 -> 50        -0.00045
       7 -> 27         0.00035
       7 -> 38        -0.00040
       7 -> 45         0.00061
       8 -> 10         0.70415
       8 -> 11        -0.05928
       8 -> 14         0.00642
       8 -> 15        -0.00828
       8 -> 19         0.01571
       8 -> 20         0.01176
       8 -> 21        -0.00416
       8 -> 25         0.00058
       8 -> 26         0.00178
       8 -> 28         0.00061
       8 -> 32        -0.00040
       8 -> 34         0.00204
       8 -> 37         0.00048
       8 -> 39         0.00047
       8 -> 41        -0.00016
       8 -> 43         0.00067
       8 -> 46        -0.00079
       8 -> 54         0.00017
       3 <- 12         0.00035
       3 <- 16         0.00053
       3 <- 18         0.00046
       3 <- 22        -0.00038
       3 <- 24         0.00082
       3 <- 30        -0.00011
       3 <- 33         0.00011
       3 <- 35        -0.00029
       4 <- 12         0.00064
       4 <- 16         0.00172
       4 <- 18         0.00228
       4 <- 22        -0.00205
       4 <- 24         0.00256
       4 <- 30         0.00011
       4 <- 33        -0.00045
       4 <- 35         0.00047
       4 <- 40        -0.00019
       4 <- 42        -0.00020
       4 <- 48        -0.00011
       5 <- 10         0.00245
       5 <- 11        -0.00023
       5 <- 14         0.00496
       5 <- 15        -0.00100
       5 <- 19         0.00049
       5 <- 20         0.00054
       5 <- 21         0.00230
       5 <- 25         0.00172
       5 <- 26         0.00158
       5 <- 28         0.00041
       5 <- 32         0.00010
       5 <- 34        -0.00100
       5 <- 37        -0.00034
       5 <- 39        -0.00017
       5 <- 43        -0.00041
       5 <- 46        -0.00040
       5 <- 49         0.00011
       5 <- 51        -0.00010
       6 <- 12         0.00026
       6 <- 16        -0.00011
       6 <- 18         0.00149
       6 <- 22        -0.00089
       6 <- 24         0.00054
       6 <- 30         0.00033
       6 <- 33        -0.00023
       6 <- 35         0.00033
       6 <- 40         0.00020
       6 <- 42        -0.00023
       6 <- 48         0.00035
       6 <- 50        -0.00045
       6 <- 53         0.00012
       7 <- 27         0.00028
       7 <- 38        -0.00030
       7 <- 45         0.00053
       8 <- 10        -0.00231
       8 <- 11        -0.00063
       8 <- 14        -0.00713
       8 <- 19        -0.00037
       8 <- 20        -0.00043
       8 <- 21        -0.00260
       8 <- 25        -0.00266
       8 <- 26        -0.00028
       8 <- 28        -0.00069
       8 <- 32        -0.00091
       8 <- 34         0.00104
       8 <- 37         0.00046
       8 <- 39         0.00038
       8 <- 43         0.00049
       8 <- 46        -0.00053
       8 <- 51        -0.00012

 Excited State   3:      Singlet-B2     7.5135 eV  165.02 nm  f=0.0227  <S**2>=0.000
       3 -> 12        -0.00025
       3 -> 16        -0.00068
       3 -> 18         0.00066
       3 -> 22         0.00031
       3 -> 24         0.00025
       3 -> 30         0.00175
       3 -> 33         0.00013
       3 -> 35        -0.00038
       3 -> 40         0.00036
       3 -> 42        -0.00012
       3 -> 48         0.00033
       3 -> 50        -0.00026
       4 -> 12         0.00300
       4 -> 16        -0.00049
       4 -> 18         0.00297
       4 -> 22        -0.00153
       4 -> 24         0.00319
       4 -> 30        -0.00112
       4 -> 33         0.00052
       4 -> 35        -0.00046
       4 -> 42        -0.00017
       4 -> 48         0.00022
       4 -> 50        -0.00013
       5 -> 10        -0.00765
       5 -> 11         0.00018
       5 -> 14         0.00691
       5 -> 15        -0.00693
       5 -> 19        -0.00343
       5 -> 20        -0.00359
       5 -> 21         0.00105
       5 -> 25         0.00139
       5 -> 28         0.00158
       5 -> 32        -0.00024
       5 -> 34        -0.00148
       5 -> 37        -0.00014
       5 -> 39         0.00042
       5 -> 41        -0.00082
       5 -> 46         0.00083
       5 -> 51         0.00043
       6 -> 12        -0.00322
       6 -> 16        -0.00190
       6 -> 18        -0.00122
       6 -> 22         0.00143
       6 -> 24         0.00010
       6 -> 30         0.00074
       6 -> 33        -0.00048
       6 -> 35         0.00148
       6 -> 40        -0.00096
       6 -> 42         0.00013
       6 -> 48        -0.00091
       6 -> 50         0.00062
       6 -> 53         0.00012
       7 -> 27        -0.00029
       7 -> 38        -0.00106
       7 -> 45        -0.00156
       8 -> 10         0.05986
       8 -> 11         0.70365
       8 -> 14        -0.00978
       8 -> 15         0.01423
       8 -> 19        -0.02623
       8 -> 20         0.01052
       8 -> 21        -0.00234
       8 -> 25         0.00059
       8 -> 26        -0.00164
       8 -> 32        -0.00037
       8 -> 39        -0.00011
       8 -> 41        -0.00134
       8 -> 43         0.00020
       8 -> 46         0.00151
       8 -> 49        -0.00014
       8 -> 51         0.00088
       8 -> 54        -0.00015
       3 <- 12         0.00033
       3 <- 16        -0.00024
       3 <- 18         0.00082
       3 <- 24         0.00037
       3 <- 30         0.00103
       3 <- 33         0.00022
       3 <- 35        -0.00044
       3 <- 40         0.00032
       3 <- 42        -0.00010
       3 <- 48         0.00027
       3 <- 50        -0.00017
       3 <- 53        -0.00025
       4 <- 12         0.00035
       4 <- 16         0.00061
       4 <- 18         0.00079
       4 <- 22        -0.00117
       4 <- 24         0.00132
       4 <- 30        -0.00050
       4 <- 33         0.00048
       4 <- 35        -0.00010
       4 <- 42        -0.00018
       4 <- 48         0.00015
       4 <- 50        -0.00018
       5 <- 10         0.00129
       5 <- 11        -0.00096
       5 <- 14         0.00238
       5 <- 15        -0.00044
       5 <- 19         0.00087
       5 <- 20        -0.00029
       5 <- 21         0.00082
       5 <- 25         0.00122
       5 <- 26        -0.00036
       5 <- 28         0.00077
       5 <- 32         0.00095
       5 <- 34        -0.00070
       5 <- 37         0.00017
       5 <- 39         0.00016
       5 <- 41        -0.00084
       5 <- 46         0.00077
       5 <- 51         0.00035
       6 <- 12        -0.00034
       6 <- 16        -0.00042
       6 <- 22         0.00056
       6 <- 30         0.00040
       6 <- 33        -0.00030
       6 <- 35         0.00114
       6 <- 40        -0.00071
       6 <- 48        -0.00076
       6 <- 50         0.00051
       7 <- 38        -0.00085
       7 <- 45        -0.00132
       8 <- 10        -0.00073
       8 <- 11        -0.00012
       8 <- 14        -0.00404
       8 <- 15         0.00054
       8 <- 19         0.00338
       8 <- 20        -0.00129
       8 <- 21        -0.00208
       8 <- 25         0.00020
       8 <- 26        -0.00166
       8 <- 28        -0.00011
       8 <- 32         0.00122
       8 <- 34         0.00084
       8 <- 39        -0.00038
       8 <- 41        -0.00115
       8 <- 46         0.00120
       8 <- 51         0.00063

 Excited State   4:      Singlet-A1     7.6764 eV  161.51 nm  f=0.0532  <S**2>=0.000
       3 -> 10         0.00176
       3 -> 11        -0.00098
       3 -> 14         0.00068
       3 -> 15        -0.00026
       3 -> 19         0.00053
       3 -> 20         0.00143
       3 -> 21         0.00056
       3 -> 25        -0.00044
       3 -> 26         0.00103
       3 -> 28         0.00109
       3 -> 32        -0.00018
       3 -> 34        -0.00050
       3 -> 37        -0.00026
       3 -> 39         0.00010
       3 -> 41        -0.00021
       3 -> 46         0.00011
       3 -> 49         0.00023
       3 -> 51         0.00030
       3 -> 54        -0.00021
       4 -> 10         0.00512
       4 -> 11         0.00692
       4 -> 14         0.00535
       4 -> 15         0.00013
       4 -> 19         0.00038
       4 -> 20         0.00482
       4 -> 21         0.00168
       4 -> 25         0.00721
       4 -> 26         0.00126
       4 -> 28        -0.00044
       4 -> 32         0.00056
       4 -> 34        -0.00041
       4 -> 39        -0.00018
       4 -> 41         0.00015
       4 -> 43         0.00016
       4 -> 46        -0.00023
       4 -> 49        -0.00011
       4 -> 51         0.00015
       5 -> 12         0.00706
       5 -> 16         0.00115
       5 -> 18         0.01127
       5 -> 22        -0.00169
       5 -> 24         0.00525
       5 -> 33        -0.00016
       5 -> 35         0.00080
       5 -> 50         0.00029
       5 -> 53        -0.00015
       6 -> 10         0.01293
       6 -> 11        -0.00336
       6 -> 14         0.00437
       6 -> 15         0.00135
       6 -> 19         0.00359
       6 -> 20         0.00445
       6 -> 21         0.00146
       6 -> 25         0.00296
       6 -> 26         0.00029
       6 -> 28        -0.00147
       6 -> 32         0.00060
       6 -> 34        -0.00015
       6 -> 43         0.00012
       6 -> 49        -0.00057
       6 -> 51        -0.00032
       7 ->  9         0.01453
       7 -> 13         0.00905
       7 -> 17         0.00364
       7 -> 23         0.00521
       7 -> 29        -0.00029
       7 -> 31         0.00086
       7 -> 36         0.00057
       7 -> 44         0.00066
       7 -> 47        -0.00035
       7 -> 52        -0.00011
       8 -> 12         0.70575
       8 -> 16        -0.01476
       8 -> 18         0.02963
       8 -> 22         0.00499
       8 -> 24         0.00292
       8 -> 30         0.00087
       8 -> 33         0.00154
       8 -> 35        -0.00205
       8 -> 40        -0.00071
       8 -> 42         0.00035
       8 -> 48        -0.00038
       8 -> 50         0.00031
       8 -> 53        -0.00022
       3 <- 10         0.00060
       3 <- 11        -0.00012
       3 <- 14         0.00039
       3 <- 19         0.00015
       3 <- 20         0.00066
       3 <- 21         0.00044
       3 <- 26         0.00063
       3 <- 28         0.00071
       3 <- 32        -0.00023
       3 <- 34        -0.00031
       3 <- 37        -0.00020
       3 <- 41        -0.00016
       3 <- 46         0.00020
       3 <- 49         0.00018
       3 <- 51         0.00027
       3 <- 54        -0.00019
       4 <- 10         0.00461
       4 <- 11         0.00178
       4 <- 14         0.00393
       4 <- 15        -0.00038
       4 <- 19         0.00025
       4 <- 20         0.00275
       4 <- 21         0.00065
       4 <- 25         0.00399
       4 <- 26         0.00080
       4 <- 32         0.00054
       4 <- 34        -0.00080
       4 <- 39        -0.00024
       4 <- 46        -0.00020
       4 <- 51         0.00014
       5 <- 12         0.00276
       5 <- 16         0.00211
       5 <- 18         0.00400
       5 <- 22        -0.00052
       5 <- 24         0.00284
       5 <- 30        -0.00011
       5 <- 33        -0.00034
       5 <- 35         0.00074
       5 <- 50         0.00019
       5 <- 53        -0.00013
       6 <- 10         0.00341
       6 <- 11        -0.00030
       6 <- 14         0.00176
       6 <- 15         0.00042
       6 <- 19         0.00117
       6 <- 20         0.00217
       6 <- 21         0.00051
       6 <- 25         0.00151
       6 <- 26         0.00042
       6 <- 28        -0.00090
       6 <- 32         0.00047
       6 <- 34        -0.00023
       6 <- 41         0.00014
       6 <- 46        -0.00010
       6 <- 49        -0.00046
       6 <- 51        -0.00034
       7 <-  9         0.00136
       7 <- 13         0.00229
       7 <- 17         0.00108
       7 <- 23         0.00269
       7 <- 29        -0.00028
       7 <- 31         0.00060
       7 <- 36         0.00045
       7 <- 44         0.00055
       7 <- 47        -0.00030
       8 <- 12        -0.00135
       8 <- 16        -0.00692
       8 <- 18        -0.00240
       8 <- 22         0.00081
       8 <- 24        -0.00204
       8 <- 30        -0.00019
       8 <- 33         0.00076
       8 <- 35        -0.00103
       8 <- 40        -0.00066
       8 <- 42         0.00030
       8 <- 48        -0.00043
       8 <- 50         0.00023
       8 <- 53        -0.00022

 Excited State   5:      Singlet-A2     8.1778 eV  151.61 nm  f=0.0000  <S**2>=0.000
       3 -> 27        -0.00058
       3 -> 38        -0.00052
       3 -> 45        -0.00031
       4 -> 27         0.00018
       4 -> 38         0.00053
       5 ->  9        -0.00837
       5 -> 13        -0.00257
       5 -> 17         0.00623
       5 -> 23        -0.00162
       5 -> 31        -0.00166
       5 -> 36        -0.00112
       5 -> 44        -0.00022
       5 -> 52        -0.00010
       6 -> 27         0.00022
       6 -> 38         0.00029
       6 -> 45        -0.00031
       7 -> 12        -0.00048
       7 -> 16        -0.00181
       7 -> 18         0.00192
       7 -> 22        -0.00069
       7 -> 24        -0.00012
       7 -> 35        -0.00015
       7 -> 40         0.00012
       7 -> 48        -0.00011
       8 ->  9         0.06025
       8 -> 13         0.70403
       8 -> 17         0.01619
       8 -> 23         0.01804
       8 -> 31        -0.00140
       8 -> 36        -0.00021
       8 -> 47         0.00018
       8 -> 52        -0.00016
       3 <- 27        -0.00021
       3 <- 38        -0.00036
       3 <- 45        -0.00039
       4 <- 27        -0.00019
       5 <-  9        -0.00027
       5 <- 13        -0.00031
       5 <- 17         0.00058
       5 <- 36        -0.00025
       6 <- 38         0.00020
       7 <- 12        -0.00065
       7 <- 16        -0.00087
       7 <- 18         0.00069
       7 <- 22        -0.00114
       7 <- 24        -0.00039
       7 <- 30         0.00020
       7 <- 33         0.00042
       7 <- 35        -0.00069
       7 <- 40         0.00039
       7 <- 42        -0.00014
       7 <- 53        -0.00012
       8 <-  9         0.00251
       8 <- 13         0.00141
       8 <- 17         0.00023
       8 <- 23        -0.00022
       8 <- 31        -0.00012
       8 <- 36         0.00019

 Excited State   6:      Singlet-B1    10.0442 eV  123.44 nm  f=0.0005  <S**2>=0.000
       3 ->  9        -0.03074
       3 -> 13         0.00788
       3 -> 17        -0.00775
       3 -> 23         0.00533
       3 -> 29        -0.00338
       3 -> 31        -0.00041
       3 -> 36        -0.00014
       3 -> 44         0.00079
       3 -> 47        -0.00023

 The electronic state is 1-A1.
 Alpha  occ. eigenvalues --  -19.14610 -10.26610  -1.12085  -0.63330  -0.52136
 Alpha  occ. eigenvalues --   -0.47624  -0.44120  -0.27540
 Alpha virt. eigenvalues --   -0.04332   0.01003   0.04083   0.04310   0.06691
 Alpha virt. eigenvalues --    0.13284   0.18375   0.18708   0.22014   0.22912
 Alpha virt. eigenvalues --    0.27201   0.34365   0.47472   0.48083   0.51043

 Mulliken charges:
               1
     1  C    0.043198
     2  H    0.089381
     3  H    0.089381
     4  O   -0.221960
 Sum of Mulliken charges =  -0.00000

 Dipole moment (field-independent basis, Debye):
    X=             -0.0000    Y=             -0.0000    Z=             -2.0876  Tot=              2.0876
 Quadrupole moment (field-independent basis, Debye-Ang):
   XX=            -11.5124   YY=            -11.7929   ZZ=            -12.6415
   XY=              0.0000   XZ=              0.0000   YZ=             -0.0000

 Normal termination of Gaussian 16 at Fri Sep 17 10:52:39 2021.
