 Gaussian 16, Revision C.01,
 Gaussian 16:  ES64L-G16RevC.01  3-Jul-2019

 ----------------------------------------
 #P wB97XD/6-311+G* NoSymm #P Field=Z+136
 ----------------------------------------

 -------
 TitleMe
 -------
 Symbolic Z-matrix:
 Charge =  1 Multiplicity = 1

                          Input orientation:
 ---------------------------------------------------------------------
 Center     Atomic      Atomic             Coordinates (Angstroms)
 Number     Number       Type             X           Y           Z
 ---------------------------------------------------------------------
      1          6           0        0.519300    1.233000   -0.031900
      2          6           0        1.944500    1.269200   -0.036700
      3          6           0        2.620400    0.092800   -0.025000
      4          6           0       -0.196000    0.030100    0.001000
      5          1           0       -0.020700    2.174200   -0.043400
      6          1           0        2.482800    2.208900   -0.036100
      7          1           0       -1.277700    0.039900    0.011700
      8          7           0        4.092100    0.095900    0.036600
      9          8           0        4.639300   -1.021700    0.144600
     10          8           0        4.664900    1.198400   -0.023300
     11          6           0        0.494300   -1.167100    0.021000
     12          1           0       -0.032500   -2.114900    0.054500
     13          6           0        1.962900   -1.216500   -0.021100
     14          1           0        2.443600   -1.963100    0.615100
     15         35           0        2.173000   -1.949100   -1.906200
 ---------------------------------------------------------------------

 SCF Done:  E(RwB97XD) =  -3010.54248159     A.U. after   20 cycles

 Alpha  occ. eigenvalues -- -483.28945 -62.83927 -56.63663 -56.63039 -56.63021
 Alpha  occ. eigenvalues --  -19.45875 -19.45871 -14.85262 -10.58364 -10.56722
 Alpha  occ. eigenvalues --  -10.56391 -10.55907 -10.52558 -10.51961  -8.99703
 Alpha  occ. eigenvalues --   -6.82494  -6.80461  -6.80405  -2.92370  -2.91844
 Alpha  occ. eigenvalues --   -2.91799  -2.90174  -2.90173  -1.49549  -1.32520
 Alpha  occ. eigenvalues --   -1.21450  -1.11974  -1.11257  -1.03183  -0.99225
 Alpha  occ. eigenvalues --   -0.94382  -0.89747  -0.84386  -0.80300  -0.79567
 Alpha  occ. eigenvalues --   -0.79390  -0.77144  -0.75700  -0.74736  -0.70757
 Alpha  occ. eigenvalues --   -0.67653  -0.66713  -0.61940  -0.58571  -0.57020
 Alpha  occ. eigenvalues --   -0.56251  -0.55561  -0.53503  -0.52459
 Alpha virt. eigenvalues --   -0.28931  -0.19822  -0.14141  -0.12427  -0.10316
 Alpha virt. eigenvalues --   -0.07453  -0.07163  -0.05555  -0.03756  -0.03356
 Alpha virt. eigenvalues --   -0.02078  -0.00913   0.00335   0.00552   0.01369

 Mulliken charges:
               1
     1  C   -0.145758
     2  C    0.227253
     3  C   -0.044951
     4  C   -0.333658
     5  H    0.343858
     6  H    0.348861
     7  H    0.327835
     8  N   -0.269436
     9  O    0.088255
    10  O    0.069624
    11  C   -0.236627
    12  H    0.352967
    13  C   -0.411797
    14  H    0.367284
    15  Br   0.316291
 Sum of Mulliken charges =   1.00000

 Dipole moment (field-independent basis, Debye):
    X=              2.9902    Y=             -1.4642    Z=             -3.2102  Tot=              4.6250
 Quadrupole moment (field-independent basis, Debye-Ang):
   XX=            -67.8850   YY=            -50.2802   ZZ=            -59.1856
   XY=             -4.1050   XZ=             -7.6307   YZ=              4.8532

 Normal termination of Gaussian 16 at Thu May  2 14:19:51 2024.
