 Gaussian 16, Revision C.01,
 Gaussian 16:  ES64L-G16RevC.01  3-Jul-2019

 ----------------------------------------
 #P wB97XD/6-311+G* NoSymm #P Field=X-184
 ----------------------------------------

 -------
 TitleMe
 -------
 Symbolic Z-matrix:
 Charge =  1 Multiplicity = 1

                          Input orientation:
 ---------------------------------------------------------------------
 Center     Atomic      Atomic             Coordinates (Angstroms)
 Number     Number       Type             X           Y           Z
 ---------------------------------------------------------------------
      1          6           0        0.029500    1.339700    0.068200
      2          6           0        1.434800    1.286700    0.006400
      3          6           0        2.111800    0.051100   -0.005400
      4          6           0        1.445100   -1.137200    0.031200
      5          6           0       -0.687900    0.168200    0.110000
      6          1           0       -0.471300    2.298400    0.078100
      7          1           0        2.027300    2.196500   -0.032200
      8          1           0        1.989700   -2.076400    0.023200
      9          1           0       -1.771600    0.180400    0.158200
     10          7           0        3.586400    0.051000   -0.067500
     11          8           0        4.147100   -1.059700   -0.088100
     12          8           0        4.145000    1.163900   -0.090100
     13          6           0       -0.023600   -1.145800    0.083500
     14          1           0       -0.436700   -1.872500    0.788900
     15         35           0       -0.535900   -1.869700   -1.740800
 ---------------------------------------------------------------------

 SCF Done:  E(RwB97XD) =  -3010.54940481     A.U. after   26 cycles

 Alpha  occ. eigenvalues -- -483.30086 -62.85135 -56.64791 -56.64271 -56.64267
 Alpha  occ. eigenvalues --  -19.36620 -19.36555 -14.76197 -10.56728 -10.54690
 Alpha  occ. eigenvalues --  -10.54020 -10.53114 -10.52497 -10.51211  -9.00958
 Alpha  occ. eigenvalues --   -6.83534  -6.81822  -6.81804  -2.93462  -2.93007
 Alpha  occ. eigenvalues --   -2.92991  -2.91621  -2.91621  -1.40323  -1.23193
 Alpha  occ. eigenvalues --   -1.19718  -1.11054  -1.08647  -1.02519  -0.96026
 Alpha  occ. eigenvalues --   -0.92581  -0.87191  -0.81485  -0.77270  -0.76114
 Alpha  occ. eigenvalues --   -0.73664  -0.73063  -0.71358  -0.69294  -0.66976
 Alpha  occ. eigenvalues --   -0.66513  -0.64085  -0.60871  -0.57809  -0.55691
 Alpha  occ. eigenvalues --   -0.53268  -0.47438  -0.45976  -0.45890
 Alpha virt. eigenvalues --   -0.27147  -0.15844  -0.14665  -0.13305  -0.09986
 Alpha virt. eigenvalues --   -0.08423  -0.07947  -0.06767  -0.03664  -0.03108
 Alpha virt. eigenvalues --   -0.02194  -0.00961  -0.00354   0.00023   0.00906

 Mulliken charges:
               1
     1  C   -0.521148
     2  C    0.418454
     3  C   -0.631511
     4  C    0.329499
     5  C   -0.034566
     6  H    0.294975
     7  H    0.397461
     8  H    0.400105
     9  H    0.262609
    10  N   -0.119566
    11  O    0.119702
    12  O    0.117545
    13  C   -0.485162
    14  H    0.373947
    15  Br   0.077659
 Sum of Mulliken charges =   1.00000

 Dipole moment (field-independent basis, Debye):
    X=              4.8021    Y=              0.0262    Z=              0.4218  Tot=              4.8207
 Quadrupole moment (field-independent basis, Debye-Ang):
   XX=            -58.3017   YY=            -52.7022   ZZ=            -64.0874
   XY=              0.3070   XZ=             -0.3479   YZ=              0.3947

 Normal termination of Gaussian 16 at Wed May  1 14:54:10 2024.
