 Gaussian 16, Revision C.01,
 Gaussian 16:  ES64L-G16RevC.01  3-Jul-2019

 ---------------------------------------
 #P wB97XD/6-311+G* NoSymm #P Field=Z+58
 ---------------------------------------

 -------
 TitleMe
 -------
 Symbolic Z-matrix:
 Charge =  1 Multiplicity = 1

                          Input orientation:
 ---------------------------------------------------------------------
 Center     Atomic      Atomic             Coordinates (Angstroms)
 Number     Number       Type             X           Y           Z
 ---------------------------------------------------------------------
      1          6           0        0.029500    1.339700    0.068200
      2          6           0        1.434800    1.286700    0.006400
      3          6           0        2.111800    0.051100   -0.005400
      4          6           0        1.445100   -1.137200    0.031200
      5          6           0       -0.687900    0.168200    0.110000
      6          1           0       -0.471300    2.298400    0.078100
      7          1           0        2.027300    2.196500   -0.032200
      8          1           0        1.989700   -2.076400    0.023200
      9          1           0       -1.771600    0.180400    0.158200
     10          7           0        3.586400    0.051000   -0.067500
     11          8           0        4.147100   -1.059700   -0.088100
     12          8           0        4.145000    1.163900   -0.090100
     13          6           0       -0.023600   -1.145800    0.083500
     14          1           0       -0.436700   -1.872500    0.788900
     15         35           0       -0.535900   -1.869700   -1.740800
 ---------------------------------------------------------------------

 SCF Done:  E(RwB97XD) =  -3010.53653533     A.U. after   18 cycles

 Alpha  occ. eigenvalues -- -483.30205 -62.85218 -56.64924 -56.64333 -56.64330
 Alpha  occ. eigenvalues --  -19.45436 -19.45368 -14.84939 -10.57656 -10.56975
 Alpha  occ. eigenvalues --  -10.56696 -10.56494 -10.56262 -10.52492  -9.01015
 Alpha  occ. eigenvalues --   -6.83729  -6.81797  -6.81783  -2.93625  -2.93113
 Alpha  occ. eigenvalues --   -2.93100  -2.91555  -2.91554  -1.49203  -1.32180
 Alpha  occ. eigenvalues --   -1.22105  -1.13440  -1.11226  -1.03491  -1.00564
 Alpha  occ. eigenvalues --   -0.94909  -0.90454  -0.84825  -0.80303  -0.80150
 Alpha  occ. eigenvalues --   -0.79529  -0.77844  -0.75640  -0.75432  -0.71625
 Alpha  occ. eigenvalues --   -0.68837  -0.67055  -0.62980  -0.59445  -0.56662
 Alpha  occ. eigenvalues --   -0.55729  -0.55285  -0.55077  -0.54221
 Alpha virt. eigenvalues --   -0.29005  -0.20864  -0.14929  -0.12807  -0.09066
 Alpha virt. eigenvalues --   -0.06352  -0.06066  -0.05065  -0.03202  -0.03067
 Alpha virt. eigenvalues --   -0.02226  -0.01751  -0.00481  -0.00172   0.01160

 Mulliken charges:
               1
     1  C   -0.566642
     2  C    0.496513
     3  C   -0.709542
     4  C    0.278368
     5  C   -0.015064
     6  H    0.332294
     7  H    0.366131
     8  H    0.372350
     9  H    0.348810
    10  N   -0.108304
    11  O    0.031225
    12  O    0.028310
    13  C   -0.466693
    14  H    0.383626
    15  Br   0.228618
 Sum of Mulliken charges =   1.00000

 Dipole moment (field-independent basis, Debye):
    X=             -0.9703    Y=             -0.8073    Z=             -1.0257  Tot=              1.6264
 Quadrupole moment (field-independent basis, Debye-Ang):
   XX=            -71.4502   YY=            -51.6922   ZZ=            -61.5672
   XY=              1.4616   XZ=              0.6470   YZ=              2.5181

 Normal termination of Gaussian 16 at Wed May  1 15:25:52 2024.
