 Gaussian 16, Revision A.03,
 Gaussian 16:  ES64L-G16RevA.03 25-Dec-2016

 --------------------------------------------------------------------
 #p B3LYP/6-311+G** #p TD=(singlets,nstates=30)IOp(6/8=3) IOp(9/40=4)
 --------------------------------------------------------------------

 --------------------------------
 Scan Step 213, Bond Length 1.565
 --------------------------------
 Symbolic Z-matrix:
 Charge =  0 Multiplicity = 1

                         Standard orientation:
 ---------------------------------------------------------------------
 Center     Atomic      Atomic             Coordinates (Angstroms)
 Number     Number       Type             X           Y           Z
 ---------------------------------------------------------------------
      1          6           0        0.000000    0.000000   -0.708581
      2          1           0        0.000000    0.937260   -1.299931
      3          1           0       -0.000000   -0.937260   -1.299931
      4          8           0        0.000000   -0.000000    0.856419
 ---------------------------------------------------------------------

 SCF Done:  E(RB3LYP) =  -114.440971356     A.U. after   10 cycles

 Excitation energies and oscillator strengths:

 Excited State   1:      Singlet-A2     2.1177 eV  585.47 nm  f=0.0000  <S**2>=0.000
       3 -> 27         0.00128
       3 -> 38         0.00096
       3 -> 46         0.00326
       4 -> 27         0.00077
       4 -> 38        -0.00015
       4 -> 46        -0.00133
       5 ->  9         0.00859
       5 -> 13         0.00083
       5 -> 18         0.00310
       5 -> 23         0.00161
       5 -> 28         0.00273
       5 -> 31        -0.00023
       5 -> 37         0.00152
       5 -> 44         0.00035
       5 -> 52         0.00037
       6 -> 27        -0.00062
       6 -> 38        -0.00080
       6 -> 46         0.00140
       7 -> 12        -0.00086
       7 -> 16         0.00463
       7 -> 19        -0.00394
       7 -> 22        -0.00070
       7 -> 25         0.00100
       7 -> 30        -0.00148
       7 -> 33         0.00038
       7 -> 49         0.00013
       7 -> 50         0.00018
       7 -> 53         0.00045
       8 ->  9         0.70826
       8 -> 13        -0.01459
       8 -> 18         0.02173
       8 -> 23        -0.00393
       8 -> 28         0.01106
       8 -> 31         0.00089
       8 -> 37         0.00064
       8 -> 48        -0.00031
       8 -> 52         0.00194
       3 <- 27         0.00062
       3 <- 38         0.00068
       3 <- 46         0.00331
       4 <- 27         0.00132
       4 <- 38         0.00023
       4 <- 46        -0.00108
       5 <-  9        -0.00031
       5 <- 13        -0.00055
       5 <- 18        -0.00073
       5 <- 23         0.00029
       5 <- 28        -0.00051
       5 <- 31         0.00038
       5 <- 37         0.00084
       5 <- 44         0.00012
       6 <- 38        -0.00065
       6 <- 46         0.00108
       7 <- 12         0.00048
       7 <- 16        -0.00990
       7 <- 19         0.00345
       7 <- 22         0.00703
       7 <- 25         0.00050
       7 <- 30         0.00518
       7 <- 33        -0.00057
       7 <- 36         0.00096
       7 <- 40         0.00054
       7 <- 42         0.00013
       7 <- 49        -0.00036
       7 <- 50         0.00011
       7 <- 53         0.00146
       8 <-  9        -0.04857
       8 <- 13         0.00063
       8 <- 18        -0.00640
       8 <- 23         0.00024
       8 <- 28        -0.00228
       8 <- 31        -0.00060
       8 <- 37        -0.00052
       8 <- 52         0.00051
 This state for optimization and/or second-order correction.
 Total Energy, E(TD-HF/TD-DFT) =  -114.363147999
 Copying the excited state density for this state as the 1-particle RhoCI density.

 Excited State   2:      Singlet-A1     5.4075 eV  229.28 nm  f=0.0849  <S**2>=0.000
       3 -> 10        -0.01322
       3 -> 11        -0.01576
       3 -> 14         0.01274
       3 -> 15         0.00977
       3 -> 17        -0.00360
       3 -> 20        -0.00371
       3 -> 21        -0.00166
       3 -> 24         0.00295
       3 -> 26         0.00456
       3 -> 29        -0.00100
       3 -> 32         0.00278
       3 -> 34         0.00287
       3 -> 35        -0.00071
       3 -> 39         0.00091
       3 -> 43         0.00043
       3 -> 45        -0.00024
       3 -> 47         0.00221
       3 -> 51         0.00092
       3 -> 54         0.00022
       4 -> 10        -0.01483
       4 -> 11         0.01148
       4 -> 14         0.00771
       4 -> 15        -0.00945
       4 -> 17         0.00321
       4 -> 20         0.00601
       4 -> 21         0.00040
       4 -> 24        -0.00540
       4 -> 26         0.00532
       4 -> 29         0.00114
       4 -> 32        -0.00129
       4 -> 34        -0.00200
       4 -> 35         0.00028
       4 -> 39        -0.00013
       4 -> 41         0.00014
       4 -> 43        -0.00040
       4 -> 45        -0.00069
       4 -> 47        -0.00138
       4 -> 51        -0.00030
       5 -> 12         0.01909
       5 -> 16         0.01343
       5 -> 19         0.00154
       5 -> 22         0.00708
       5 -> 25         0.00904
       5 -> 30        -0.00055
       5 -> 33        -0.00317
       5 -> 36         0.00269
       5 -> 40         0.00154
       5 -> 42         0.00062
       5 -> 49         0.00051
       5 -> 50        -0.00064
       5 -> 53        -0.00016
       6 -> 10         0.11004
       6 -> 11         0.11218
       6 -> 14        -0.09403
       6 -> 15        -0.08560
       6 -> 17        -0.02047
       6 -> 20        -0.01407
       6 -> 21         0.01585
       6 -> 24        -0.01560
       6 -> 26        -0.00771
       6 -> 29        -0.00853
       6 -> 32         0.00050
       6 -> 34         0.00159
       6 -> 35        -0.00099
       6 -> 39         0.00073
       6 -> 41        -0.00049
       6 -> 43         0.00077
       6 -> 45         0.00070
       6 -> 47         0.00141
       6 -> 51         0.00084
       6 -> 54        -0.00059
       7 ->  9         0.68509
       7 -> 13         0.00331
       7 -> 18        -0.02005
       7 -> 23         0.00092
       7 -> 28        -0.00202
       7 -> 31        -0.00288
       7 -> 37         0.00076
       7 -> 44        -0.00106
       7 -> 48         0.00046
       7 -> 52         0.00104
       8 -> 12        -0.00660
       8 -> 16         0.07814
       8 -> 19        -0.02513
       8 -> 22        -0.02984
       8 -> 25         0.00091
       8 -> 30        -0.01278
       8 -> 33         0.00268
       8 -> 36        -0.00331
       8 -> 40        -0.00156
       8 -> 42        -0.00034
       8 -> 49         0.00063
       8 -> 50         0.00025
       8 -> 53        -0.00076
       3 <- 10        -0.00856
       3 <- 11        -0.01075
       3 <- 14         0.00926
       3 <- 15         0.00660
       3 <- 17        -0.00182
       3 <- 20        -0.00258
       3 <- 21        -0.00186
       3 <- 24         0.00190
       3 <- 26         0.00279
       3 <- 29        -0.00058
       3 <- 32         0.00254
       3 <- 34         0.00189
       3 <- 35        -0.00063
       3 <- 39         0.00078
       3 <- 41         0.00010
       3 <- 43         0.00051
       3 <- 47         0.00235
       3 <- 51         0.00089
       3 <- 54         0.00032
       4 <- 10        -0.00730
       4 <- 11         0.00703
       4 <- 14         0.00379
       4 <- 15        -0.00555
       4 <- 17         0.00156
       4 <- 20         0.00476
       4 <- 21         0.00031
       4 <- 24        -0.00359
       4 <- 26         0.00411
       4 <- 29         0.00030
       4 <- 32        -0.00162
       4 <- 34        -0.00176
       4 <- 35         0.00049
       4 <- 39        -0.00019
       4 <- 43        -0.00039
       4 <- 45        -0.00086
       4 <- 47        -0.00098
       4 <- 51        -0.00014
       5 <- 12         0.00803
       5 <- 16         0.00654
       5 <- 19         0.00104
       5 <- 22         0.00425
       5 <- 25         0.00597
       5 <- 30        -0.00024
       5 <- 33        -0.00242
       5 <- 36         0.00217
       5 <- 40         0.00133
       5 <- 42         0.00051
       5 <- 49         0.00045
       5 <- 50        -0.00058
       5 <- 53        -0.00015
       6 <- 10         0.03094
       6 <- 11         0.03371
       6 <- 14        -0.03537
       6 <- 15        -0.03498
       6 <- 17        -0.00947
       6 <- 20        -0.00826
       6 <- 21         0.00890
       6 <- 24        -0.00929
       6 <- 26        -0.00453
       6 <- 29        -0.00575
       6 <- 32         0.00097
       6 <- 34         0.00191
       6 <- 35        -0.00099
       6 <- 39         0.00083
       6 <- 41        -0.00033
       6 <- 43         0.00066
       6 <- 45         0.00070
       6 <- 47         0.00092
       6 <- 51         0.00066
       6 <- 54        -0.00049
       7 <-  9        -0.12135
       7 <- 13         0.00827
       7 <- 18        -0.01418
       7 <- 23         0.00411
       7 <- 28        -0.00428
       7 <- 31        -0.00127
       7 <- 37         0.00023
       7 <- 44        -0.00060
       7 <- 48        -0.00012
       7 <- 52         0.00090
       8 <- 12        -0.00133
       8 <- 16         0.02548
       8 <- 19        -0.01007
       8 <- 22        -0.01549
       8 <- 25         0.00026
       8 <- 30        -0.00902
       8 <- 33         0.00197
       8 <- 36        -0.00250
       8 <- 40        -0.00125
       8 <- 42        -0.00027
       8 <- 49         0.00043
       8 <- 50         0.00021
       8 <- 53        -0.00069

 Excited State   3:      Singlet-B1     5.6691 eV  218.70 nm  f=0.0015  <S**2>=0.000
       3 ->  9        -0.02983
       3 -> 13         0.00196
       3 -> 18        -0.00494
       3 -> 23         0.00197
       3 -> 28        -0.00107
       3 -> 31        -0.00048
       3 -> 44         0.00026
       3 -> 48         0.00091
       3 -> 52         0.00099
       4 ->  9         0.01409
       4 -> 13        -0.00269
       4 -> 18         0.00033
       4 -> 23        -0.00245
       4 -> 28         0.00022
       4 -> 31        -0.00161
       4 -> 37        -0.00043
       4 -> 44         0.00012
       4 -> 48        -0.00118
       4 -> 52        -0.00064
       5 -> 27        -0.00030
       5 -> 38         0.00201
       5 -> 46         0.00107
       6 ->  9         0.70571
       6 -> 13        -0.02111
       6 -> 18         0.01741
       6 -> 23        -0.01116
       6 -> 28         0.00456
       6 -> 31         0.00344
       6 -> 37        -0.00226
       6 -> 44        -0.00299
       6 -> 48         0.00431
       6 -> 52         0.00152
       7 -> 10         0.02385
       7 -> 11         0.02184
       7 -> 14        -0.01438
       7 -> 15        -0.00789
       7 -> 17        -0.00940
       7 -> 20         0.00272
       7 -> 21        -0.00014
       7 -> 24        -0.00035
       7 -> 26        -0.00130
       7 -> 29        -0.00402
       7 -> 32        -0.00075
       7 -> 34         0.00051
       7 -> 35         0.00184
       7 -> 39         0.00013
       7 -> 41        -0.00068
       7 -> 43         0.00059
       7 -> 45        -0.00093
       7 -> 47         0.00433
       7 -> 51         0.00117
       7 -> 54         0.00046
       8 -> 27         0.00068
       8 -> 38         0.00016
       8 -> 46         0.00556
       3 <-  9        -0.00993
       3 <- 13        -0.00052
       3 <- 18        -0.00299
       3 <- 23        -0.00049
       3 <- 28        -0.00070
       3 <- 31        -0.00064
       3 <- 44        -0.00027
       3 <- 48         0.00110
       3 <- 52         0.00079
       4 <-  9         0.00670
       4 <- 13        -0.00020
       4 <- 18         0.00204
       4 <- 23        -0.00053
       4 <- 28         0.00174
       4 <- 31        -0.00111
       4 <- 37        -0.00020
       4 <- 44         0.00012
       4 <- 48        -0.00102
       4 <- 52        -0.00036
       5 <- 27        -0.00081
       5 <- 38         0.00161
       5 <- 46         0.00095
       6 <-  9        -0.02438
       6 <- 13         0.00172
       6 <- 18        -0.00317
       6 <- 23        -0.00028
       6 <- 28        -0.00327
       6 <- 31         0.00142
       6 <- 37        -0.00199
       6 <- 44        -0.00167
       6 <- 48         0.00385
       6 <- 52         0.00053
       7 <- 10        -0.01118
       7 <- 11        -0.01200
       7 <- 14         0.01306
       7 <- 15         0.01460
       7 <- 17         0.00117
       7 <- 20         0.00530
       7 <- 21        -0.00463
       7 <- 24         0.00460
       7 <- 26         0.00186
       7 <- 29         0.00096
       7 <- 32        -0.00035
       7 <- 34         0.00028
       7 <- 35         0.00283
       7 <- 39         0.00042
       7 <- 41        -0.00032
       7 <- 43         0.00046
       7 <- 45        -0.00101
       7 <- 47         0.00392
       7 <- 51         0.00100
       7 <- 54         0.00108
       8 <- 27         0.00110
       8 <- 38         0.00034
       8 <- 46         0.00514

 Excited State   4:      Singlet-B2     6.3970 eV  193.82 nm  f=0.0173  <S**2>=0.000
       3 -> 12        -0.00163
       3 -> 16         0.00173
       3 -> 19        -0.00420
       3 -> 22         0.00036
       3 -> 25         0.00014
       3 -> 30        -0.00314
       3 -> 33        -0.00034
       3 -> 36         0.00206
       3 -> 40         0.00164
       3 -> 42         0.00017
       3 -> 49        -0.00228
       3 -> 50         0.00022
       3 -> 53         0.00027
       4 -> 12         0.00048
       4 -> 16        -0.00286
       4 -> 19        -0.00024
       4 -> 22         0.00336
       4 -> 25        -0.00239
       4 -> 30         0.00135
       4 -> 33        -0.00046
       4 -> 36         0.00049
       4 -> 40        -0.00051
       4 -> 49         0.00033
       5 -> 10         0.00287
       5 -> 11         0.00556
       5 -> 14        -0.01417
       5 -> 15         0.00146
       5 -> 17         0.00120
       5 -> 20         0.00184
       5 -> 21         0.00663
       5 -> 24         0.00189
       5 -> 26        -0.00205
       5 -> 29        -0.00195
       5 -> 32        -0.00111
       5 -> 34        -0.00133
       5 -> 35        -0.00061
       5 -> 39        -0.00093
       5 -> 41         0.00080
       5 -> 45         0.00024
       5 -> 47        -0.00082
       5 -> 51         0.00049
       5 -> 54        -0.00023
       6 -> 12         0.00343
       6 -> 16        -0.00138
       6 -> 19         0.00253
       6 -> 22         0.00014
       6 -> 25        -0.00076
       6 -> 30        -0.00055
       6 -> 33         0.00043
       6 -> 36        -0.00218
       6 -> 40        -0.00169
       6 -> 42        -0.00028
       6 -> 49         0.00145
       6 -> 53        -0.00030
       7 -> 27        -0.00060
       7 -> 38         0.00096
       7 -> 46         0.00337
       8 -> 10         0.62874
       8 -> 11         0.29279
       8 -> 14        -0.11521
       8 -> 15        -0.07401
       8 -> 17        -0.01065
       8 -> 20        -0.00360
       8 -> 21         0.00541
       8 -> 24        -0.00574
       8 -> 26        -0.00552
       8 -> 29        -0.00875
       8 -> 32        -0.00232
       8 -> 34        -0.00157
       8 -> 35        -0.00065
       8 -> 39        -0.00051
       8 -> 41         0.00039
       8 -> 43        -0.00056
       8 -> 45         0.00208
       8 -> 47        -0.00372
       8 -> 51         0.00206
       8 -> 54        -0.00134
       3 <- 12        -0.00057
       3 <- 16         0.00040
       3 <- 19        -0.00197
       3 <- 22         0.00085
       3 <- 25         0.00021
       3 <- 30        -0.00125
       3 <- 33        -0.00031
       3 <- 36         0.00164
       3 <- 40         0.00147
       3 <- 42         0.00015
       3 <- 49        -0.00235
       3 <- 50         0.00018
       3 <- 53         0.00077
       4 <- 12        -0.00035
       4 <- 16        -0.00244
       4 <- 19        -0.00045
       4 <- 22         0.00280
       4 <- 25        -0.00147
       4 <- 30         0.00113
       4 <- 33        -0.00054
       4 <- 36         0.00068
       4 <- 40        -0.00015
       4 <- 42         0.00015
       4 <- 49         0.00025
       5 <- 10         0.00097
       5 <- 11        -0.00152
       5 <- 14        -0.00264
       5 <- 15         0.00372
       5 <- 17         0.00024
       5 <- 20         0.00040
       5 <- 21         0.00207
       5 <- 24         0.00274
       5 <- 26        -0.00071
       5 <- 29        -0.00050
       5 <- 32         0.00027
       5 <- 34        -0.00040
       5 <- 39        -0.00029
       5 <- 41         0.00078
       5 <- 43         0.00013
       5 <- 45         0.00054
       5 <- 47        -0.00062
       5 <- 51         0.00026
       6 <- 12         0.00016
       6 <- 16         0.00460
       6 <- 19        -0.00208
       6 <- 22        -0.00328
       6 <- 25        -0.00037
       6 <- 30        -0.00401
       6 <- 33         0.00067
       6 <- 36        -0.00217
       6 <- 40        -0.00166
       6 <- 42        -0.00033
       6 <- 49         0.00151
       6 <- 53        -0.00088
       7 <- 27        -0.00060
       7 <- 38         0.00074
       7 <- 46         0.00276
       8 <- 10        -0.00950
       8 <- 11        -0.01082
       8 <- 14         0.01071
       8 <- 15         0.00577
       8 <- 17         0.00022
       8 <- 20        -0.00204
       8 <- 21        -0.00236
       8 <- 24         0.00099
       8 <- 26         0.00202
       8 <- 29        -0.00084
       8 <- 32         0.00191
       8 <- 34         0.00137
       8 <- 39         0.00133
       8 <- 41         0.00060
       8 <- 43         0.00014
       8 <- 45         0.00253
       8 <- 47        -0.00261
       8 <- 51         0.00122
       8 <- 54        -0.00032

 Excited State   5:      Singlet-B2     7.0878 eV  174.93 nm  f=0.0033  <S**2>=0.000
       3 -> 12         0.00136
       3 -> 16         0.00165
       3 -> 19        -0.00112
       3 -> 22        -0.00039
       3 -> 25         0.00096
       3 -> 30        -0.00260
       3 -> 36         0.00063
       3 -> 40         0.00057
       3 -> 49        -0.00084
       4 -> 12        -0.00140
       4 -> 16         0.00043
       4 -> 19         0.00091
       4 -> 22        -0.00067
       4 -> 25         0.00049
       4 -> 30         0.00139
       4 -> 33        -0.00021
       4 -> 36         0.00041
       4 -> 50        -0.00012
       5 -> 10         0.00805
       5 -> 11        -0.00152
       5 -> 14         0.00059
       5 -> 15         0.00590
       5 -> 17         0.00121
       5 -> 20         0.00206
       5 -> 21         0.00059
       5 -> 24        -0.00026
       5 -> 26        -0.00051
       5 -> 29        -0.00058
       5 -> 32        -0.00157
       5 -> 34         0.00020
       5 -> 35        -0.00042
       5 -> 39        -0.00065
       5 -> 43        -0.00034
       5 -> 45         0.00036
       5 -> 47        -0.00044
       5 -> 51         0.00031
       6 -> 12        -0.00117
       6 -> 16        -0.00027
       6 -> 19         0.00057
       6 -> 22        -0.00104
       6 -> 25         0.00011
       6 -> 30        -0.00089
       6 -> 36        -0.00029
       6 -> 40        -0.00074
       6 -> 42        -0.00022
       6 -> 49         0.00136
       6 -> 50        -0.00012
       6 -> 53        -0.00012
       7 -> 27        -0.00066
       7 -> 38        -0.00014
       7 -> 46         0.00199
       8 -> 10        -0.30426
       8 -> 11         0.63636
       8 -> 14        -0.01615
       8 -> 15        -0.04306
       8 -> 17        -0.00601
       8 -> 20         0.01533
       8 -> 21         0.00410
       8 -> 24        -0.00378
       8 -> 26         0.00115
       8 -> 29        -0.00341
       8 -> 32        -0.00057

 The electronic state is 1-A1.
 Alpha  occ. eigenvalues --  -19.17076 -10.32347  -0.93720  -0.69294  -0.48825
 Alpha  occ. eigenvalues --   -0.42021  -0.33563  -0.28990
 Alpha virt. eigenvalues --   -0.13982  -0.00851   0.01656   0.04100   0.06137
 Alpha virt. eigenvalues --    0.09713   0.13571   0.14683   0.18949   0.21469
 Alpha virt. eigenvalues --    0.23944   0.30119   0.39322   0.41471   0.50961

 Mulliken charges:
               1
     1  C   -0.054263
     2  H    0.175677
     3  H    0.175677
     4  O   -0.297091
 Sum of Mulliken charges =  -0.00000

 Dipole moment (field-independent basis, Debye):
    X=             -0.0000    Y=              0.0000    Z=             -3.6767  Tot=              3.6767
 Quadrupole moment (field-independent basis, Debye-Ang):
   XX=            -12.6664   YY=            -11.8635   ZZ=            -11.4167
   XY=              0.0000   XZ=              0.0000   YZ=             -0.0000

 Normal termination of Gaussian 16 at Fri Sep 17 10:52:58 2021.
