 Gaussian 16, Revision A.03,
 Gaussian 16:  ES64L-G16RevA.03 25-Dec-2016

 --------------------------------------------------------------------
 #p B3LYP/6-311+G** #p TD=(singlets,nstates=30)IOp(6/8=3) IOp(9/40=4)
 --------------------------------------------------------------------

 -------------------------------
 Scan Step 150, Bond Length 1.25
 -------------------------------
 Symbolic Z-matrix:
 Charge =  0 Multiplicity = 1

                         Standard orientation:
 ---------------------------------------------------------------------
 Center     Atomic      Atomic             Coordinates (Angstroms)
 Number     Number       Type             X           Y           Z
 ---------------------------------------------------------------------
      1          6           0        0.000000   -0.000000   -0.551081
      2          1           0        0.000000    0.937260   -1.142431
      3          1           0       -0.000000   -0.937260   -1.142431
      4          8           0        0.000000    0.000000    0.698919
 ---------------------------------------------------------------------

 SCF Done:  E(RB3LYP) =  -114.538422904     A.U. after    9 cycles

 Excitation energies and oscillator strengths:

 Excited State   1:      Singlet-A2     3.6807 eV  336.85 nm  f=0.0000  <S**2>=0.000
       3 -> 27         0.00234
       3 -> 38         0.00197
       3 -> 45         0.00261
       4 -> 27         0.00175
       4 -> 38        -0.00050
       4 -> 45        -0.00134
       5 ->  9         0.02030
       5 -> 13        -0.00239
       5 -> 17         0.00541
       5 -> 23         0.00017
       5 -> 29         0.00437
       5 -> 31        -0.00198
       5 -> 37         0.00321
       5 -> 44         0.00059
       5 -> 47         0.00014
       5 -> 52         0.00073
       6 -> 27        -0.00021
       6 -> 38        -0.00086
       6 -> 45         0.00177
       7 -> 12        -0.00062
       7 -> 15         0.00306
       7 -> 18        -0.00294
       7 -> 22         0.00053
       7 -> 25         0.00142
       7 -> 30        -0.00097
       7 -> 33         0.00044
       7 -> 35        -0.00023
       7 -> 40         0.00021
       7 -> 42        -0.00011
       7 -> 49         0.00030
       7 -> 50         0.00033
       7 -> 53         0.00047
       8 ->  9         0.70582
       8 -> 13        -0.03821
       8 -> 17         0.02283
       8 -> 23        -0.00965
       8 -> 29         0.00951
       8 -> 31        -0.00219
       8 -> 47        -0.00026
       8 -> 52         0.00173
       3 <- 27         0.00149
       3 <- 38         0.00162
       3 <- 45         0.00270
       4 <- 27         0.00255
       4 <- 45        -0.00113
       5 <-  9        -0.00048
       5 <- 13        -0.00080
       5 <- 17        -0.00100
       5 <- 23         0.00053
       5 <- 29        -0.00069
       5 <- 31         0.00083
       5 <- 37         0.00156
       5 <- 44         0.00024
       5 <- 47         0.00015
       5 <- 52         0.00019
       6 <- 27         0.00037
       6 <- 38        -0.00076
       6 <- 45         0.00138
       7 <- 12        -0.00071
       7 <- 15        -0.00759
       7 <- 18         0.00061
       7 <- 22         0.00740
       7 <- 30         0.00365
       7 <- 33        -0.00127
       7 <- 35        -0.00229
       7 <- 40         0.00095
       7 <- 50         0.00022
       7 <- 53         0.00131
       8 <-  9        -0.02613
       8 <- 13         0.00270
       8 <- 17        -0.00453
       8 <- 23         0.00078
       8 <- 29        -0.00110
       8 <- 31        -0.00073
       8 <- 37        -0.00132
       8 <- 52         0.00049
 This state for optimization and/or second-order correction.
 Total Energy, E(TD-HF/TD-DFT) =  -114.403157925
 Copying the excited state density for this state as the 1-particle RhoCI density.

 Excited State   2:      Singlet-B2     6.9068 eV  179.51 nm  f=0.0249  <S**2>=0.000
       3 -> 12         0.00157
       3 -> 15         0.00070
       3 -> 18         0.00122
       3 -> 22        -0.00032
       3 -> 25         0.00126
       3 -> 33         0.00022
       3 -> 35         0.00044
       3 -> 40        -0.00014
       4 -> 12        -0.00289
       4 -> 15         0.00193
       4 -> 18         0.00198
       4 -> 22        -0.00328
       4 -> 25         0.00325
       4 -> 30         0.00033
       4 -> 33        -0.00043
       4 -> 35        -0.00054
       4 -> 40         0.00045
       4 -> 42        -0.00012
       5 -> 10        -0.00743
       5 -> 11        -0.00806
       5 -> 14         0.00701
       5 -> 16        -0.00075
       5 -> 19        -0.00084
       5 -> 20         0.00266
       5 -> 21         0.00586
       5 -> 24        -0.00028
       5 -> 26         0.00233
       5 -> 28         0.00109
       5 -> 32        -0.00099
       5 -> 34        -0.00100
       5 -> 36        -0.00018
       5 -> 39        -0.00028
       5 -> 41        -0.00041
       5 -> 43        -0.00052
       5 -> 46        -0.00028
       5 -> 54         0.00012
       6 -> 12        -0.00030
       6 -> 15         0.00149
       6 -> 18         0.00173
       6 -> 22        -0.00243
       6 -> 25         0.00108
       6 -> 30        -0.00053
       6 -> 33        -0.00024
       6 -> 35        -0.00046
       6 -> 42        -0.00018
       6 -> 49         0.00046
       6 -> 50        -0.00027
       7 -> 27         0.00013
       7 -> 38        -0.00061
       7 -> 45         0.00034
       8 -> 10         0.70273
       8 -> 11        -0.07321
       8 -> 14         0.01628
       8 -> 16        -0.00530
       8 -> 19         0.00743
       8 -> 20         0.01622
       8 -> 21        -0.00268
       8 -> 26         0.00266
       8 -> 28         0.00086
       8 -> 32         0.00100
       8 -> 34         0.00101
       8 -> 36         0.00035
       8 -> 39         0.00035
       8 -> 41        -0.00020
       8 -> 43         0.00060
       8 -> 46        -0.00052
       8 -> 48         0.00015
       8 -> 51        -0.00010
       8 -> 54         0.00020
       3 <- 12         0.00037
       3 <- 15         0.00053
       3 <- 18         0.00046
       3 <- 22        -0.00048
       3 <- 25         0.00072
       3 <- 30        -0.00011
       3 <- 33         0.00019
       3 <- 35         0.00040
       3 <- 40        -0.00016
       3 <- 49         0.00012
       4 <- 12         0.00076
       4 <- 15         0.00194
       4 <- 18         0.00189
       4 <- 22        -0.00203
       4 <- 25         0.00221
       4 <- 30         0.00024
       4 <- 33        -0.00023
       4 <- 35        -0.00028
       4 <- 40         0.00012
       4 <- 42        -0.00023
       4 <- 50        -0.00013
       5 <- 10         0.00234
       5 <- 11        -0.00025
       5 <- 14         0.00476
       5 <- 16        -0.00064
       5 <- 19        -0.00014
       5 <- 20         0.00084
       5 <- 21         0.00194
       5 <- 24        -0.00201
       5 <- 26         0.00150
       5 <- 28         0.00014
       5 <- 32        -0.00071
       5 <- 34        -0.00093
       5 <- 36        -0.00026
       5 <- 39        -0.00015
       5 <- 41        -0.00022
       5 <- 43        -0.00040
       5 <- 46        -0.00025
       6 <- 15        -0.00015
       6 <- 18         0.00108
       6 <- 22        -0.00062
       6 <- 25         0.00036
       6 <- 30         0.00031
       6 <- 33        -0.00030
       6 <- 35        -0.00053
       6 <- 42        -0.00017
       6 <- 49         0.00038
       6 <- 50        -0.00028
       6 <- 53         0.00015
       7 <- 27         0.00012
       7 <- 38        -0.00045
       7 <- 45         0.00031
       8 <- 10        -0.00160
       8 <- 11        -0.00053
       8 <- 14        -0.00491
       8 <- 16        -0.00048
       8 <- 20        -0.00065
       8 <- 21        -0.00167
       8 <- 24         0.00208
       8 <- 26        -0.00078
       8 <- 28        -0.00050
       8 <- 32         0.00103
       8 <- 34         0.00012
       8 <- 36         0.00033
       8 <- 39         0.00026
       8 <- 43         0.00040
       8 <- 46        -0.00032

 Excited State   3:      Singlet-B2     7.6747 eV  161.55 nm  f=0.0268  <S**2>=0.000
       3 -> 12        -0.00033
       3 -> 15        -0.00090
       3 -> 18         0.00099
       3 -> 22         0.00047
       3 -> 30         0.00234
       3 -> 33         0.00014
       3 -> 35         0.00055
       3 -> 40        -0.00049
       3 -> 49         0.00054
       3 -> 50        -0.00020
       4 -> 12         0.00258
       4 -> 15         0.00026
       4 -> 18         0.00208
       4 -> 22        -0.00149
       4 -> 25         0.00289
       4 -> 30        -0.00133
       4 -> 33         0.00049
       4 -> 35         0.00056
       4 -> 42        -0.00011
       4 -> 49         0.00024
       5 -> 10        -0.00637
       5 -> 11        -0.00020
       5 -> 14         0.00937
       5 -> 16        -0.00700
       5 -> 19        -0.00132
       5 -> 20        -0.00478
       5 -> 21         0.00205
       5 -> 24        -0.00092
       5 -> 26         0.00137
       5 -> 28         0.00158
       5 -> 32        -0.00017
       5 -> 34        -0.00095
       5 -> 36        -0.00033
       5 -> 39         0.00043
       5 -> 41        -0.00070
       5 -> 43         0.00017
       5 -> 46         0.00090
       5 -> 51        -0.00042
       6 -> 12        -0.00295
       6 -> 15        -0.00158
       6 -> 18        -0.00079
       6 -> 22         0.00118
       6 -> 25         0.00016
       6 -> 30         0.00110
       6 -> 33        -0.00055
       6 -> 35        -0.00149
       6 -> 40         0.00109
       6 -> 49        -0.00122
       6 -> 50         0.00035
       6 -> 53         0.00011
       7 -> 27         0.00013
       7 -> 38        -0.00087
       7 -> 45        -0.00191
       8 -> 10         0.07348
       8 -> 11         0.70229
       8 -> 14        -0.00351
       8 -> 16         0.00940
       8 -> 19        -0.03283
       8 -> 20         0.00267
       8 -> 21        -0.00294
       8 -> 26        -0.00093
       8 -> 28         0.00171
       8 -> 32         0.00014
       8 -> 34        -0.00020
       8 -> 36        -0.00017
       8 -> 39        -0.00025
       8 -> 41        -0.00115
       8 -> 43         0.00036
       8 -> 46         0.00218
       8 -> 48        -0.00013
       8 -> 51        -0.00103
       3 <- 12         0.00034
       3 <- 15        -0.00028
       3 <- 18         0.00096
       3 <- 25         0.00025
       3 <- 30         0.00128
       3 <- 33         0.00025
       3 <- 35         0.00059
       3 <- 40        -0.00045
       3 <- 49         0.00048
       3 <- 50        -0.00013
       3 <- 53        -0.00031
       4 <- 12         0.00032
       4 <- 15         0.00081
       4 <- 18         0.00048
       4 <- 22        -0.00115
       4 <- 25         0.00122
       4 <- 30        -0.00068
       4 <- 33         0.00046
       4 <- 35         0.00025
       4 <- 42        -0.00012
       4 <- 49         0.00018
       5 <- 10         0.00122
       5 <- 11        -0.00130
       5 <- 14         0.00269
       5 <- 16        -0.00043
       5 <- 19         0.00130
       5 <- 20        -0.00045
       5 <- 21         0.00077
       5 <- 24        -0.00139
       5 <- 28         0.00067
       5 <- 32        -0.00096
       5 <- 36         0.00014
       5 <- 39         0.00011
       5 <- 41        -0.00073
       5 <- 46         0.00085
       5 <- 48        -0.00013
       5 <- 51        -0.00030
       6 <- 12        -0.00029
       6 <- 15        -0.00091
       6 <- 18         0.00026
       6 <- 22         0.00083
       6 <- 25        -0.00013
       6 <- 30         0.00097
       6 <- 33        -0.00044
       6 <- 35        -0.00126
       6 <- 40         0.00085
       6 <- 49        -0.00100
       6 <- 50         0.00027
       7 <- 27         0.00030
       7 <- 38        -0.00069
       7 <- 45        -0.00160
       8 <- 10        -0.00075
       8 <- 11        -0.00143
       8 <- 14        -0.00363
       8 <- 16         0.00043
       8 <- 19         0.00488
       8 <- 20        -0.00039
       8 <- 21        -0.00198
       8 <- 24        -0.00043
       8 <- 26        -0.00166
       8 <- 28         0.00049
       8 <- 32        -0.00121
       8 <- 34         0.00152
       8 <- 39        -0.00065
       8 <- 41        -0.00105
       8 <- 43         0.00018
       8 <- 46         0.00174
       8 <- 48        -0.00029
       8 <- 51        -0.00069

 Excited State   4:      Singlet-A1     7.9071 eV  156.80 nm  f=0.0433  <S**2>=0.000
       3 -> 10         0.00211
       3 -> 11        -0.00052
       3 -> 14         0.00117
       3 -> 19        -0.00136
       3 -> 20         0.00216
       3 -> 21         0.00101
       3 -> 24         0.00079
       3 -> 26         0.00128
       3 -> 28         0.00086
       3 -> 32         0.00013
       3 -> 34        -0.00078
       3 -> 36        -0.00016
       3 -> 41        -0.00020
       3 -> 46         0.00018
       3 -> 48        -0.00031
       3 -> 51        -0.00016
       3 -> 54        -0.00017
       4 -> 10         0.00479
       4 -> 11         0.00464
       4 -> 14         0.00454
       4 -> 16         0.00060
       4 -> 19         0.00021
       4 -> 20         0.00325
       4 -> 21        -0.00027
       4 -> 24        -0.00690
       4 -> 26         0.00209
       4 -> 28        -0.00031
       4 -> 32        -0.00063
       4 -> 34         0.00018
       4 -> 43         0.00016
       4 -> 46        -0.00020
       4 -> 51        -0.00014
       5 -> 12         0.00565
       5 -> 15         0.00316
       5 -> 18         0.00943
       5 -> 22        -0.00256
       5 -> 25         0.00545
       5 -> 30        -0.00030
       5 -> 33        -0.00020
       5 -> 35        -0.00074
       5 -> 50         0.00017
       5 -> 53        -0.00012
       6 -> 10         0.01100
       6 -> 11        -0.00235
       6 -> 14         0.00413
       6 -> 19         0.00189
       6 -> 20         0.00253
       6 -> 21        -0.00082
       6 -> 24        -0.00443
       6 -> 26        -0.00037
       6 -> 28        -0.00220
       6 -> 32        -0.00029
       6 -> 34        -0.00011
       6 -> 39         0.00019
       6 -> 43         0.00015
       6 -> 48         0.00070
       6 -> 51         0.00019
       6 -> 54        -0.00011
       7 ->  9         0.02879
       7 -> 13         0.01188
       7 -> 17         0.00101
       7 -> 23         0.00517
       7 -> 29        -0.00082
       7 -> 31        -0.00097
       7 -> 37         0.00058
       7 -> 44         0.00062
       7 -> 47        -0.00032
       7 -> 52        -0.00010
       8 -> 12         0.70551
       8 -> 15        -0.00053
       8 -> 18         0.02968
       8 -> 22         0.00288
       8 -> 25         0.00455
       8 -> 30        -0.00062
       8 -> 33         0.00167
       8 -> 35         0.00199
       8 -> 40         0.00042
       8 -> 42         0.00011
       8 -> 49        -0.00047
       8 -> 50         0.00025
       8 -> 53        -0.00025
       3 <- 10         0.00065
       3 <- 11         0.00029
       3 <- 14         0.00061
       3 <- 16         0.00014
       3 <- 19        -0.00088
       3 <- 20         0.00095
       3 <- 21         0.00068
       3 <- 24         0.00020
       3 <- 26         0.00087
       3 <- 28         0.00057
       3 <- 32         0.00024
       3 <- 34        -0.00054
       3 <- 36        -0.00011
       3 <- 41        -0.00012
       3 <- 46         0.00026
       3 <- 48        -0.00024
       3 <- 51        -0.00013
       3 <- 54        -0.00016
       4 <- 10         0.00400
       4 <- 11         0.00093
       4 <- 14         0.00334
       4 <- 20         0.00188
       4 <- 21        -0.00032
       4 <- 24        -0.00372
       4 <- 26         0.00128
       4 <- 32        -0.00081
       4 <- 34        -0.00023
       4 <- 41        -0.00012
       4 <- 43         0.00012
       4 <- 46        -0.00015
       4 <- 51        -0.00012
       5 <- 12         0.00271
       5 <- 15         0.00290
       5 <- 18         0.00334
       5 <- 22        -0.00097
       5 <- 25         0.00296
       5 <- 30        -0.00017
       5 <- 33        -0.00036
       5 <- 35        -0.00067
       5 <- 53        -0.00010
       6 <- 10         0.00261
       6 <- 14         0.00156
       6 <- 19         0.00045
       6 <- 20         0.00114
       6 <- 21        -0.00058
       6 <- 24        -0.00214
       6 <- 28        -0.00143
       6 <- 32        -0.00035
       6 <- 34        -0.00015
       6 <- 41         0.00010
       6 <- 46        -0.00016
       6 <- 48         0.00058
       6 <- 51         0.00022
       6 <- 54        -0.00010
       7 <-  9        -0.00146
       7 <- 13         0.00244
       7 <- 23         0.00260
       7 <- 29        -0.00065
       7 <- 31        -0.00064
       7 <- 37         0.00045
       7 <- 44         0.00052
       7 <- 47        -0.00028
       8 <- 12        -0.00049
       8 <- 15        -0.00419
       8 <- 18        -0.00164
       8 <- 22         0.00030
       8 <- 25        -0.00138
       8 <- 30        -0.00104
       8 <- 33         0.00064
       8 <- 35         0.00076
       8 <- 40         0.00047
       8 <- 42         0.00012
       8 <- 49        -0.00046
       8 <- 50         0.00016
       8 <- 53        -0.00025

 Excited State   5:      Singlet-A2     8.4226 eV  147.20 nm  f=0.0000  <S**2>=0.000
       3 -> 27        -0.00040
       3 -> 38        -0.00035
       3 -> 45        -0.00016
       4 -> 27         0.00016
       4 -> 38         0.00044
       5 ->  9        -0.00237
       5 -> 13        -0.00564
       5 -> 17         0.00665
       5 -> 23        -0.00222
       5 -> 29        -0.00022
       5 -> 31         0.00127
       5 -> 37        -0.00086
       5 -> 44        -0.00018
       6 -> 27         0.00023
       6 -> 38         0.00030
       6 -> 45        -0.00017
       7 -> 12         0.00013
       7 -> 15        -0.00193
       7 -> 18         0.00203
       7 -> 22        -0.00074
       7 -> 35         0.00012
       8 ->  9         0.03768
       8 -> 13         0.70551
       8 -> 17         0.02224
       8 -> 23         0.01593
       8 -> 29         0.00021
       8 -> 31         0.00173
       8 -> 37        -0.00040
       8 -> 47         0.00016
       3 <- 38        -0.00020
       3 <- 45        -0.00023
       5 <-  9        -0.00040
       5 <- 13        -0.00031
       5 <- 17         0.00047
       5 <- 37        -0.00018
       6 <- 38         0.00018
       7 <- 12        -0.00054
       7 <- 15        -0.00108
       7 <- 18         0.00079
       7 <- 22        -0.00084
       7 <- 25        -0.00043
       7 <- 30         0.00023
       7 <- 33         0.00034
       7 <- 35         0.00054
       7 <- 40        -0.00034
       8 <-  9         0.00127
       8 <- 13         0.00119
       8 <- 17         0.00024
       8 <- 23        -0.00012
       8 <- 37         0.00010

 Excited State   6:      Singlet-B1     8.5551 eV  144.93 nm  f=0.0011  <S**2>=0.000
       3 ->  9        -0.03325
       3 -> 13         0.00532
       3 -> 17        -0.00714
       3 -> 23         0.00417
       3 -> 29        -0.00269
       3 -> 31        -0.00017
       3 -> 44         0.00067
       3 -> 47         0.00010
       3 -> 52         0.00113
       4 ->  9         0.01694
       4 -> 13        -0.00278
       4 -> 17         0.00102
       4 -> 23        -0.00249
       4 -> 31        -0.00259
       4 -> 37        -0.00038
       4 -> 47        -0.00164
       4 -> 52        -0.00099
       5 -> 27        -0.00181
       5 -> 38         0.00216
       5 -> 45         0.00304
       6 ->  9         0.70484
       6 -> 13        -0.03681
       6 -> 17         0.02331
       6 -> 23        -0.01248
       6 -> 29         0.00829
       6 -> 31         0.00354

 The electronic state is 1-A1.
 Alpha  occ. eigenvalues --  -19.15415 -10.28654  -1.05179  -0.65273  -0.50067
 Alpha  occ. eigenvalues --   -0.45856  -0.39976  -0.28479
 Alpha virt. eigenvalues --   -0.07674   0.00633   0.03803   0.04234   0.06383
 Alpha virt. eigenvalues --    0.12702   0.17298   0.18678   0.21939   0.23363
 Alpha virt. eigenvalues --    0.26261   0.31817   0.44276   0.45658   0.50920

 Mulliken charges:
               1
     1  C    0.007536
     2  H    0.123665
     3  H    0.123665
     4  O   -0.254866
 Sum of Mulliken charges =   0.00000

 Dipole moment (field-independent basis, Debye):
    X=             -0.0000    Y=             -0.0000    Z=             -2.6937  Tot=              2.6937
 Quadrupole moment (field-independent basis, Debye-Ang):
   XX=            -11.8920   YY=            -11.7310   ZZ=            -12.3130
   XY=              0.0000   XZ=              0.0000   YZ=             -0.0000

 Normal termination of Gaussian 16 at Fri Sep 17 10:52:45 2021.
