 Gaussian 16, Revision C.01,
 Gaussian 16:  ES64L-G16RevC.01  3-Jul-2019

 --------------------------------------
 #P wB97XD/6-311+G* NoSymm #P Field=Z+9
 --------------------------------------

 -------
 TitleMe
 -------
 Symbolic Z-matrix:
 Charge =  1 Multiplicity = 1

                          Input orientation:
 ---------------------------------------------------------------------
 Center     Atomic      Atomic             Coordinates (Angstroms)
 Number     Number       Type             X           Y           Z
 ---------------------------------------------------------------------
      1          6           0        0.029500    1.339700    0.068200
      2          6           0        1.434800    1.286700    0.006400
      3          6           0        2.111800    0.051100   -0.005400
      4          6           0        1.445100   -1.137200    0.031200
      5          6           0       -0.687900    0.168200    0.110000
      6          1           0       -0.471300    2.298400    0.078100
      7          1           0        2.027300    2.196500   -0.032200
      8          1           0        1.989700   -2.076400    0.023200
      9          1           0       -1.771600    0.180400    0.158200
     10          7           0        3.586400    0.051000   -0.067500
     11          8           0        4.147100   -1.059700   -0.088100
     12          8           0        4.145000    1.163900   -0.090100
     13          6           0       -0.023600   -1.145800    0.083500
     14          1           0       -0.436700   -1.872500    0.788900
     15         35           0       -0.535900   -1.869700   -1.740800
 ---------------------------------------------------------------------

 SCF Done:  E(RwB97XD) =  -3010.53537775     A.U. after   18 cycles

 Alpha  occ. eigenvalues -- -483.30938 -62.85963 -56.65655 -56.65084 -56.65081
 Alpha  occ. eigenvalues --  -19.45626 -19.45554 -14.85130 -10.58025 -10.57243
 Alpha  occ. eigenvalues --  -10.56923 -10.56728 -10.56478 -10.52688  -9.01769
 Alpha  occ. eigenvalues --   -6.84445  -6.82574  -6.82560  -2.94350  -2.93853
 Alpha  occ. eigenvalues --   -2.93840  -2.92343  -2.92343  -1.49391  -1.32367
 Alpha  occ. eigenvalues --   -1.22367  -1.13781  -1.11478  -1.04097  -1.00774
 Alpha  occ. eigenvalues --   -0.95181  -0.90679  -0.85017  -0.80493  -0.80374
 Alpha  occ. eigenvalues --   -0.79729  -0.78034  -0.75838  -0.75646  -0.71998
 Alpha  occ. eigenvalues --   -0.69071  -0.67278  -0.63382  -0.59841  -0.56888
 Alpha  occ. eigenvalues --   -0.56097  -0.55877  -0.55360  -0.54913
 Alpha virt. eigenvalues --   -0.29337  -0.21051  -0.15343  -0.13095  -0.08539
 Alpha virt. eigenvalues --   -0.05964  -0.05462  -0.04689  -0.04247  -0.02949
 Alpha virt. eigenvalues --   -0.02214  -0.02125  -0.01038  -0.00712   0.00772

 Mulliken charges:
               1
     1  C   -0.575661
     2  C    0.514097
     3  C   -0.715595
     4  C    0.285721
     5  C    0.001110
     6  H    0.333619
     7  H    0.366232
     8  H    0.373490
     9  H    0.350460
    10  N   -0.107186
    11  O    0.031056
    12  O    0.027937
    13  C   -0.469533
    14  H    0.400814
    15  Br   0.183438
 Sum of Mulliken charges =   1.00000

 Dipole moment (field-independent basis, Debye):
    X=             -0.8507    Y=             -0.6206    Z=             -0.1758  Tot=              1.0675
 Quadrupole moment (field-independent basis, Debye-Ang):
   XX=            -71.2798   YY=            -51.9434   ZZ=            -62.4525
   XY=              1.3245   XZ=              1.0392   YZ=              1.7945

 Normal termination of Gaussian 16 at Wed May  1 15:25:03 2024.
