 Gaussian 16, Revision C.01,
 Gaussian 16:  ES64L-G16RevC.01  3-Jul-2019

 ---------------------------------------
 #P wB97XD/6-311+G* NoSymm #P Field=Z+29
 ---------------------------------------

 -------
 TitleMe
 -------
 Symbolic Z-matrix:
 Charge =  1 Multiplicity = 1

                          Input orientation:
 ---------------------------------------------------------------------
 Center     Atomic      Atomic             Coordinates (Angstroms)
 Number     Number       Type             X           Y           Z
 ---------------------------------------------------------------------
      1          6           0        0.029500    1.339700    0.068200
      2          6           0        1.434800    1.286700    0.006400
      3          6           0        2.111800    0.051100   -0.005400
      4          6           0        1.445100   -1.137200    0.031200
      5          6           0       -0.687900    0.168200    0.110000
      6          1           0       -0.471300    2.298400    0.078100
      7          1           0        2.027300    2.196500   -0.032200
      8          1           0        1.989700   -2.076400    0.023200
      9          1           0       -1.771600    0.180400    0.158200
     10          7           0        3.586400    0.051000   -0.067500
     11          8           0        4.147100   -1.059700   -0.088100
     12          8           0        4.145000    1.163900   -0.090100
     13          6           0       -0.023600   -1.145800    0.083500
     14          1           0       -0.436700   -1.872500    0.788900
     15         35           0       -0.535900   -1.869700   -1.740800
 ---------------------------------------------------------------------

 SCF Done:  E(RwB97XD) =  -3010.53565235     A.U. after   18 cycles

 Alpha  occ. eigenvalues -- -483.30635 -62.85655 -56.65353 -56.64773 -56.64771
 Alpha  occ. eigenvalues --  -19.45547 -19.45477 -14.85051 -10.57872 -10.57132
 Alpha  occ. eigenvalues --  -10.56829 -10.56632 -10.56389 -10.52606  -9.01457
 Alpha  occ. eigenvalues --   -6.84149  -6.82253  -6.82239  -2.94051  -2.93547
 Alpha  occ. eigenvalues --   -2.93534  -2.92018  -2.92017  -1.49313  -1.32289
 Alpha  occ. eigenvalues --   -1.22258  -1.13638  -1.11374  -1.03848  -1.00687
 Alpha  occ. eigenvalues --   -0.95069  -0.90586  -0.84937  -0.80413  -0.80282
 Alpha  occ. eigenvalues --   -0.79647  -0.77955  -0.75756  -0.75557  -0.71842
 Alpha  occ. eigenvalues --   -0.68974  -0.67186  -0.63217  -0.59673  -0.56790
 Alpha  occ. eigenvalues --   -0.55869  -0.55686  -0.55270  -0.54635
 Alpha virt. eigenvalues --   -0.29199  -0.20972  -0.15163  -0.12973  -0.08686
 Alpha virt. eigenvalues --   -0.06070  -0.05637  -0.04864  -0.03733  -0.02950
 Alpha virt. eigenvalues --   -0.02146  -0.02053  -0.00674  -0.00462   0.01017

 Mulliken charges:
               1
     1  C   -0.571922
     2  C    0.507063
     3  C   -0.713211
     4  C    0.282784
     5  C   -0.005420
     6  H    0.333034
     7  H    0.366153
     8  H    0.372991
     9  H    0.349750
    10  N   -0.107588
    11  O    0.031079
    12  O    0.028045
    13  C   -0.468462
    14  H    0.393812
    15  Br   0.201891
 Sum of Mulliken charges =   1.00000

 Dipole moment (field-independent basis, Debye):
    X=             -0.8994    Y=             -0.6964    Z=             -0.5223  Tot=              1.2517
 Quadrupole moment (field-independent basis, Debye-Ang):
   XX=            -71.3489   YY=            -51.8405   ZZ=            -62.0864
   XY=              1.3801   XZ=              0.8794   YZ=              2.0899

 Normal termination of Gaussian 16 at Wed May  1 15:25:03 2024.
