 Gaussian 16, Revision C.01,
 Gaussian 16:  ES64L-G16RevC.01  3-Jul-2019

 ----------------------------------------
 #P wB97XD/6-311+G* NoSymm #P Field=X-282
 ----------------------------------------

 -------
 TitleMe
 -------
 Symbolic Z-matrix:
 Charge =  1 Multiplicity = 1

                          Input orientation:
 ---------------------------------------------------------------------
 Center     Atomic      Atomic             Coordinates (Angstroms)
 Number     Number       Type             X           Y           Z
 ---------------------------------------------------------------------
      1          6           0        0.519300    1.233000   -0.031900
      2          6           0        1.944500    1.269200   -0.036700
      3          6           0        2.620400    0.092800   -0.025000
      4          6           0       -0.196000    0.030100    0.001000
      5          1           0       -0.020700    2.174200   -0.043400
      6          1           0        2.482800    2.208900   -0.036100
      7          1           0       -1.277700    0.039900    0.011700
      8          7           0        4.092100    0.095900    0.036600
      9          8           0        4.639300   -1.021700    0.144600
     10          8           0        4.664900    1.198400   -0.023300
     11          6           0        0.494300   -1.167100    0.021000
     12          1           0       -0.032500   -2.114900    0.054500
     13          6           0        1.962900   -1.216500   -0.021100
     14          1           0        2.443600   -1.963100    0.615100
     15         35           0        2.173000   -1.949100   -1.906200
 ---------------------------------------------------------------------

 SCF Done:  E(RwB97XD) =  -3010.60815794     A.U. after   27 cycles

 Alpha  occ. eigenvalues -- -483.21713 -62.76696 -56.56409 -56.55825 -56.55796
 Alpha  occ. eigenvalues --  -19.29396 -19.29055 -14.68945 -10.49590 -10.49397
 Alpha  occ. eigenvalues --  -10.49157 -10.48204 -10.46749 -10.43208  -8.92472
 Alpha  occ. eigenvalues --   -6.75196  -6.73281  -6.73193  -2.85087  -2.84599
 Alpha  occ. eigenvalues --   -2.84529  -2.82998  -2.82996  -1.32974  -1.15726
 Alpha  occ. eigenvalues --   -1.13525  -1.04149  -1.02817  -0.95223  -0.89524
 Alpha  occ. eigenvalues --   -0.86694  -0.81225  -0.75891  -0.71221  -0.69669
 Alpha  occ. eigenvalues --   -0.67264  -0.66282  -0.65062  -0.61856  -0.60222
 Alpha  occ. eigenvalues --   -0.59787  -0.57411  -0.55114  -0.50094  -0.46259
 Alpha  occ. eigenvalues --   -0.45445  -0.39828  -0.38157  -0.38061
 Alpha virt. eigenvalues --   -0.21036  -0.15483  -0.10077  -0.09704  -0.06574
 Alpha virt. eigenvalues --   -0.05908  -0.03813  -0.00644  -0.00422  -0.00018
 Alpha virt. eigenvalues --    0.01420   0.02837   0.04620   0.04892   0.06445

 Mulliken charges:
               1
     1  C   -0.094471
     2  C    0.112522
     3  C    0.103224
     4  C   -0.257426
     5  H    0.268437
     6  H    0.386223
     7  H    0.179637
     8  N   -0.240390
     9  O    0.198740
    10  O    0.209708
    11  C   -0.389197
    12  H    0.285054
    13  C   -0.464428
    14  H    0.446071
    15  Br   0.256294
 Sum of Mulliken charges =   1.00000

 Dipole moment (field-independent basis, Debye):
    X=             11.1271    Y=             -1.2926    Z=             -1.1590  Tot=             11.2617
 Quadrupole moment (field-independent basis, Debye-Ang):
   XX=            -36.4015   YY=            -50.8586   ZZ=            -61.5379
   XY=             -4.6663   XZ=             -4.7968   YZ=              3.4299

 Normal termination of Gaussian 16 at Thu May  2 14:26:29 2024.
