 Gaussian 16, Revision A.03,
 Gaussian 16:  ES64L-G16RevA.03 25-Dec-2016

 --------------------------------------------------------------------
 #p B3LYP/6-311+G** #p TD=(singlets,nstates=30)IOp(6/8=3) IOp(9/40=4)
 --------------------------------------------------------------------

 -------------------------------
 Scan Step 15, Bond Length 0.575
 -------------------------------
 Symbolic Z-matrix:
 Charge =  0 Multiplicity = 1

                         Standard orientation:
 ---------------------------------------------------------------------
 Center     Atomic      Atomic             Coordinates (Angstroms)
 Number     Number       Type             X           Y           Z
 ---------------------------------------------------------------------
      1          6           0        0.000000    0.000000   -0.213581
      2          1           0        0.000000    0.937260   -0.804931
      3          1           0       -0.000000   -0.937260   -0.804931
      4          8           0        0.000000   -0.000000    0.361419
 ---------------------------------------------------------------------

 SCF Done:  E(RB3LYP) =  -111.023956090     A.U. after   10 cycles

 Excitation energies and oscillator strengths:

 Excited State   1:      Singlet-B2     4.4364 eV  279.47 nm  f=0.1454  <S**2>=0.000
       3 -> 11         0.00075
       3 -> 15         0.00110
       3 -> 19         0.00075
       3 -> 22         0.00094
       3 -> 25         0.00130
       3 -> 29         0.00011
       3 -> 31        -0.00030
       3 -> 40        -0.00045
       3 -> 43         0.00024
       3 -> 54         0.00016
       4 ->  9        -0.00251
       4 -> 12         0.00186
       4 -> 13         0.00299
       4 -> 16         0.00126
       4 -> 17         0.00189
       4 -> 20         0.00208
       4 -> 21         0.00155
       4 -> 24         0.00118
       4 -> 26        -0.00074
       4 -> 30         0.00143
       4 -> 32         0.00105
       4 -> 33        -0.00041
       4 -> 38        -0.00053
       4 -> 42         0.00044
       4 -> 44        -0.00025
       4 -> 47        -0.00069
       4 -> 49        -0.00011
       4 -> 53         0.00015
       5 -> 28         0.00210
       5 -> 35         0.00095
       5 -> 45         0.00069
       6 -> 11        -0.00758
       6 -> 15         0.00263
       6 -> 19        -0.00123
       6 -> 22        -0.00010
       6 -> 25         0.00402
       6 -> 29         0.00093
       6 -> 31        -0.00070
       6 -> 40        -0.00015
       6 -> 43         0.00017
       6 -> 46         0.00028
       7 -> 11         0.00879
       7 -> 15         0.00460
       7 -> 19         0.00384
       7 -> 22         0.00061
       7 -> 25         0.00179
       7 -> 29        -0.00107
       7 -> 31         0.00102
       7 -> 37        -0.00063
       7 -> 43        -0.00034
       7 -> 46         0.00045
       7 -> 50         0.00042
       7 -> 54        -0.00014
       8 ->  9         0.70442
       8 -> 12        -0.00476
       8 -> 13         0.06155
       8 -> 16        -0.00542
       8 -> 17        -0.02355
       8 -> 20         0.00578
       8 -> 21         0.01137
       8 -> 24        -0.00045
       8 -> 26        -0.00096
       8 -> 30        -0.00349
       8 -> 32        -0.00208
       8 -> 38        -0.00100
       8 -> 39        -0.00020
       8 -> 42         0.00075
       8 -> 44         0.00051
       8 -> 47         0.00058
       8 -> 49         0.00026
       3 <- 11         0.00037
       3 <- 15         0.00072
       3 <- 19         0.00046
       3 <- 22         0.00080
       3 <- 25         0.00099
       3 <- 31        -0.00032
       3 <- 40        -0.00044
       3 <- 43         0.00025
       3 <- 54         0.00017
       4 <-  9        -0.00099
       4 <- 12        -0.00014
       4 <- 13         0.00245
       4 <- 16         0.00141
       4 <- 17         0.00014
       4 <- 20         0.00136
       4 <- 21         0.00129
       4 <- 24         0.00072
       4 <- 26        -0.00128
       4 <- 30         0.00110
       4 <- 32         0.00049
       4 <- 38        -0.00035
       4 <- 39         0.00014
       4 <- 42         0.00035
       4 <- 44        -0.00021
       4 <- 47        -0.00063
       5 <- 28         0.00181
       5 <- 35         0.00078
       5 <- 45         0.00058
       6 <- 11        -0.00233
       6 <- 15         0.00279
       6 <- 19        -0.00039
       6 <- 22         0.00043
       6 <- 25         0.00310
       6 <- 29         0.00054
       6 <- 31        -0.00063
       6 <- 40        -0.00015
       6 <- 43         0.00014
       6 <- 46         0.00024
       7 <- 11         0.00218
       7 <- 15         0.00218
       7 <- 19         0.00094
       7 <- 22         0.00029
       7 <- 25         0.00102
       7 <- 29        -0.00171
       7 <- 31         0.00088
       7 <- 37        -0.00039
       7 <- 43        -0.00022
       7 <- 46         0.00048
       7 <- 50         0.00050
       8 <-  9        -0.01301
       8 <- 12        -0.00726
       8 <- 13         0.02529
       8 <- 16         0.00759
       8 <- 20         0.00137
       8 <- 21         0.00607
       8 <- 24         0.00276
       8 <- 26        -0.00075
       8 <- 30        -0.00238
       8 <- 32        -0.00183
       8 <- 33        -0.00055
       8 <- 38        -0.00097
       8 <- 39        -0.00023
       8 <- 42         0.00069
       8 <- 44         0.00021
       8 <- 47         0.00052
       8 <- 49         0.00016
 This state for optimization and/or second-order correction.
 Total Energy, E(TD-HF/TD-DFT) =  -110.860919890
 Copying the excited state density for this state as the 1-particle RhoCI density.

 Excited State   2:      Singlet-A2     4.8198 eV  257.24 nm  f=0.0000  <S**2>=0.000
       3 -> 28        -0.00195
       3 -> 35        -0.00103
       3 -> 45        -0.00031
       4 -> 10        -0.00077
       4 -> 14        -0.00071
       4 -> 18         0.00227
       4 -> 23        -0.00067
       4 -> 27        -0.00193
       4 -> 34         0.00025
       4 -> 36        -0.00105
       4 -> 48        -0.00015
       4 -> 52        -0.00020
       5 -> 11         0.00019
       5 -> 15        -0.00020
       5 -> 19         0.00031
       5 -> 22        -0.00068
       5 -> 25         0.00024
       5 -> 29         0.00035
       5 -> 37        -0.00031
       5 -> 40         0.00015
       5 -> 43        -0.00036
       5 -> 46        -0.00026
       5 -> 50         0.00016
       6 -> 28        -0.00315
       6 -> 35         0.00070
       6 -> 45         0.00016
       7 -> 28         0.00150
       7 -> 35        -0.00025
       7 -> 45        -0.00028
       8 -> 10         0.70667
       8 -> 14        -0.00453
       8 -> 18        -0.02542
       8 -> 23        -0.00364
       8 -> 27         0.00012
       8 -> 34         0.00347
       8 -> 36        -0.00147
       8 -> 41         0.00059
       8 -> 48         0.00015
       8 -> 52         0.00027
       3 <- 28        -0.00164
       3 <- 35        -0.00089
       3 <- 45        -0.00030
       4 <- 10        -0.00021
       4 <- 14         0.00029
       4 <- 18         0.00081
       4 <- 23        -0.00013
       4 <- 27        -0.00049
       4 <- 34         0.00064
       4 <- 36        -0.00063
       4 <- 41        -0.00011
       5 <- 11         0.00045
       5 <- 15        -0.00046
       5 <- 19         0.00103
       5 <- 22        -0.00084
       5 <- 25         0.00069
       5 <- 29         0.00119
       5 <- 31         0.00012
       5 <- 37        -0.00056
       5 <- 40         0.00011
       5 <- 43        -0.00040
       5 <- 46        -0.00030
       5 <- 54        -0.00018
       6 <- 28        -0.00308
       6 <- 35         0.00083
       6 <- 45         0.00015
       7 <- 28         0.00151
       7 <- 35        -0.00037
       7 <- 45        -0.00030
       8 <- 10         0.00282
       8 <- 14         0.00227
       8 <- 18         0.00745
       8 <- 23        -0.00014
       8 <- 27        -0.00082
       8 <- 34         0.00329
       8 <- 36        -0.00118
       8 <- 41         0.00033
       8 <- 52         0.00011

 Excited State   3:      Singlet-B2     5.5228 eV  224.49 nm  f=0.0385  <S**2>=0.000
       3 -> 11        -0.00024
       3 -> 15         0.00041
       3 -> 19        -0.00046
       3 -> 22         0.00025
       3 -> 29        -0.00015
       3 -> 31         0.00013
       3 -> 37        -0.00016
       3 -> 40         0.00021
       3 -> 43        -0.00018
       3 -> 54        -0.00019
       4 ->  9         0.00087
       4 -> 12         0.00015
       4 -> 13         0.00088
       4 -> 16         0.00170
       4 -> 17        -0.00083
       4 -> 20        -0.00057
       4 -> 21         0.00092
       4 -> 24         0.00089
       4 -> 26         0.00016
       4 -> 30        -0.00204
       4 -> 32        -0.00014
       4 -> 38         0.00043
       4 -> 39        -0.00089
       4 -> 42        -0.00030
       4 -> 47         0.00040
       5 -> 28        -0.00099
       5 -> 35        -0.00111
       5 -> 45        -0.00058
       6 -> 11        -0.00088
       6 -> 15         0.00396
       6 -> 19        -0.00201
       6 -> 22        -0.00027
       6 -> 25         0.00161
       6 -> 29         0.00221
       6 -> 31         0.00052
       6 -> 37         0.00048
       6 -> 40         0.00039
       6 -> 43         0.00028
       6 -> 46        -0.00022
       6 -> 50        -0.00020
       6 -> 54         0.00014
       7 -> 11        -0.00112
       7 -> 15        -0.00393
       7 -> 19        -0.00110
       7 -> 22        -0.00010
       7 -> 25        -0.00289
       7 -> 29        -0.00104
       7 -> 31        -0.00045
       7 -> 37         0.00053
       7 -> 40         0.00014
       7 -> 46        -0.00057
       7 -> 50        -0.00026
       7 -> 54         0.00017
       8 ->  9         0.00194
       8 -> 12         0.70542
       8 -> 13         0.04086
       8 -> 16         0.02489
       8 -> 17         0.00319
       8 -> 20         0.01562
       8 -> 21         0.00538
       8 -> 24        -0.00100
       8 -> 26         0.00203
       8 -> 30        -0.00310
       8 -> 32         0.00048
       8 -> 33        -0.00021
       8 -> 38        -0.00080
       8 -> 39         0.00133
       8 -> 42         0.00093
       8 -> 44        -0.00017
       8 -> 47        -0.00022
       8 -> 51        -0.00011
       8 -> 53         0.00012
       3 <- 15         0.00033
       3 <- 19        -0.00017
       3 <- 22         0.00011
       3 <- 25         0.00021
       3 <- 31         0.00015
       3 <- 37        -0.00018
       3 <- 40         0.00017
       3 <- 43        -0.00017
       3 <- 54        -0.00023
       4 <-  9        -0.00100
       4 <- 12        -0.00021
       4 <- 13         0.00098
       4 <- 16         0.00065
       4 <- 17         0.00048
       4 <- 20        -0.00037
       4 <- 21         0.00064
       4 <- 24         0.00094
       4 <- 26         0.00030
       4 <- 30        -0.00140
       4 <- 32        -0.00014
       4 <- 33        -0.00051
       4 <- 38         0.00028
       4 <- 39        -0.00064
       4 <- 42        -0.00032
       4 <- 44         0.00010
       4 <- 47         0.00036
       5 <- 28        -0.00064
       5 <- 35        -0.00097
       5 <- 45        -0.00052
       6 <- 11        -0.00076
       6 <- 15         0.00082
       6 <- 19         0.00012
       6 <- 22        -0.00056
       6 <- 25         0.00152
       6 <- 29         0.00171
       6 <- 31         0.00069
       6 <- 37         0.00047
       6 <- 40         0.00031
       6 <- 43         0.00022
       6 <- 46        -0.00018
       6 <- 50        -0.00015
       6 <- 54         0.00012
       7 <- 11         0.00033
       7 <- 15        -0.00132
       7 <- 19        -0.00053
       7 <- 25        -0.00178
       7 <- 29        -0.00025
       7 <- 31        -0.00034
       7 <- 37         0.00020
       7 <- 46        -0.00050
       7 <- 50        -0.00034
       8 <-  9        -0.00665
       8 <- 12         0.00068
       8 <- 13         0.01263
       8 <- 16         0.00481
       8 <- 17        -0.00172
       8 <- 20        -0.00327
       8 <- 21         0.00321
       8 <- 24         0.00056
       8 <- 30        -0.00245
       8 <- 32         0.00047
       8 <- 33        -0.00028
       8 <- 38        -0.00065
       8 <- 39         0.00124
       8 <- 42         0.00081
       8 <- 44        -0.00012
       8 <- 47        -0.00019

 Excited State   4:      Singlet-A1     5.7640 eV  215.10 nm  f=0.0003  <S**2>=0.000
       3 ->  9         0.00161
       3 -> 12        -0.00031
       3 -> 13         0.00015
       3 -> 16        -0.00105
       3 -> 17        -0.00181
       3 -> 20        -0.00013
       3 -> 21         0.00103
       3 -> 24        -0.00112
       3 -> 26        -0.00037
       3 -> 30         0.00066
       3 -> 32        -0.00058
       3 -> 33         0.00088
       3 -> 38         0.00053
       3 -> 39         0.00033
       3 -> 44        -0.00019
       3 -> 51        -0.00012
       3 -> 53        -0.00015
       4 -> 11        -0.00545
       4 -> 15        -0.00489
       4 -> 19        -0.00480
       4 -> 22        -0.00274
       4 -> 25        -0.00320
       4 -> 29        -0.00074
       4 -> 37        -0.00087
       4 -> 40        -0.00014
       4 -> 43         0.00017
       4 -> 46        -0.00012
       5 -> 10        -0.00223
       5 -> 14        -0.00395
       5 -> 18         0.00055
       5 -> 23         0.00375
       5 -> 27        -0.00026
       5 -> 34        -0.00069
       5 -> 36        -0.00056
       6 ->  9         0.01069
       6 -> 12         0.00770
       6 -> 13        -0.00322
       6 -> 16        -0.00642
       6 -> 17        -0.00561
       6 -> 20         0.00386
       6 -> 21         0.00271
       6 -> 24        -0.00506
       6 -> 26         0.00193
       6 -> 30        -0.00041
       6 -> 32         0.00330
       6 -> 33         0.00094
       6 -> 38         0.00176
       6 -> 39        -0.00109
       6 -> 42        -0.00032
       6 -> 44         0.00090
       6 -> 47        -0.00020
       6 -> 49        -0.00038
       6 -> 51        -0.00014
       7 ->  9         0.01057
       7 -> 12        -0.01186
       7 -> 13        -0.00114
       7 -> 16         0.00597
       7 -> 17        -0.00959
       7 -> 20        -0.00322
       7 -> 21        -0.00209
       7 -> 26        -0.00403
       7 -> 30        -0.00101
       7 -> 32        -0.00106
       7 -> 33         0.00095
       7 -> 38        -0.00099
       7 -> 39         0.00032
       7 -> 42         0.00016
       7 -> 44        -0.00022
       7 -> 51         0.00011
       7 -> 53         0.00013
       8 -> 11         0.70432
       8 -> 15         0.05693
       8 -> 19        -0.02338
       8 -> 22        -0.00143
       8 -> 25         0.01012
       8 -> 29        -0.00252
       8 -> 31         0.00225
       8 -> 37        -0.00362
       8 -> 40        -0.00081
       8 -> 43         0.00189
       8 -> 46        -0.00116
       8 -> 50         0.00024
       3 <-  9         0.00100
       3 <- 12        -0.00012
       3 <- 13         0.00014
       3 <- 16        -0.00072
       3 <- 17        -0.00118
       3 <- 21         0.00076
       3 <- 24        -0.00084
       3 <- 26        -0.00030
       3 <- 30         0.00054
       3 <- 32        -0.00041
       3 <- 33         0.00069
       3 <- 38         0.00043
       3 <- 39         0.00027
       3 <- 44        -0.00016
       3 <- 47        -0.00010
       3 <- 51        -0.00011
       3 <- 53        -0.00013
       4 <- 11        -0.00248
       4 <- 15        -0.00213
       4 <- 19        -0.00290
       4 <- 22        -0.00192
       4 <- 25        -0.00187
       4 <- 29        -0.00054
       4 <- 37        -0.00073
       4 <- 40        -0.00013
       4 <- 43         0.00017
       5 <- 10        -0.00137
       5 <- 14        -0.00250
       5 <- 18         0.00036
       5 <- 23         0.00273
       5 <- 27        -0.00019
       5 <- 34        -0.00058
       5 <- 36        -0.00049
       6 <-  9         0.00819
       6 <- 12         0.00388
       6 <- 13        -0.00277
       6 <- 16        -0.00472
       6 <- 17        -0.00290
       6 <- 20         0.00195
       6 <- 21         0.00275
       6 <- 24        -0.00348
       6 <- 26         0.00137
       6 <- 32         0.00248
       6 <- 33         0.00064
       6 <- 38         0.00164
       6 <- 39        -0.00078
       6 <- 42        -0.00029
       6 <- 44         0.00085
       6 <- 47        -0.00012
       6 <- 49        -0.00034
       6 <- 51        -0.00014
       7 <-  9         0.00131
       7 <- 12        -0.00473
       7 <- 13         0.00046
       7 <- 16         0.00391
       7 <- 17        -0.00462
       7 <- 20        -0.00135
       7 <- 21        -0.00172
       7 <- 26        -0.00278
       7 <- 30        -0.00086
       7 <- 32        -0.00082
       7 <- 33         0.00072
       7 <- 38        -0.00085
       7 <- 39         0.00012
       7 <- 44        -0.00023
       7 <- 53         0.00012
       8 <- 11        -0.01456
       8 <- 15         0.00508
       8 <- 19        -0.01697
       8 <- 22        -0.00461
       8 <- 25         0.00561
       8 <- 29        -0.00204
       8 <- 31         0.00206
       8 <- 37        -0.00294
       8 <- 40        -0.00043
       8 <- 43         0.00154
       8 <- 46        -0.00107
       8 <- 50         0.00025

 Excited State   5:      Singlet-A2     8.4818 eV  146.18 nm  f=0.0000  <S**2>=0.000
       3 -> 28         0.00201
       3 -> 35         0.00109
       3 -> 45         0.00028
       4 -> 10        -0.00091
       4 -> 14        -0.00436
       4 -> 18        -0.00168
       4 -> 23         0.00261
       4 -> 27         0.00026
       4 -> 34         0.00035
       4 -> 36         0.00158
       4 -> 41        -0.00029
       4 -> 52         0.00012
       5 -> 19        -0.00041
       5 -> 22         0.00085
       5 -> 25        -0.00065
       5 -> 29        -0.00018
       5 -> 37         0.00030
       5 -> 40        -0.00016
       5 -> 43         0.00044
       5 -> 46         0.00027
       6 -> 28         0.00217
       6 -> 35        -0.00062
       7 -> 28        -0.00126
       7 -> 35         0.00012
       7 -> 45         0.00022
       8 -> 10         0.00700
       8 -> 14         0.70316
       8 -> 18         0.07252
       8 -> 23        -0.01602
       8 -> 27        -0.00135
       8 -> 34        -0.00240
       8 -> 36         0.00240
       8 -> 41        -0.00026
       8 -> 52        -0.00025
       3 <- 28         0.00143
       3 <- 35         0.00086
       3 <- 45         0.00030
       4 <- 10         0.00027
       4 <- 14        -0.00028
       4 <- 18        -0.00063
       4 <- 23         0.00021
       4 <- 27         0.00030
       4 <- 34        -0.00046
       4 <- 36         0.00063
       4 <- 41         0.00011
       5 <- 11         0.00044
       5 <- 22         0.00090
       5 <- 25        -0.00105
       5 <- 29        -0.00018
       5 <- 31        -0.00036
       5 <- 37         0.00069
       5 <- 43         0.00045
       5 <- 54         0.00013
       6 <- 28         0.00222
       6 <- 35        -0.00059
       6 <- 45        -0.00015
       7 <- 28        -0.00097
       8 <- 10         0.00289
       8 <- 18        -0.00457
       8 <- 23         0.00083
       8 <- 27         0.00031
       8 <- 34        -0.00264
       8 <- 36         0.00108
       8 <- 41        -0.00024
       8 <- 52        -0.00011

 Excited State   6:      Singlet-B2     8.7615 eV  141.51 nm  f=0.1335  <S**2>=0.000
       3 -> 11         0.00066
       3 -> 15        -0.00125
       3 -> 19         0.00143
       3 -> 22        -0.00097
       3 -> 25        -0.00040
       3 -> 29         0.00095
       3 -> 31         0.00066

 The electronic state is 1-A1.
 Alpha  occ. eigenvalues --  -19.32063 -10.50533  -1.23576  -0.92034  -0.89497
 Alpha  occ. eigenvalues --   -0.57808  -0.50808  -0.19533
 Alpha virt. eigenvalues --    0.00056   0.02442   0.04427   0.04705   0.14094
 Alpha virt. eigenvalues --    0.16428   0.17390   0.18190   0.21787   0.22062
 Alpha virt. eigenvalues --    0.28814   0.36671   0.50603   0.57422   0.62131

 Mulliken charges:
               1
     1  C    0.173341
     2  H   -0.133844
     3  H   -0.133844
     4  O    0.094347
 Sum of Mulliken charges =  -0.00000

 Dipole moment (field-independent basis, Debye):
    X=              0.0000    Y=             -0.0000    Z=              1.6775  Tot=              1.6775
 Quadrupole moment (field-independent basis, Debye-Ang):
   XX=            -10.0072   YY=            -14.3415   ZZ=            -13.7428
   XY=             -0.0000   XZ=             -0.0000   YZ=             -0.0000

 Normal termination of Gaussian 16 at Fri Sep 17 10:52:16 2021.
