 Gaussian 16, Revision C.01,
 Gaussian 16:  ES64L-G16RevC.01  3-Jul-2019

 ----------------------------------------
 #P wB97XD/6-311+G* NoSymm #P Field=Y-136
 ----------------------------------------

 -------
 TitleMe
 -------
 Symbolic Z-matrix:
 Charge =  1 Multiplicity = 1

                          Input orientation:
 ---------------------------------------------------------------------
 Center     Atomic      Atomic             Coordinates (Angstroms)
 Number     Number       Type             X           Y           Z
 ---------------------------------------------------------------------
      1          6           0        0.519300    1.233000   -0.031900
      2          6           0        1.944500    1.269200   -0.036700
      3          6           0        2.620400    0.092800   -0.025000
      4          6           0       -0.196000    0.030100    0.001000
      5          1           0       -0.020700    2.174200   -0.043400
      6          1           0        2.482800    2.208900   -0.036100
      7          1           0       -1.277700    0.039900    0.011700
      8          7           0        4.092100    0.095900    0.036600
      9          8           0        4.639300   -1.021700    0.144600
     10          8           0        4.664900    1.198400   -0.023300
     11          6           0        0.494300   -1.167100    0.021000
     12          1           0       -0.032500   -2.114900    0.054500
     13          6           0        1.962900   -1.216500   -0.021100
     14          1           0        2.443600   -1.963100    0.615100
     15         35           0        2.173000   -1.949100   -1.906200
 ---------------------------------------------------------------------

 SCF Done:  E(RwB97XD) =  -3010.53774115     A.U. after   21 cycles

 Alpha  occ. eigenvalues -- -483.33240 -62.88286 -56.67950 -56.67417 -56.67415
 Alpha  occ. eigenvalues --  -19.46508 -19.46243 -14.85776 -10.59917 -10.59520
 Alpha  occ. eigenvalues --  -10.58270 -10.57149 -10.53380 -10.53139  -9.04108
 Alpha  occ. eigenvalues --   -6.86708  -6.84953  -6.84947  -2.96631  -2.96162
 Alpha  occ. eigenvalues --   -2.96155  -2.94751  -2.94751  -1.50045  -1.33001
 Alpha  occ. eigenvalues --   -1.23244  -1.13749  -1.13076  -1.06105  -1.01004
 Alpha  occ. eigenvalues --   -0.96039  -0.91078  -0.85457  -0.81274  -0.80767
 Alpha  occ. eigenvalues --   -0.80286  -0.78569  -0.76378  -0.76129  -0.72910
 Alpha  occ. eigenvalues --   -0.69053  -0.67775  -0.64018  -0.61151  -0.58806
 Alpha  occ. eigenvalues --   -0.57724  -0.57159  -0.56013  -0.55583
 Alpha virt. eigenvalues --   -0.30950  -0.20607  -0.17337  -0.14307  -0.13061
 Alpha virt. eigenvalues --   -0.10044  -0.09325  -0.07028  -0.05629  -0.04901
 Alpha virt. eigenvalues --   -0.04289  -0.03631  -0.03081  -0.02528  -0.01325

 Mulliken charges:
               1
     1  C   -0.117536
     2  C    0.204317
     3  C   -0.052245
     4  C   -0.300065
     5  H    0.399628
     6  H    0.399617
     7  H    0.334903
     8  N   -0.235365
     9  O    0.014512
    10  O    0.148403
    11  C   -0.208113
    12  H    0.305683
    13  C   -0.354999
    14  H    0.377767
    15  Br   0.083492
 Sum of Mulliken charges =   1.00000

 Dipole moment (field-independent basis, Debye):
    X=              2.5787    Y=              3.0910    Z=             -0.2162  Tot=              4.0312
 Quadrupole moment (field-independent basis, Debye-Ang):
   XX=            -68.0605   YY=            -53.4675   ZZ=            -63.6666
   XY=              5.3529   XZ=             -1.3966   YZ=              0.3431

 Normal termination of Gaussian 16 at Thu May  2 14:20:15 2024.
