 Gaussian 16, Revision A.03,
 Gaussian 16:  ES64L-G16RevA.03 25-Dec-2016

 --------------------------------------------------------------------
 #p B3LYP/6-311+G** #p TD=(singlets,nstates=30)IOp(6/8=3) IOp(9/40=4)
 --------------------------------------------------------------------

 --------------------------------
 Scan Step 159, Bond Length 1.295
 --------------------------------
 Symbolic Z-matrix:
 Charge =  0 Multiplicity = 1

                         Standard orientation:
 ---------------------------------------------------------------------
 Center     Atomic      Atomic             Coordinates (Angstroms)
 Number     Number       Type             X           Y           Z
 ---------------------------------------------------------------------
      1          6           0        0.000000    0.000000   -0.573581
      2          1           0        0.000000    0.937260   -1.164931
      3          1           0       -0.000000   -0.937260   -1.164931
      4          8           0        0.000000   -0.000000    0.721419
 ---------------------------------------------------------------------

 SCF Done:  E(RB3LYP) =  -114.530523874     A.U. after    9 cycles

 Excitation energies and oscillator strengths:

 Excited State   1:      Singlet-A2     3.4242 eV  362.08 nm  f=0.0000  <S**2>=0.000
       3 -> 27         0.00217
       3 -> 38         0.00182
       3 -> 45         0.00274
       4 -> 27         0.00156
       4 -> 38        -0.00044
       4 -> 45        -0.00138
       5 ->  9         0.01905
       5 -> 13        -0.00157
       5 -> 17         0.00511
       5 -> 23         0.00057
       5 -> 29         0.00429
       5 -> 31        -0.00160
       5 -> 37         0.00295
       5 -> 44         0.00056
       5 -> 48         0.00014
       5 -> 52         0.00068
       6 -> 27        -0.00032
       6 -> 38        -0.00088
       6 -> 45         0.00175
       7 -> 12        -0.00063
       7 -> 15         0.00333
       7 -> 18        -0.00311
       7 -> 22         0.00031
       7 -> 25         0.00140
       7 -> 30        -0.00103
       7 -> 33         0.00045
       7 -> 35         0.00017
       7 -> 40         0.00016
       7 -> 42        -0.00012
       7 -> 49         0.00024
       7 -> 50         0.00032
       7 -> 53         0.00048
       8 ->  9         0.70624
       8 -> 13        -0.03289
       8 -> 17         0.02260
       8 -> 23        -0.00880
       8 -> 29         0.00998
       8 -> 31        -0.00166
       8 -> 37         0.00026
       8 -> 48        -0.00027
       8 -> 52         0.00179
       3 <- 27         0.00135
       3 <- 38         0.00148
       3 <- 45         0.00282
       4 <- 27         0.00234
       4 <- 38         0.00012
       4 <- 45        -0.00115
       5 <-  9        -0.00055
       5 <- 13        -0.00077
       5 <- 17        -0.00101
       5 <- 23         0.00050
       5 <- 29        -0.00071
       5 <- 31         0.00074
       5 <- 37         0.00146
       5 <- 44         0.00021
       5 <- 48         0.00014
       5 <- 52         0.00018
       6 <- 27         0.00028
       6 <- 38        -0.00077
       6 <- 45         0.00137
       7 <- 12        -0.00060
       7 <- 15        -0.00802
       7 <- 18         0.00102
       7 <- 22         0.00746
       7 <- 30         0.00394
       7 <- 33        -0.00120
       7 <- 35         0.00214
       7 <- 40         0.00090
       7 <- 50         0.00021
       7 <- 53         0.00135
       8 <-  9        -0.02864
       8 <- 13         0.00231
       8 <- 17        -0.00478
       8 <- 23         0.00075
       8 <- 29        -0.00129
       8 <- 31        -0.00062
       8 <- 37        -0.00117
       8 <- 52         0.00051
 This state for optimization and/or second-order correction.
 Total Energy, E(TD-HF/TD-DFT) =  -114.404685300
 Copying the excited state density for this state as the 1-particle RhoCI density.

 Excited State   2:      Singlet-B2     6.9382 eV  178.70 nm  f=0.0199  <S**2>=0.000
       3 -> 12         0.00165
       3 -> 15         0.00065
       3 -> 18         0.00128
       3 -> 22        -0.00033
       3 -> 25         0.00121
       3 -> 33         0.00025
       3 -> 35        -0.00051
       3 -> 40        -0.00020
       3 -> 49         0.00013
       4 -> 12        -0.00255
       4 -> 15         0.00203
       4 -> 18         0.00185
       4 -> 22        -0.00322
       4 -> 25         0.00310
       4 -> 30         0.00034
       4 -> 33        -0.00033
       4 -> 35         0.00045
       4 -> 40         0.00044
       4 -> 42        -0.00013
       5 -> 10        -0.00814
       5 -> 11        -0.00709
       5 -> 14         0.00708
       5 -> 16        -0.00065
       5 -> 19        -0.00245
       5 -> 20         0.00273
       5 -> 21         0.00578
       5 -> 24        -0.00058
       5 -> 26         0.00212
       5 -> 28         0.00099
       5 -> 32        -0.00106
       5 -> 34        -0.00099
       5 -> 36        -0.00018
       5 -> 39        -0.00024
       5 -> 41        -0.00048
       5 -> 43        -0.00048
       5 -> 46        -0.00021
       5 -> 54         0.00012
       6 -> 12        -0.00074
       6 -> 15         0.00142
       6 -> 18         0.00127
       6 -> 22        -0.00226
       6 -> 25         0.00096
       6 -> 30        -0.00052
       6 -> 33        -0.00028
       6 -> 35         0.00058
       6 -> 42        -0.00016
       6 -> 49         0.00043
       6 -> 50        -0.00022
       7 -> 38        -0.00067
       7 -> 45         0.00020
       8 -> 10         0.70262
       8 -> 11        -0.07361
       8 -> 14         0.01954
       8 -> 16        -0.00408
       8 -> 19         0.00153
       8 -> 20         0.01749
       8 -> 21        -0.00235
       8 -> 26         0.00293
       8 -> 28         0.00105
       8 -> 32         0.00095
       8 -> 34         0.00075
       8 -> 36         0.00030
       8 -> 39         0.00032
       8 -> 41        -0.00024
       8 -> 43         0.00059
       8 -> 46        -0.00037
       8 -> 47         0.00016
       8 -> 51        -0.00016
       8 -> 54         0.00021
       3 <- 12         0.00037
       3 <- 15         0.00051
       3 <- 18         0.00048
       3 <- 22        -0.00052
       3 <- 25         0.00067
       3 <- 30        -0.00011
       3 <- 33         0.00021
       3 <- 35        -0.00045
       3 <- 40        -0.00021
       3 <- 49         0.00018
       4 <- 12         0.00077
       4 <- 15         0.00197
       4 <- 18         0.00176
       4 <- 22        -0.00202
       4 <- 25         0.00210
       4 <- 30         0.00024
       4 <- 33        -0.00015
       4 <- 35         0.00020
       4 <- 40         0.00011
       4 <- 42        -0.00022
       4 <- 50        -0.00014
       5 <- 10         0.00227
       5 <- 11        -0.00024
       5 <- 14         0.00462
       5 <- 16        -0.00054
       5 <- 19        -0.00037
       5 <- 20         0.00076
       5 <- 21         0.00171
       5 <- 24        -0.00213
       5 <- 26         0.00143
       5 <- 28         0.00011
       5 <- 32        -0.00078
       5 <- 34        -0.00089
       5 <- 36        -0.00024
       5 <- 39        -0.00014
       5 <- 41        -0.00029
       5 <- 43        -0.00038
       5 <- 46        -0.00019
       6 <- 15        -0.00026
       6 <- 18         0.00097
       6 <- 22        -0.00046
       6 <- 25         0.00032
       6 <- 30         0.00036
       6 <- 33        -0.00033
       6 <- 35         0.00063
       6 <- 42        -0.00015
       6 <- 49         0.00035
       6 <- 50        -0.00024
       6 <- 53         0.00017
       7 <- 38        -0.00050
       7 <- 45         0.00020
       8 <- 10        -0.00144
       8 <- 11        -0.00061
       8 <- 14        -0.00433
       8 <- 16        -0.00056
       8 <- 19         0.00036
       8 <- 20        -0.00071
       8 <- 21        -0.00147
       8 <- 24         0.00181
       8 <- 26        -0.00086
       8 <- 28        -0.00042
       8 <- 32         0.00091
       8 <- 36         0.00031
       8 <- 39         0.00020
       8 <- 43         0.00036
       8 <- 46        -0.00020

 Excited State   3:      Singlet-B2     7.6783 eV  161.47 nm  f=0.0280  <S**2>=0.000
       3 -> 12        -0.00035
       3 -> 15        -0.00104
       3 -> 18         0.00117
       3 -> 22         0.00052
       3 -> 30         0.00260
       3 -> 33         0.00016
       3 -> 35        -0.00067
       3 -> 40        -0.00057
       3 -> 49         0.00065
       3 -> 50        -0.00018
       4 -> 12         0.00239
       4 -> 15         0.00048
       4 -> 18         0.00173
       4 -> 22        -0.00149
       4 -> 25         0.00274
       4 -> 30        -0.00143
       4 -> 33         0.00049
       4 -> 35        -0.00059
       4 -> 49         0.00023
       5 -> 10        -0.00520
       5 -> 11        -0.00018
       5 -> 14         0.01013
       5 -> 16        -0.00672
       5 -> 19        -0.00024
       5 -> 20        -0.00472
       5 -> 21         0.00268
       5 -> 24        -0.00075
       5 -> 26         0.00168
       5 -> 28         0.00154
       5 -> 34        -0.00079
       5 -> 36        -0.00042
       5 -> 39         0.00048
       5 -> 41        -0.00065
       5 -> 43         0.00020
       5 -> 46         0.00092
       5 -> 51        -0.00043
       6 -> 12        -0.00277
       6 -> 15        -0.00135
       6 -> 18        -0.00073
       6 -> 22         0.00106
       6 -> 25         0.00017
       6 -> 30         0.00120
       6 -> 33        -0.00055
       6 -> 35         0.00149
       6 -> 40         0.00115
       6 -> 49        -0.00133
       6 -> 50         0.00028
       6 -> 53         0.00012
       7 -> 27         0.00028
       7 -> 38        -0.00080
       7 -> 45        -0.00209
       8 -> 10         0.07362
       8 -> 11         0.70213
       8 -> 14        -0.00020
       8 -> 16         0.00852
       8 -> 19        -0.03656
       8 -> 20        -0.00236
       8 -> 21        -0.00270
       8 -> 24         0.00062
       8 -> 26        -0.00049
       8 -> 28         0.00236
       8 -> 32         0.00010
       8 -> 34        -0.00021
       8 -> 36        -0.00027
       8 -> 39        -0.00027
       8 -> 41        -0.00107
       8 -> 43         0.00039
       8 -> 46         0.00248
       8 -> 51        -0.00114
       3 <- 12         0.00034
       3 <- 15        -0.00033
       3 <- 18         0.00104
       3 <- 25         0.00019
       3 <- 30         0.00138
       3 <- 33         0.00027
       3 <- 35        -0.00068
       3 <- 40        -0.00052
       3 <- 49         0.00059
       3 <- 50        -0.00012
       3 <- 53        -0.00034
       4 <- 12         0.00029
       4 <- 15         0.00088
       4 <- 18         0.00036
       4 <- 22        -0.00117
       4 <- 25         0.00118
       4 <- 30        -0.00077
       4 <- 33         0.00046
       4 <- 35        -0.00031
       4 <- 49         0.00017
       5 <- 10         0.00117
       5 <- 11        -0.00140
       5 <- 14         0.00275
       5 <- 16        -0.00043
       5 <- 19         0.00155
       5 <- 20        -0.00036
       5 <- 21         0.00084
       5 <- 24        -0.00142
       5 <- 26         0.00015
       5 <- 28         0.00063
       5 <- 32        -0.00084
       5 <- 34         0.00011
       5 <- 36         0.00012
       5 <- 39         0.00012
       5 <- 41        -0.00069
       5 <- 43         0.00011
       5 <- 46         0.00088
       5 <- 47        -0.00010
       5 <- 51        -0.00030
       6 <- 12        -0.00026
       6 <- 15        -0.00115
       6 <- 18         0.00041
       6 <- 22         0.00097
       6 <- 25        -0.00015
       6 <- 30         0.00123
       6 <- 33        -0.00048
       6 <- 35         0.00132
       6 <- 40         0.00093
       6 <- 49        -0.00108
       6 <- 50         0.00021
       7 <- 27         0.00039
       7 <- 38        -0.00064
       7 <- 45        -0.00174
       8 <- 10        -0.00087
       8 <- 11        -0.00207
       8 <- 14        -0.00363
       8 <- 16         0.00039
       8 <- 19         0.00554
       8 <- 20         0.00046
       8 <- 21        -0.00193
       8 <- 24        -0.00049
       8 <- 26        -0.00165
       8 <- 28         0.00065
       8 <- 32        -0.00132
       8 <- 34         0.00168
       8 <- 39        -0.00075
       8 <- 41        -0.00101
       8 <- 43         0.00018
       8 <- 46         0.00199
       8 <- 47        -0.00029
       8 <- 51        -0.00075

 Excited State   4:      Singlet-A1     7.9562 eV  155.83 nm  f=0.0327  <S**2>=0.000
       3 -> 10         0.00243
       3 -> 11         0.00026
       3 -> 14         0.00164
       3 -> 19        -0.00325
       3 -> 20         0.00223
       3 -> 21         0.00130
       3 -> 24         0.00109
       3 -> 26         0.00164
       3 -> 28         0.00086
       3 -> 32         0.00029
       3 -> 34        -0.00103
       3 -> 36        -0.00021
       3 -> 39         0.00014
       3 -> 41        -0.00018
       3 -> 43         0.00011
       3 -> 46         0.00028
       3 -> 47        -0.00027
       3 -> 51        -0.00013
       3 -> 54        -0.00015
       4 -> 10         0.00580
       4 -> 11         0.00338
       4 -> 14         0.00488
       4 -> 16         0.00077
       4 -> 19         0.00064
       4 -> 20         0.00309
       4 -> 21        -0.00080
       4 -> 24        -0.00690
       4 -> 26         0.00252
       4 -> 28        -0.00021
       4 -> 32        -0.00065
       4 -> 34         0.00042
       4 -> 36         0.00013
       4 -> 43         0.00016
       4 -> 46        -0.00022
       4 -> 47        -0.00011
       4 -> 51        -0.00012
       5 -> 12         0.00638
       5 -> 15         0.00495
       5 -> 18         0.00865
       5 -> 22        -0.00272
       5 -> 25         0.00596
       5 -> 30        -0.00052
       5 -> 33        -0.00033
       5 -> 35         0.00076
       5 -> 40         0.00014
       5 -> 50         0.00012
       5 -> 53        -0.00012
       6 -> 10         0.00883
       6 -> 11        -0.00392
       6 -> 14         0.00325
       6 -> 16        -0.00189
       6 -> 19         0.00495
       6 -> 20        -0.00061
       6 -> 21        -0.00305
       6 -> 24        -0.00594
       6 -> 26        -0.00114
       6 -> 28        -0.00285
       6 -> 32        -0.00020
       6 -> 34        -0.00030
       6 -> 39         0.00024
       6 -> 43         0.00017
       6 -> 47         0.00077
       6 -> 51         0.00022
       6 -> 54        -0.00013
       7 ->  9         0.06053
       7 -> 13         0.01384
       7 -> 17        -0.00123
       7 -> 23         0.00535
       7 -> 29        -0.00121
       7 -> 31        -0.00105
       7 -> 37         0.00058
       7 -> 44         0.00056
       7 -> 48        -0.00028
       8 -> 12         0.70345
       8 -> 15         0.01040
       8 -> 18         0.02790
       8 -> 22        -0.00017
       8 -> 25         0.00527
       8 -> 30        -0.00172
       8 -> 33         0.00196
       8 -> 35        -0.00229
       8 -> 40         0.00018
       8 -> 49        -0.00045
       8 -> 50         0.00024
       8 -> 53        -0.00030
       3 <- 10         0.00076
       3 <- 11         0.00077
       3 <- 14         0.00087
       3 <- 16         0.00017
       3 <- 19        -0.00191
       3 <- 20         0.00097
       3 <- 21         0.00091
       3 <- 24         0.00041
       3 <- 26         0.00114
       3 <- 28         0.00058
       3 <- 32         0.00039
       3 <- 34        -0.00070
       3 <- 36        -0.00013
       3 <- 39         0.00011
       3 <- 43         0.00010
       3 <- 46         0.00035
       3 <- 47        -0.00019
       3 <- 51        -0.00011
       3 <- 54        -0.00013
       4 <- 10         0.00418
       4 <- 11         0.00047
       4 <- 14         0.00337
       4 <- 19         0.00022
       4 <- 20         0.00177
       4 <- 21        -0.00059
       4 <- 24        -0.00372
       4 <- 26         0.00153
       4 <- 32        -0.00086
       4 <- 41        -0.00015
       4 <- 43         0.00013
       4 <- 46        -0.00014
       4 <- 51        -0.00010
       5 <- 12         0.00300
       5 <- 15         0.00350
       5 <- 18         0.00314
       5 <- 22        -0.00107
       5 <- 25         0.00324
       5 <- 30        -0.00026
       5 <- 33        -0.00043
       5 <- 35         0.00067
       5 <- 53        -0.00011
       6 <- 10         0.00210
       6 <- 11        -0.00033
       6 <- 14         0.00128
       6 <- 16        -0.00066
       6 <- 19         0.00154
       6 <- 20        -0.00021
       6 <- 21        -0.00160
       6 <- 24        -0.00288
       6 <- 26        -0.00049
       6 <- 28        -0.00184
       6 <- 32        -0.00029
       6 <- 34        -0.00029
       6 <- 39         0.00012
       6 <- 43         0.00010
       6 <- 46        -0.00017
       6 <- 47         0.00063
       6 <- 51         0.00023
       6 <- 54        -0.00011
       7 <-  9        -0.00616
       7 <- 13         0.00296
       7 <- 17        -0.00105
       7 <- 23         0.00283
       7 <- 29        -0.00100
       7 <- 31        -0.00065
       7 <- 37         0.00043
       7 <- 44         0.00049
       7 <- 48        -0.00027
       8 <- 12        -0.00021
       8 <- 15        -0.00219
       8 <- 18        -0.00177
       8 <- 22        -0.00076
       8 <- 25        -0.00109
       8 <- 30        -0.00164
       8 <- 33         0.00077
       8 <- 35        -0.00089
       8 <- 40         0.00031
       8 <- 49        -0.00044
       8 <- 50         0.00015
       8 <- 53        -0.00029

 Excited State   5:      Singlet-B1     8.0718 eV  153.60 nm  f=0.0013  <S**2>=0.000
       3 ->  9        -0.03351
       3 -> 13         0.00463
       3 -> 17        -0.00685
       3 -> 23         0.00378
       3 -> 29        -0.00241
       3 -> 31        -0.00032
       3 -> 44         0.00061
       3 -> 48         0.00023
       3 -> 52         0.00113
       4 ->  9         0.01674
       4 -> 13        -0.00275
       4 -> 17         0.00094
       4 -> 23        -0.00249
       4 -> 31        -0.00240
       4 -> 37        -0.00042
       4 -> 48        -0.00159
       4 -> 52        -0.00095
       5 -> 27        -0.00165
       5 -> 38         0.00208
       5 -> 45         0.00268
       6 ->  9         0.70520
       6 -> 13        -0.03300
       6 -> 17         0.02224
       6 -> 23        -0.01237
       6 -> 29         0.00761
       6 -> 31         0.00380
       6 -> 37        -0.00262
       6 -> 44        -0.00352
       6 -> 48         0.00547
       6 -> 52         0.00193
       7 -> 10         0.00247
       7 -> 11         0.00695
       7 -> 16        -0.01232
       7 -> 19        -0.00324
       7 -> 20         0.00237
       7 -> 21         0.00351
       7 -> 24         0.00249
       7 -> 26         0.00194
       7 -> 28        -0.00472
       7 -> 32        -0.00129
       7 -> 36        -0.00155
       7 -> 39         0.00028
       7 -> 41        -0.00202
       7 -> 43         0.00101
       7 -> 46         0.00490
       7 -> 47         0.00235
       7 -> 51         0.00110
       7 -> 54         0.00055
       8 -> 27         0.00275
       8 -> 38         0.00093
       8 -> 45         0.00680
       3 <-  9        -0.01046
       3 <- 13         0.00067
       3 <- 17        -0.00337
       3 <- 23         0.00043
       3 <- 29        -0.00146
       3 <- 31        -0.00021
       3 <- 37        -0.00015
       3 <- 44        -0.00012
       3 <- 48         0.00052
       3 <- 52         0.00091
       4 <-  9         0.00548
       4 <- 17         0.00249
       4 <- 23        -0.00030
       4 <- 29         0.00225
       4 <- 31        -0.00230
       4 <- 37         0.00017
       4 <- 44         0.00020

 The electronic state is 1-A1.
 Alpha  occ. eigenvalues --  -19.15700 -10.29324  -1.03026  -0.65935  -0.49623
 Alpha  occ. eigenvalues --   -0.45278  -0.38757  -0.28682
 Alpha virt. eigenvalues --   -0.08770   0.00491   0.03662   0.04209   0.06318
 Alpha virt. eigenvalues --    0.12481   0.16841   0.18761   0.21891   0.23496
 Alpha virt. eigenvalues --    0.25044   0.30983   0.43073   0.44898   0.50924

 Mulliken charges:
               1
     1  C   -0.001869
     2  H    0.133940
     3  H    0.133940
     4  O   -0.266011
 Sum of Mulliken charges =   0.00000

 Dipole moment (field-independent basis, Debye):
    X=             -0.0000    Y=              0.0000    Z=             -2.8765  Tot=              2.8765
 Quadrupole moment (field-independent basis, Debye-Ang):
   XX=            -12.0214   YY=            -11.7321   ZZ=            -12.1904
   XY=              0.0000   XZ=              0.0000   YZ=              0.0000

 Normal termination of Gaussian 16 at Fri Sep 17 10:52:47 2021.
