 Gaussian 16, Revision A.03,
 Gaussian 16:  ES64L-G16RevA.03 25-Dec-2016

 --------------------------------------------------------------------
 #p B3LYP/6-311+G** #p TD=(singlets,nstates=30)IOp(6/8=3) IOp(9/40=4)
 --------------------------------------------------------------------

 -----------------------------
 Scan Step 8, Bond Length 0.54
 -----------------------------
 Symbolic Z-matrix:
 Charge =  0 Multiplicity = 1

                         Standard orientation:
 ---------------------------------------------------------------------
 Center     Atomic      Atomic             Coordinates (Angstroms)
 Number     Number       Type             X           Y           Z
 ---------------------------------------------------------------------
      1          6           0        0.000000    0.000000   -0.196081
      2          1           0        0.000000    0.937260   -0.787431
      3          1           0       -0.000000   -0.937260   -0.787431
      4          8           0        0.000000   -0.000000    0.343919
 ---------------------------------------------------------------------

 SCF Done:  E(RB3LYP) =  -110.107578229     A.U. after   11 cycles

 Excitation energies and oscillator strengths:

 Excited State   1:      Singlet-B2     4.3434 eV  285.45 nm  f=0.1539  <S**2>=0.000
       3 -> 11         0.00071
       3 -> 15         0.00140
       3 -> 19         0.00073
       3 -> 22         0.00123
       3 -> 25         0.00154
       3 -> 31        -0.00035
       3 -> 38         0.00014
       3 -> 40         0.00057
       3 -> 43         0.00025
       3 -> 53         0.00015
       4 ->  9        -0.00236
       4 -> 12         0.00156
       4 -> 13         0.00283
       4 -> 16         0.00116
       4 -> 17         0.00155
       4 -> 20         0.00201
       4 -> 21         0.00154
       4 -> 24         0.00103
       4 -> 26         0.00067
       4 -> 30         0.00160
       4 -> 32         0.00045
       4 -> 33         0.00089
       4 -> 37        -0.00048
       4 -> 42         0.00043
       4 -> 44        -0.00023
       4 -> 47        -0.00065
       4 -> 48        -0.00012
       4 -> 51        -0.00012
       4 -> 54        -0.00014
       5 -> 28         0.00217
       5 -> 35         0.00097
       5 -> 45         0.00064
       6 -> 11         0.00959
       6 -> 15        -0.00161
       6 -> 19         0.00249
       6 -> 22         0.00023
       6 -> 25        -0.00341
       6 -> 29        -0.00110
       6 -> 31         0.00078
       6 -> 40        -0.00014
       6 -> 43        -0.00019
       6 -> 46        -0.00019
       6 -> 50         0.00010
       7 -> 11         0.00804
       7 -> 15         0.00540
       7 -> 19         0.00392
       7 -> 22         0.00078
       7 -> 25         0.00265
       7 -> 29        -0.00083
       7 -> 31         0.00106
       7 -> 38        -0.00062
       7 -> 43        -0.00032
       7 -> 46         0.00048
       7 -> 50         0.00040
       7 -> 53        -0.00016
       8 ->  9         0.70403
       8 -> 12        -0.00721
       8 -> 13         0.06636
       8 -> 16        -0.00727
       8 -> 17        -0.02425
       8 -> 20         0.00629
       8 -> 21         0.01188
       8 -> 24        -0.00071
       8 -> 26         0.00119
       8 -> 30        -0.00357
       8 -> 32        -0.00160
       8 -> 33        -0.00136
       8 -> 37        -0.00090
       8 -> 39        -0.00029
       8 -> 42         0.00073
       8 -> 44         0.00060
       8 -> 47         0.00050
       8 -> 48         0.00026
       3 <- 11         0.00037
       3 <- 15         0.00100
       3 <- 19         0.00043
       3 <- 22         0.00105
       3 <- 25         0.00119
       3 <- 31        -0.00037
       3 <- 38         0.00016
       3 <- 40         0.00056
       3 <- 43         0.00026
       3 <- 46         0.00012
       3 <- 53         0.00017
       4 <-  9        -0.00092
       4 <- 12        -0.00010
       4 <- 13         0.00231
       4 <- 16         0.00118
       4 <- 20         0.00137
       4 <- 21         0.00128
       4 <- 24         0.00055
       4 <- 26         0.00120
       4 <- 30         0.00125
       4 <- 32         0.00026
       4 <- 33         0.00035
       4 <- 37        -0.00032
       4 <- 39         0.00015
       4 <- 42         0.00033
       4 <- 44        -0.00021
       4 <- 47        -0.00060
       5 <- 28         0.00189
       5 <- 35         0.00080
       5 <- 45         0.00054
       6 <- 11         0.00324
       6 <- 15        -0.00227
       6 <- 19         0.00108
       6 <- 22        -0.00036
       6 <- 25        -0.00270
       6 <- 29        -0.00084
       6 <- 31         0.00071
       6 <- 40        -0.00014
       6 <- 43        -0.00015
       6 <- 46        -0.00014
       7 <- 11         0.00188
       7 <- 15         0.00278
       7 <- 19         0.00100
       7 <- 22         0.00046
       7 <- 25         0.00177
       7 <- 29        -0.00158
       7 <- 31         0.00094
       7 <- 38        -0.00038
       7 <- 43        -0.00021
       7 <- 46         0.00051
       7 <- 50         0.00050
       8 <-  9        -0.01520
       8 <- 12        -0.00793
       8 <- 13         0.02742
       8 <- 16         0.00758
       8 <- 17        -0.00119
       8 <- 20         0.00176
       8 <- 21         0.00652
       8 <- 24         0.00256
       8 <- 26         0.00102
       8 <- 30        -0.00247
       8 <- 32        -0.00177
       8 <- 33        -0.00077
       8 <- 37        -0.00089
       8 <- 39        -0.00032
       8 <- 42         0.00069
       8 <- 44         0.00028
       8 <- 47         0.00046
       8 <- 48         0.00015
 This state for optimization and/or second-order correction.
 Total Energy, E(TD-HF/TD-DFT) =  -109.947960339
 Copying the excited state density for this state as the 1-particle RhoCI density.

 Excited State   2:      Singlet-A2     4.7409 eV  261.52 nm  f=0.0000  <S**2>=0.000
       3 -> 28        -0.00209
       3 -> 35        -0.00102
       3 -> 45        -0.00028
       4 -> 10        -0.00077
       4 -> 14        -0.00096
       4 -> 18        -0.00183
       4 -> 23        -0.00039
       4 -> 27        -0.00182
       4 -> 34         0.00028
       4 -> 36        -0.00095
       4 -> 49        -0.00015
       4 -> 52        -0.00019
       5 -> 11         0.00016
       5 -> 15        -0.00021
       5 -> 19         0.00029
       5 -> 22        -0.00062
       5 -> 25         0.00023
       5 -> 29         0.00038
       5 -> 38        -0.00032
       5 -> 40        -0.00015
       5 -> 43        -0.00035
       5 -> 46        -0.00024
       5 -> 50         0.00015
       6 -> 28         0.00322
       6 -> 35        -0.00085
       6 -> 45        -0.00022
       7 -> 28         0.00125
       7 -> 45        -0.00020
       8 -> 10         0.70673
       8 -> 14         0.00106
       8 -> 18         0.02403
       8 -> 23        -0.00349
       8 -> 27        -0.00035
       8 -> 34         0.00359
       8 -> 36        -0.00126
       8 -> 41         0.00073
       8 -> 49         0.00015
       8 -> 52         0.00025
       3 <- 28        -0.00176
       3 <- 35        -0.00088
       3 <- 45        -0.00028
       4 <- 10        -0.00022
       4 <- 14         0.00016
       4 <- 18        -0.00078
       4 <- 23        -0.00012
       4 <- 27        -0.00052
       4 <- 34         0.00060
       4 <- 36        -0.00058
       5 <- 11         0.00040
       5 <- 15        -0.00043
       5 <- 19         0.00090
       5 <- 22        -0.00074
       5 <- 25         0.00055
       5 <- 29         0.00113
       5 <- 38        -0.00054
       5 <- 40        -0.00011
       5 <- 43        -0.00039
       5 <- 46        -0.00028
       5 <- 53        -0.00017
       6 <- 28         0.00318
       6 <- 35        -0.00099
       6 <- 45        -0.00021
       7 <- 28         0.00122
       7 <- 35        -0.00018
       7 <- 45        -0.00023
       8 <- 10         0.00298
       8 <- 14         0.00114
       8 <- 18        -0.00771
       8 <- 27        -0.00096
       8 <- 34         0.00339
       8 <- 36        -0.00104
       8 <- 41         0.00041
       8 <- 52         0.00011

 Excited State   3:      Singlet-B2     5.4908 eV  225.80 nm  f=0.0395  <S**2>=0.000
       3 -> 11        -0.00029
       3 -> 15         0.00039
       3 -> 19        -0.00057
       3 -> 22         0.00019
       3 -> 31         0.00013
       3 -> 38        -0.00015
       3 -> 40        -0.00026
       3 -> 43        -0.00016
       3 -> 53        -0.00019
       4 ->  9         0.00064
       4 -> 13         0.00077
       4 -> 16         0.00146
       4 -> 17        -0.00079
       4 -> 20        -0.00053
       4 -> 21         0.00080
       4 -> 24         0.00088
       4 -> 30        -0.00194
       4 -> 32        -0.00012
       4 -> 37         0.00049
       4 -> 39        -0.00084
       4 -> 42        -0.00030
       4 -> 47         0.00035
       5 -> 28        -0.00099
       5 -> 35        -0.00106
       5 -> 45        -0.00055
       6 -> 11         0.00099
       6 -> 15        -0.00440
       6 -> 19         0.00196
       6 -> 22         0.00033
       6 -> 25        -0.00181
       6 -> 29        -0.00241
       6 -> 31        -0.00061
       6 -> 38        -0.00035
       6 -> 40         0.00035
       6 -> 43        -0.00028
       6 -> 46         0.00012
       6 -> 50         0.00016
       6 -> 53        -0.00012
       7 -> 11        -0.00097
       7 -> 15        -0.00333
       7 -> 19        -0.00137
       7 -> 22        -0.00045
       7 -> 25        -0.00256
       7 -> 29        -0.00075
       7 -> 31        -0.00038
       7 -> 38         0.00058
       7 -> 40        -0.00021
       7 -> 43         0.00013
       7 -> 46        -0.00059
       7 -> 50        -0.00027
       7 -> 53         0.00021
       8 ->  9         0.00382
       8 -> 12         0.70530
       8 -> 13         0.04431
       8 -> 16         0.02274
       8 -> 17         0.00038
       8 -> 20         0.01558
       8 -> 21         0.00517
       8 -> 24        -0.00105
       8 -> 26        -0.00202
       8 -> 30        -0.00330
       8 -> 32         0.00036
       8 -> 33         0.00036
       8 -> 37        -0.00092
       8 -> 39         0.00124
       8 -> 42         0.00098
       8 -> 44        -0.00018
       8 -> 47        -0.00015
       8 -> 51        -0.00011
       8 -> 54        -0.00011
       3 <- 11        -0.00013
       3 <- 15         0.00026
       3 <- 19        -0.00021
       3 <- 25         0.00012
       3 <- 31         0.00017
       3 <- 38        -0.00018
       3 <- 40        -0.00022
       3 <- 43        -0.00016
       3 <- 53        -0.00023
       4 <-  9        -0.00091
       4 <- 12        -0.00021
       4 <- 13         0.00087
       4 <- 16         0.00065
       4 <- 17         0.00037
       4 <- 20        -0.00033
       4 <- 21         0.00057
       4 <- 24         0.00090
       4 <- 26        -0.00017
       4 <- 30        -0.00136
       4 <- 32        -0.00041
       4 <- 33         0.00031
       4 <- 37         0.00032
       4 <- 39        -0.00059
       4 <- 42        -0.00033
       4 <- 44         0.00011
       4 <- 47         0.00032
       5 <- 28        -0.00065
       5 <- 35        -0.00093
       5 <- 45        -0.00050
       6 <- 11         0.00095
       6 <- 15        -0.00092
       6 <- 19        -0.00010
       6 <- 22         0.00051
       6 <- 25        -0.00167
       6 <- 29        -0.00182
       6 <- 31        -0.00076
       6 <- 38        -0.00040
       6 <- 40         0.00027
       6 <- 43        -0.00024
       6 <- 53        -0.00012
       7 <- 11         0.00035
       7 <- 15        -0.00118
       7 <- 19        -0.00051
       7 <- 22        -0.00037
       7 <- 25        -0.00155
       7 <- 31        -0.00025
       7 <- 38         0.00027
       7 <- 40        -0.00013
       7 <- 46        -0.00051
       7 <- 50        -0.00034
       7 <- 53         0.00013
       8 <-  9        -0.00727
       8 <- 12         0.00057
       8 <- 13         0.01302
       8 <- 16         0.00452
       8 <- 17        -0.00235
       8 <- 20        -0.00328
       8 <- 21         0.00313
       8 <- 24         0.00049
       8 <- 30        -0.00255
       8 <- 32         0.00025
       8 <- 33         0.00044
       8 <- 37        -0.00078
       8 <- 39         0.00119
       8 <- 42         0.00084
       8 <- 44        -0.00012
       8 <- 47        -0.00014

 Excited State   4:      Singlet-A1     5.7744 eV  214.71 nm  f=0.0001  <S**2>=0.000
       3 ->  9         0.00186
       3 -> 12        -0.00017
       3 -> 16        -0.00139
       3 -> 17        -0.00190
       3 -> 21         0.00109
       3 -> 24        -0.00142
       3 -> 26         0.00037
       3 -> 30         0.00068
       3 -> 32         0.00016
       3 -> 33        -0.00106
       3 -> 37         0.00064
       3 -> 39         0.00033
       3 -> 44        -0.00021
       3 -> 54         0.00018
       4 -> 11        -0.00512
       4 -> 15        -0.00432
       4 -> 19        -0.00479
       4 -> 22        -0.00278
       4 -> 25        -0.00312
       4 -> 29        -0.00123
       4 -> 38        -0.00075
       4 -> 40         0.00013
       4 -> 43         0.00014
       4 -> 46        -0.00013
       5 -> 10        -0.00180
       5 -> 14        -0.00375
       5 -> 18         0.00035
       5 -> 23         0.00384
       5 -> 27         0.00019
       5 -> 34        -0.00056
       5 -> 36        -0.00053
       6 ->  9        -0.00932
       6 -> 12        -0.00927
       6 -> 13         0.00269
       6 -> 16         0.00785
       6 -> 17         0.00319
       6 -> 20        -0.00390
       6 -> 21        -0.00353
       6 -> 24         0.00445
       6 -> 26         0.00282
       6 -> 30         0.00038
       6 -> 32        -0.00344
       6 -> 33        -0.00187
       6 -> 37        -0.00205
       6 -> 39         0.00109
       6 -> 42         0.00042
       6 -> 44        -0.00102
       6 -> 47         0.00023
       6 -> 48         0.00039
       6 -> 51         0.00018
       7 ->  9         0.01556
       7 -> 12        -0.01111
       7 -> 13        -0.00307
       7 -> 16         0.00481
       7 -> 17        -0.01203
       7 -> 20        -0.00246
       7 -> 21        -0.00251
       7 -> 24        -0.00138
       7 -> 26         0.00398
       7 -> 30        -0.00117
       7 -> 32         0.00045
       7 -> 33        -0.00096
       7 -> 37        -0.00091
       7 -> 54        -0.00015
       8 -> 11         0.70417
       8 -> 15         0.05752
       8 -> 19        -0.02498
       8 -> 22        -0.00172
       8 -> 25         0.01111
       8 -> 29        -0.00174
       8 -> 31         0.00236
       8 -> 38        -0.00371
       8 -> 40         0.00123
       8 -> 43         0.00186
       8 -> 46        -0.00124
       8 -> 50         0.00023
       3 <-  9         0.00123
       3 <- 16        -0.00097
       3 <- 17        -0.00123
       3 <- 21         0.00084
       3 <- 24        -0.00106
       3 <- 26         0.00030
       3 <- 30         0.00056
       3 <- 32         0.00014
       3 <- 33        -0.00082
       3 <- 37         0.00053
       3 <- 39         0.00028
       3 <- 44        -0.00018
       3 <- 54         0.00016
       4 <- 11        -0.00243
       4 <- 15        -0.00192
       4 <- 19        -0.00297
       4 <- 22        -0.00193
       4 <- 25        -0.00188
       4 <- 29        -0.00090
       4 <- 38        -0.00063
       4 <- 40         0.00013
       4 <- 43         0.00014
       4 <- 46        -0.00010
       5 <- 10        -0.00114
       5 <- 14        -0.00245
       5 <- 18         0.00023
       5 <- 23         0.00284
       5 <- 27         0.00016
       5 <- 34        -0.00048
       5 <- 36        -0.00046
       6 <-  9        -0.00792
       6 <- 12        -0.00452
       6 <- 13         0.00258
       6 <- 16         0.00549
       6 <- 17         0.00144
       6 <- 20        -0.00181
       6 <- 21        -0.00337
       6 <- 24         0.00308
       6 <- 26         0.00205
       6 <- 32        -0.00256
       6 <- 33        -0.00149
       6 <- 37        -0.00187
       6 <- 39         0.00073
       6 <- 42         0.00037
       6 <- 44        -0.00096
       6 <- 47         0.00017
       6 <- 48         0.00035
       6 <- 51         0.00017
       7 <-  9         0.00311
       7 <- 12        -0.00407
       7 <- 13        -0.00052
       7 <- 16         0.00305
       7 <- 17        -0.00565
       7 <- 20        -0.00089
       7 <- 21        -0.00181
       7 <- 24        -0.00076
       7 <- 26         0.00275
       7 <- 30        -0.00091
       7 <- 32         0.00032
       7 <- 33        -0.00072
       7 <- 37        -0.00076
       7 <- 54        -0.00013
       8 <- 11        -0.01647
       8 <- 15         0.00474
       8 <- 19        -0.01748
       8 <- 22        -0.00474
       8 <- 25         0.00651
       8 <- 29        -0.00154
       8 <- 31         0.00216
       8 <- 38        -0.00304
       8 <- 40         0.00077
       8 <- 43         0.00153
       8 <- 46        -0.00112
       8 <- 50         0.00024

 Excited State   5:      Singlet-A2     8.5777 eV  144.54 nm  f=0.0000  <S**2>=0.000
       3 -> 28         0.00154
       3 -> 35         0.00074
       3 -> 45         0.00014
       4 -> 10        -0.00113
       4 -> 14        -0.00337
       4 -> 18         0.00143
       4 -> 23         0.00220
       4 -> 34         0.00020
       4 -> 36         0.00110
       4 -> 41        -0.00036
       5 -> 15         0.00011
       5 -> 19        -0.00033
       5 -> 22         0.00061
       5 -> 25        -0.00053
       5 -> 29        -0.00018
       5 -> 38         0.00022
       5 -> 40         0.00011
       5 -> 43         0.00032
       5 -> 46         0.00019
       6 -> 28        -0.00173
       6 -> 35         0.00053
       7 -> 28        -0.00095
       7 -> 45         0.00011
       8 -> 10         0.00103
       8 -> 14         0.70402
       8 -> 18        -0.06434
       8 -> 23        -0.01444
       8 -> 27        -0.00075
       8 -> 34        -0.00194
       8 -> 36         0.00204
       8 -> 41        -0.00028
       8 -> 52        -0.00019
       3 <- 28         0.00113
       3 <- 35         0.00056
       3 <- 45         0.00015
       4 <- 10         0.00023
       4 <- 14        -0.00010
       4 <- 18         0.00054
       4 <- 23         0.00017
       4 <- 27         0.00026
       4 <- 34        -0.00035
       4 <- 36         0.00044
       5 <- 11         0.00044
       5 <- 19         0.00015
       5 <- 22         0.00061
       5 <- 25        -0.00079
       5 <- 31        -0.00027
       5 <- 38         0.00047
       5 <- 43         0.00032
       6 <- 28        -0.00171
       6 <- 35         0.00051
       6 <- 45         0.00012
       7 <- 28        -0.00056
       7 <- 35        -0.00021
       8 <- 10         0.00170
       8 <- 14         0.00144
       8 <- 18         0.00403
       8 <- 23         0.00083
       8 <- 27         0.00016
       8 <- 34        -0.00215
       8 <- 36         0.00080
       8 <- 41        -0.00021

 Excited State   6:      Singlet-B2     8.7432 eV  141.81 nm  f=0.1660  <S**2>=0.000
       3 -> 11         0.00086
       3 -> 15        -0.00164
       3 -> 19         0.00181
       3 -> 22        -0.00132
       3 -> 25        -0.00058
       3 -> 29         0.00116
       3 -> 31         0.00073
       3 -> 40        -0.00075
       3 -> 43        -0.00032
       4 ->  9         0.00198
       4 -> 12        -0.00206
       4 -> 13        -0.00512
       4 -> 16        -0.00051
       4 -> 17        -0.00084
       4 -> 20        -0.00408
       4 -> 21        -0.00499
       4 -> 24        -0.00077
       4 -> 26        -0.00048
       4 -> 30        -0.00285
       4 -> 32         0.00019

 The electronic state is 1-A1.
 Alpha  occ. eigenvalues --  -19.40706 -10.62487  -1.19512  -0.98121  -0.95753
 Alpha  occ. eigenvalues --   -0.57032  -0.47470  -0.19439
 Alpha virt. eigenvalues --   -0.00289   0.02236   0.04434   0.04677   0.13898
 Alpha virt. eigenvalues --    0.16699   0.16963   0.18374   0.21293   0.22303
 Alpha virt. eigenvalues --    0.29361   0.36748   0.50464   0.57120   0.63403

 Mulliken charges:
               1
     1  C    0.132545
     2  H   -0.142073
     3  H   -0.142073
     4  O    0.151601
 Sum of Mulliken charges =  -0.00000

 Dipole moment (field-independent basis, Debye):
    X=              0.0000    Y=              0.0000    Z=              1.7757  Tot=              1.7757
 Quadrupole moment (field-independent basis, Debye-Ang):
   XX=             -9.9303   YY=            -14.5442   ZZ=            -13.7948
   XY=             -0.0000   XZ=             -0.0000   YZ=             -0.0000

 Normal termination of Gaussian 16 at Fri Sep 17 10:52:18 2021.
