 Gaussian 16, Revision C.01,
 Gaussian 16:  ES64L-G16RevC.01  3-Jul-2019

 ----------------------------------------
 #P wB97XD/6-311+G* NoSymm #P Field=Z-155
 ----------------------------------------

 -------
 TitleMe
 -------
 Symbolic Z-matrix:
 Charge =  1 Multiplicity = 1

                          Input orientation:
 ---------------------------------------------------------------------
 Center     Atomic      Atomic             Coordinates (Angstroms)
 Number     Number       Type             X           Y           Z
 ---------------------------------------------------------------------
      1          6           0        0.519300    1.233000   -0.031900
      2          6           0        1.944500    1.269200   -0.036700
      3          6           0        2.620400    0.092800   -0.025000
      4          6           0       -0.196000    0.030100    0.001000
      5          1           0       -0.020700    2.174200   -0.043400
      6          1           0        2.482800    2.208900   -0.036100
      7          1           0       -1.277700    0.039900    0.011700
      8          7           0        4.092100    0.095900    0.036600
      9          8           0        4.639300   -1.021700    0.144600
     10          8           0        4.664900    1.198400   -0.023300
     11          6           0        0.494300   -1.167100    0.021000
     12          1           0       -0.032500   -2.114900    0.054500
     13          6           0        1.962900   -1.216500   -0.021100
     14          1           0        2.443600   -1.963100    0.615100
     15         35           0        2.173000   -1.949100   -1.906200
 ---------------------------------------------------------------------

 SCF Done:  E(RwB97XD) =  -3010.53579887     A.U. after   20 cycles

 Alpha  occ. eigenvalues -- -483.33764 -62.88820 -56.68468 -56.67960 -56.67954
 Alpha  occ. eigenvalues --  -19.46639 -19.46590 -14.86079 -10.60086 -10.59494
 Alpha  occ. eigenvalues --  -10.58205 -10.58024 -10.54233 -10.53550  -9.04649
 Alpha  occ. eigenvalues --   -6.87208  -6.85522  -6.85507  -2.97140  -2.96691
 Alpha  occ. eigenvalues --   -2.96677  -2.95328  -2.95327  -1.50306  -1.33254
 Alpha  occ. eigenvalues --   -1.23476  -1.14221  -1.13365  -1.06606  -1.01294
 Alpha  occ. eigenvalues --   -0.96313  -0.91418  -0.85544  -0.81574  -0.80888
 Alpha  occ. eigenvalues --   -0.80604  -0.78693  -0.76728  -0.76410  -0.73369
 Alpha  occ. eigenvalues --   -0.69436  -0.68452  -0.64781  -0.61630  -0.59338
 Alpha  occ. eigenvalues --   -0.57842  -0.57443  -0.56363  -0.55998
 Alpha virt. eigenvalues --   -0.31351  -0.21053  -0.17954  -0.13924  -0.13824
 Alpha virt. eigenvalues --   -0.10525  -0.09238  -0.07878  -0.06786  -0.05677
 Alpha virt. eigenvalues --   -0.04720  -0.03976  -0.02409  -0.01573  -0.01351

 Mulliken charges:
               1
     1  C   -0.069652
     2  C    0.118319
     3  C   -0.094361
     4  C   -0.350568
     5  H    0.350035
     6  H    0.355080
     7  H    0.337287
     8  N   -0.210619
     9  O    0.090767
    10  O    0.073612
    11  C   -0.157404
    12  H    0.363254
    13  C   -0.296328
    14  H    0.461088
    15  Br   0.029490
 Sum of Mulliken charges =   1.00000

 Dipole moment (field-independent basis, Debye):
    X=              2.5738    Y=             -0.2986    Z=              2.0297  Tot=              3.2914
 Quadrupole moment (field-independent basis, Debye-Ang):
   XX=            -67.7979   YY=            -52.1349   ZZ=            -65.9529
   XY=             -1.7637   XZ=              3.1690   YZ=             -0.2642

 Normal termination of Gaussian 16 at Thu May  2 14:19:42 2024.
