 Gaussian 16, Revision C.01,
 Gaussian 16:  ES64L-G16RevC.01  3-Jul-2019

 ---------------------------------------
 #P wB97XD/6-311+G* NoSymm #P Field=Y-19
 ---------------------------------------

 -------
 TitleMe
 -------
 Symbolic Z-matrix:
 Charge =  1 Multiplicity = 1

                          Input orientation:
 ---------------------------------------------------------------------
 Center     Atomic      Atomic             Coordinates (Angstroms)
 Number     Number       Type             X           Y           Z
 ---------------------------------------------------------------------
      1          6           0        0.029500    1.339700    0.068200
      2          6           0        1.434800    1.286700    0.006400
      3          6           0        2.111800    0.051100   -0.005400
      4          6           0        1.445100   -1.137200    0.031200
      5          6           0       -0.687900    0.168200    0.110000
      6          1           0       -0.471300    2.298400    0.078100
      7          1           0        2.027300    2.196500   -0.032200
      8          1           0        1.989700   -2.076400    0.023200
      9          1           0       -1.771600    0.180400    0.158200
     10          7           0        3.586400    0.051000   -0.067500
     11          8           0        4.147100   -1.059700   -0.088100
     12          8           0        4.145000    1.163900   -0.090100
     13          6           0       -0.023600   -1.145800    0.083500
     14          1           0       -0.436700   -1.872500    0.788900
     15         35           0       -0.535900   -1.869700   -1.740800
 ---------------------------------------------------------------------

 SCF Done:  E(RwB97XD) =  -3010.53510870     A.U. after   19 cycles

 Alpha  occ. eigenvalues -- -483.31376 -62.86407 -56.66092 -56.65530 -56.65528
 Alpha  occ. eigenvalues --  -19.45731 -19.45624 -14.85216 -10.58357 -10.57281
 Alpha  occ. eigenvalues --  -10.57060 -10.56900 -10.56539 -10.52650  -9.02217
 Alpha  occ. eigenvalues --   -6.84875  -6.83032  -6.83019  -2.94784  -2.94294
 Alpha  occ. eigenvalues --   -2.94282  -2.92808  -2.92808  -1.49477  -1.32451
 Alpha  occ. eigenvalues --   -1.22512  -1.13992  -1.11562  -1.04447  -1.00864
 Alpha  occ. eigenvalues --   -0.95327  -0.90785  -0.85095  -0.80584  -0.80472
 Alpha  occ. eigenvalues --   -0.79825  -0.78181  -0.75926  -0.75729  -0.72190
 Alpha  occ. eigenvalues --   -0.69167  -0.67349  -0.63539  -0.60078  -0.57034
 Alpha  occ. eigenvalues --   -0.56543  -0.55984  -0.55464  -0.55259
 Alpha virt. eigenvalues --   -0.29511  -0.21156  -0.15591  -0.13259  -0.08772
 Alpha virt. eigenvalues --   -0.05833  -0.05494  -0.04763  -0.04595  -0.03137
 Alpha virt. eigenvalues --   -0.02537  -0.02066  -0.01576  -0.01128   0.00065

 Mulliken charges:
               1
     1  C   -0.573736
     2  C    0.507728
     3  C   -0.706510
     4  C    0.281272
     5  C    0.009945
     6  H    0.341772
     7  H    0.373195
     8  H    0.367387
     9  H    0.351345
    10  N   -0.107429
    11  O    0.021421
    12  O    0.038819
    13  C   -0.466693
    14  H    0.399089
    15  Br   0.162395
 Sum of Mulliken charges =   1.00000

 Dipole moment (field-independent basis, Debye):
    X=             -0.7643    Y=             -0.0406    Z=              0.0515  Tot=              0.7671
 Quadrupole moment (field-independent basis, Debye-Ang):
   XX=            -71.1446   YY=            -52.2372   ZZ=            -62.7785
   XY=              1.9096   XZ=              1.0497   YZ=              1.4118

 Normal termination of Gaussian 16 at Wed May  1 15:06:50 2024.
