 Gaussian 16, Revision A.03,
 Gaussian 16:  ES64L-G16RevA.03 25-Dec-2016

 --------------------------------------------------------------------
 #p B3LYP/6-311+G** #p TD=(singlets,nstates=30)IOp(6/8=3) IOp(9/40=4)
 --------------------------------------------------------------------

 -------------------------------
 Scan Step 266, Bond Length 1.83
 -------------------------------
 Symbolic Z-matrix:
 Charge =  0 Multiplicity = 1

                         Standard orientation:
 ---------------------------------------------------------------------
 Center     Atomic      Atomic             Coordinates (Angstroms)
 Number     Number       Type             X           Y           Z
 ---------------------------------------------------------------------
      1          6           0        0.000000   -0.000000   -0.841081
      2          1           0        0.000000    0.937260   -1.432431
      3          1           0       -0.000000   -0.937260   -1.432431
      4          8           0        0.000000    0.000000    0.988919
 ---------------------------------------------------------------------

 SCF Done:  E(RB3LYP) =  -114.346768970     A.U. after   11 cycles

 Excitation energies and oscillator strengths:

 Excited State   1:      Singlet-A2     1.2953 eV  957.15 nm  f=0.0000  <S**2>=0.000
       3 -> 27         0.00072
       3 -> 38         0.00045
       3 -> 46         0.00334
       4 -> 27         0.00039
       4 -> 46        -0.00097
       5 ->  9         0.00177
       5 -> 13         0.00110
       5 -> 18         0.00172
       5 -> 23         0.00137
       5 -> 28         0.00133
       5 -> 37         0.00075
       5 -> 44         0.00021
       5 -> 52         0.00018
       6 -> 27        -0.00057
       6 -> 38        -0.00057
       6 -> 46         0.00095
       7 -> 12        -0.00127
       7 -> 16         0.00529
       7 -> 19        -0.00467
       7 -> 22        -0.00111
       7 -> 25        -0.00057
       7 -> 29        -0.00191
       7 -> 33         0.00028
       7 -> 49         0.00013
       7 -> 53         0.00038
       8 ->  9         0.71079
       8 -> 13        -0.00690
       8 -> 18         0.02082
       8 -> 23        -0.00100
       8 -> 28         0.01030
       8 -> 31         0.00160
       8 -> 37         0.00049
       8 -> 48        -0.00029
       8 -> 52         0.00186
       3 <- 27         0.00020
       3 <- 38         0.00023
       3 <- 46         0.00337
       4 <- 27         0.00072
       4 <- 38         0.00019
       4 <- 46        -0.00075
       5 <-  9         0.00035
       5 <- 13        -0.00034
       5 <- 18        -0.00039
       5 <- 23         0.00017
       5 <- 28        -0.00028
       5 <- 31         0.00022
       5 <- 37         0.00044
       6 <- 38        -0.00043
       6 <- 46         0.00070
       7 <- 12         0.00178
       7 <- 16        -0.01054
       7 <- 19         0.00555
       7 <- 22         0.00575
       7 <- 25        -0.00063
       7 <- 29         0.00562
       7 <- 33        -0.00035
       7 <- 35         0.00017
       7 <- 40        -0.00012
       7 <- 42        -0.00011
       7 <- 49        -0.00048
       7 <- 53         0.00145
       8 <-  9        -0.07489
       8 <- 13        -0.00042
       8 <- 18        -0.00771
       8 <- 23        -0.00032
       8 <- 28        -0.00275
       8 <- 31        -0.00081
       8 <- 37        -0.00021
       8 <- 48         0.00013
       8 <- 52         0.00044
 This state for optimization and/or second-order correction.
 Total Energy, E(TD-HF/TD-DFT) =  -114.299166039
 Copying the excited state density for this state as the 1-particle RhoCI density.

 Excited State   2:      Singlet-A1     3.4085 eV  363.75 nm  f=0.0317  <S**2>=0.000
       3 -> 10        -0.01479
       3 -> 11        -0.00323
       3 -> 14         0.00155
       3 -> 15         0.00049
       3 -> 17        -0.00308
       3 -> 20        -0.00356
       3 -> 21         0.00042
       3 -> 24         0.00057
       3 -> 26         0.00139
       3 -> 30        -0.00062
       3 -> 32         0.00277
       3 -> 34        -0.00110
       3 -> 36        -0.00100
       3 -> 39        -0.00043
       3 -> 43         0.00052
       3 -> 45        -0.00096
       3 -> 47         0.00231
       3 -> 50         0.00154
       4 -> 10        -0.00176
       4 -> 11         0.01055
       4 -> 14         0.00194
       4 -> 15        -0.00782
       4 -> 17         0.00225
       4 -> 20         0.00221
       4 -> 21         0.00028
       4 -> 24        -0.00383
       4 -> 26         0.00336
       4 -> 30         0.00036
       4 -> 32        -0.00124
       4 -> 34         0.00081
       4 -> 36         0.00014
       4 -> 39        -0.00020
       4 -> 43        -0.00047
       4 -> 45         0.00077
       4 -> 47        -0.00078
       4 -> 50        -0.00028
       4 -> 54         0.00015
       5 -> 12         0.00984
       5 -> 16         0.00287
       5 -> 19         0.00117
       5 -> 22         0.00686
       5 -> 25        -0.00470
       5 -> 29         0.00034
       5 -> 33        -0.00243
       5 -> 35         0.00274
       5 -> 40        -0.00101
       5 -> 42        -0.00097
       5 -> 49         0.00015
       5 -> 51        -0.00085
       6 -> 10         0.24903
       6 -> 11         0.03866
       6 -> 14        -0.04366
       6 -> 15        -0.02378
       6 -> 17        -0.01589
       6 -> 20        -0.00177
       6 -> 21         0.00568
       6 -> 24        -0.00810
       6 -> 26        -0.00329
       6 -> 30        -0.00427
       6 -> 32         0.00393
       6 -> 34        -0.00138
       6 -> 36         0.00047
       6 -> 39        -0.00134
       6 -> 41        -0.00012
       6 -> 43         0.00082
       6 -> 45        -0.00088
       6 -> 47         0.00080
       6 -> 50         0.00057
       6 -> 54        -0.00096
       7 ->  9         0.67619
       7 -> 13        -0.00676
       7 -> 18        -0.01060
       7 -> 23        -0.00257
       7 -> 28         0.00118
       7 -> 31        -0.00328
       7 -> 37         0.00132
       7 -> 44        -0.00097
       7 -> 52         0.00106
       8 -> 12        -0.00754
       8 -> 16         0.03739
       8 -> 19        -0.01867
       8 -> 22        -0.01295
       8 -> 29        -0.00810
       8 -> 33         0.00099
       8 -> 35        -0.00075
       8 -> 40         0.00029
       8 -> 42         0.00026
       8 -> 49         0.00012
       8 -> 51         0.00015
       8 -> 53        -0.00051
       3 <- 10        -0.01160
       3 <- 11        -0.00289
       3 <- 14         0.00130
       3 <- 17        -0.00176
       3 <- 20        -0.00306
       3 <- 26         0.00045
       3 <- 30        -0.00019
       3 <- 32         0.00241
       3 <- 34        -0.00057
       3 <- 36        -0.00100
       3 <- 39        -0.00039
       3 <- 43         0.00058
       3 <- 45        -0.00110
       3 <- 47         0.00232
       3 <- 50         0.00154
       4 <- 11         0.00770
       4 <- 14         0.00149
       4 <- 15        -0.00536
       4 <- 17         0.00136
       4 <- 20         0.00264
       4 <- 21         0.00011
       4 <- 24        -0.00292
       4 <- 26         0.00296
       4 <- 30        -0.00023
       4 <- 32        -0.00131
       4 <- 34         0.00068
       4 <- 36         0.00042
       4 <- 39        -0.00022
       4 <- 43        -0.00042
       4 <- 45         0.00072
       4 <- 47        -0.00048
       4 <- 50        -0.00015
       4 <- 54         0.00012
       5 <- 12         0.00589
       5 <- 16         0.00190
       5 <- 19         0.00094
       5 <- 22         0.00493
       5 <- 25        -0.00366
       5 <- 29         0.00035
       5 <- 33        -0.00203
       5 <- 35         0.00236
       5 <- 40        -0.00092
       5 <- 42        -0.00086
       5 <- 49         0.00015
       5 <- 51        -0.00080
       6 <- 10         0.08503
       6 <- 11         0.01603
       6 <- 14        -0.02113
       6 <- 15        -0.01267
       6 <- 17        -0.00957
       6 <- 20        -0.00240
       6 <- 21         0.00395
       6 <- 24        -0.00537
       6 <- 26        -0.00169
       6 <- 30        -0.00282
       6 <- 32         0.00384
       6 <- 34        -0.00155
       6 <- 39        -0.00121
       6 <- 41        -0.00011
       6 <- 43         0.00068
       6 <- 45        -0.00064
       6 <- 47         0.00046
       6 <- 50         0.00043
       6 <- 54        -0.00087
       7 <-  9        -0.13093
       7 <- 13         0.00348
       7 <- 18        -0.01141
       7 <- 23         0.00086
       7 <- 28        -0.00176
       7 <- 31        -0.00159
       7 <- 37         0.00062
       7 <- 44        -0.00078
       7 <- 48        -0.00042
       7 <- 52         0.00097
       8 <- 12        -0.00308
       8 <- 16         0.01867
       8 <- 19        -0.01075
       8 <- 22        -0.00855
       8 <- 25         0.00013
       8 <- 29        -0.00649
       8 <- 33         0.00079
       8 <- 35        -0.00059
       8 <- 40         0.00023
       8 <- 42         0.00021
       8 <- 51         0.00012
       8 <- 53        -0.00048

 Excited State   3:      Singlet-B2     3.7483 eV  330.77 nm  f=0.0026  <S**2>=0.000
       3 -> 12        -0.00123
       3 -> 16         0.00133
       3 -> 19        -0.00398
       3 -> 22         0.00105
       3 -> 25        -0.00086
       3 -> 29        -0.00265
       3 -> 33         0.00021
       3 -> 35         0.00146
       3 -> 40        -0.00133
       3 -> 42        -0.00051
       3 -> 49        -0.00383
       3 -> 51         0.00017
       3 -> 53         0.00028
       4 -> 12         0.00040
       4 -> 16        -0.00154
       4 -> 19         0.00038
       4 -> 22         0.00183
       4 -> 25         0.00068
       4 -> 29         0.00094
       4 -> 33        -0.00034
       4 -> 35         0.00044
       4 -> 40         0.00030
       4 -> 42         0.00012
       4 -> 49         0.00072
       4 -> 51        -0.00010
       5 -> 10         0.01026
       5 -> 11         0.00141
       5 -> 14        -0.00371
       5 -> 15         0.00330
       5 -> 17        -0.00050
       5 -> 20         0.00199
       5 -> 21         0.00324
       5 -> 24         0.00146
       5 -> 26        -0.00059
       5 -> 30        -0.00209
       5 -> 32        -0.00138
       5 -> 34         0.00030
       5 -> 39         0.00069
       5 -> 41         0.00043
       5 -> 47        -0.00043
       5 -> 50         0.00027
       5 -> 54        -0.00020
       6 -> 12         0.00250
       6 -> 16        -0.00271
       6 -> 19         0.00410
       6 -> 22        -0.00061
       6 -> 25         0.00112
       6 -> 33        -0.00011
       6 -> 35        -0.00130
       6 -> 40         0.00089
       6 -> 42         0.00066
       6 -> 49         0.00127
       6 -> 53        -0.00045
       7 -> 27        -0.00055
       7 -> 38         0.00036
       7 -> 46         0.00313
       8 -> 10         0.70227
       8 -> 11         0.06381
       8 -> 14        -0.05878
       8 -> 15        -0.02357
       8 -> 17        -0.01648
       8 -> 20         0.00454
       8 -> 21         0.00620
       8 -> 24        -0.00595
       8 -> 26        -0.00457
       8 -> 30        -0.01291
       8 -> 32        -0.00176
       8 -> 34         0.00125
       8 -> 36         0.00135
       8 -> 39         0.00056
       8 -> 41        -0.00015
       8 -> 45        -0.00085
       8 -> 47        -0.00386
       8 -> 50         0.00151
       8 -> 54        -0.00241
       3 <- 12        -0.00044
       3 <- 16         0.00046
       3 <- 19        -0.00196
       3 <- 22         0.00094
       3 <- 25        -0.00078
       3 <- 29        -0.00107
       3 <- 33         0.00021
       3 <- 35         0.00099
       3 <- 40        -0.00115
       3 <- 42        -0.00037
       3 <- 49        -0.00389
       3 <- 51         0.00016
       3 <- 53         0.00075
       4 <- 16        -0.00174
       4 <- 19         0.00018
       4 <- 22         0.00214
       4 <- 25         0.00039
       4 <- 29         0.00115
       4 <- 33        -0.00036
       4 <- 35         0.00064
       4 <- 40         0.00012
       4 <- 49         0.00051
       5 <- 10        -0.00091
       5 <- 11        -0.00070
       5 <- 14        -0.00049
       5 <- 15         0.00258
       5 <- 17         0.00020
       5 <- 20         0.00077
       5 <- 21         0.00168
       5 <- 24         0.00167
       5 <- 26        -0.00014
       5 <- 30        -0.00044
       5 <- 32        -0.00030
       5 <- 39         0.00031
       5 <- 41         0.00046
       5 <- 45        -0.00023
       5 <- 47        -0.00043
       5 <- 50         0.00015
       6 <- 12        -0.00072
       6 <- 16         0.00764
       6 <- 19        -0.00405
       6 <- 22        -0.00514
       6 <- 25         0.00118
       6 <- 29        -0.00603
       6 <- 33         0.00023
       6 <- 35        -0.00115
       6 <- 40         0.00089
       6 <- 42         0.00069
       6 <- 49         0.00174
       6 <- 53        -0.00140
       7 <- 27        -0.00055
       7 <- 38         0.00030
       7 <- 46         0.00269
       8 <- 10        -0.04154
       8 <- 11        -0.00758
       8 <- 14         0.00791
       8 <- 15         0.00227
       8 <- 17         0.00185
       8 <- 20        -0.00320
       8 <- 21        -0.00141
       8 <- 24         0.00155
       8 <- 26         0.00127
       8 <- 30         0.00143
       8 <- 32         0.00291
       8 <- 34        -0.00087
       8 <- 36        -0.00077
       8 <- 39        -0.00113
       8 <- 41         0.00023
       8 <- 43         0.00043
       8 <- 45        -0.00161
       8 <- 47        -0.00318
       8 <- 50         0.00121
       8 <- 54        -0.00065

 Excited State   4:      Singlet-B1     3.8741 eV  320.04 nm  f=0.0003  <S**2>=0.000
       3 ->  9        -0.02317
       3 -> 13         0.00087
       3 -> 18        -0.00375
       3 -> 23         0.00124
       3 -> 28        -0.00098
       3 -> 31        -0.00078
       3 -> 37         0.00015
       3 -> 44         0.00034
       3 -> 48         0.00027
       3 -> 52         0.00072
       4 ->  9         0.00623
       4 -> 13        -0.00150
       4 -> 18         0.00016
       4 -> 23        -0.00136
       4 -> 28         0.00055
       4 -> 31        -0.00117
       4 -> 37        -0.00024
       4 -> 48        -0.00047
       4 -> 52        -0.00030
       5 -> 27        -0.00039
       5 -> 38         0.00141
       5 -> 46         0.00045
       6 ->  9         0.65288
       6 -> 13        -0.01650
       6 -> 18         0.01393
       6 -> 23        -0.00991
       6 -> 28         0.00363
       6 -> 31         0.00199
       6 -> 37        -0.00134
       6 -> 44        -0.00172
       6 -> 48         0.00328
       6 -> 52         0.00091
       7 -> 10         0.27493
       7 -> 11         0.02827
       7 -> 14        -0.02724
       7 -> 15        -0.00975
       7 -> 17        -0.01037
       7 -> 20         0.00384
       7 -> 21         0.00189
       7 -> 24        -0.00332
       7 -> 26        -0.00321
       7 -> 30        -0.00528
       7 -> 32         0.00029
       7 -> 34        -0.00038
       7 -> 36         0.00136
       7 -> 39        -0.00016
       7 -> 41        -0.00018
       7 -> 43         0.00048
       7 -> 45        -0.00067
       7 -> 47         0.00355
       7 -> 50         0.00120
       7 -> 54        -0.00029
       8 -> 27         0.00012
       8 -> 46         0.00434
       3 <-  9        -0.00775
       3 <- 13        -0.00080
       3 <- 18        -0.00250
       3 <- 23        -0.00048
       3 <- 28        -0.00055
       3 <- 31        -0.00077
       3 <- 37         0.00016
       3 <- 48         0.00036
       3 <- 52         0.00069
       4 <-  9         0.00427
       4 <- 13        -0.00021
       4 <- 18         0.00140
       4 <- 23        -0.00050
       4 <- 28         0.00144
       4 <- 31        -0.00084
       4 <- 37        -0.00014
       4 <- 44        -0.00017
       4 <- 48        -0.00044
       4 <- 52        -0.00015
       5 <- 27        -0.00075
       5 <- 38         0.00124
       5 <- 46         0.00040
       6 <-  9        -0.04293
       6 <- 13         0.00218
       6 <- 18        -0.00510
       6 <- 23         0.00025
       6 <- 28        -0.00407
       6 <- 31        -0.00024
       6 <- 37        -0.00105
       6 <- 44        -0.00040
       6 <- 48         0.00298
       7 <- 10        -0.04989
       7 <- 11        -0.00919
       7 <- 14         0.01314
       7 <- 15         0.00810
       7 <- 17         0.00314
       7 <- 20         0.00246
       7 <- 21        -0.00332
       7 <- 24         0.00396
       7 <- 26         0.00179
       7 <- 30         0.00213
       7 <- 32         0.00029
       7 <- 34        -0.00083
       7 <- 36         0.00116
       7 <- 39        -0.00058
       7 <- 41         0.00018
       7 <- 43         0.00027
       7 <- 45        -0.00041
       7 <- 47         0.00329
       7 <- 50         0.00134
       7 <- 54         0.00075
       8 <- 27         0.00055
       8 <- 38         0.00011
       8 <- 46         0.00405

 Excited State   5:      Singlet-B1     4.5340 eV  273.45 nm  f=0.0068  <S**2>=0.000
       3 ->  9        -0.00374
       3 -> 13         0.00012
       3 -> 18        -0.00185
       3 -> 23         0.00036
       3 -> 28        -0.00249
       3 -> 31        -0.00138
       3 -> 44         0.00010
       3 -> 48        -0.00313
       3 -> 52        -0.00022
       4 ->  9        -0.03035
       4 -> 13         0.00600
       4 -> 18         0.00088
       4 -> 23         0.00467
       4 -> 28         0.00102
       4 -> 31         0.00038
       4 -> 37         0.00034
       4 -> 44        -0.00042
       4 -> 48         0.00088
       4 -> 52         0.00017
       5 -> 27        -0.00633
       5 -> 38        -0.00349
       5 -> 46         0.00017
       6 ->  9        -0.27428
       6 -> 13         0.00299
       6 -> 18        -0.00036
       6 -> 23         0.00230
       6 -> 28         0.00266
       6 -> 31        -0.00397
       6 -> 37         0.00244
       6 -> 44         0.00086
       6 -> 48        -0.00050
       6 -> 52        -0.00085
       7 -> 10         0.64722
       7 -> 11         0.05059
       7 -> 14        -0.04942
       7 -> 15        -0.02880
       7 -> 17        -0.00848
       7 -> 20        -0.00235
       7 -> 21         0.00308
       7 -> 24        -0.00896
       7 -> 26        -0.00550
       7 -> 30        -0.00722
       7 -> 32        -0.00129
       7 -> 34         0.00363
       7 -> 36        -0.00138
       7 -> 39         0.00062
       7 -> 43         0.00050
       7 -> 45        -0.00090
       7 -> 47         0.00064
       7 -> 50         0.00028
       7 -> 54        -0.00167
       8 -> 27         0.00060
       8 -> 38         0.00020
       8 -> 46         0.00079
       3 <-  9        -0.00060
       3 <- 13         0.00074
       3 <- 18        -0.00061
       3 <- 23         0.00063
       3 <- 28        -0.00172
       3 <- 31        -0.00011
       3 <- 37        -0.00024
       3 <- 48        -0.00326
       3 <- 52         0.00021
       4 <-  9        -0.01381
       4 <- 13         0.00284
       4 <- 18         0.00014
       4 <- 23         0.00281
       4 <- 28         0.00096
       4 <- 31         0.00020
       4 <- 37         0.00036
       4 <- 44        -0.00061
       4 <- 48         0.00047
       4 <- 52         0.00014
       5 <- 27        -0.00457
       5 <- 38        -0.00287
       5 <- 46         0.00019
       6 <-  9        -0.02664
       6 <- 13        -0.00031
       6 <- 18        -0.00325
       6 <- 23         0.00062
       6 <- 31        -0.00472
       6 <- 37         0.00231
       6 <- 44         0.00086
       6 <- 48         0.00012

 The electronic state is 1-A1.
 Alpha  occ. eigenvalues --  -19.17736 -10.33943  -0.89228  -0.71429  -0.49240
 Alpha  occ. eigenvalues --   -0.38897  -0.30723  -0.28704
 Alpha virt. eigenvalues --   -0.17172  -0.07294  -0.00050   0.04045   0.06092
 Alpha virt. eigenvalues --    0.06429   0.11768   0.13320   0.18728   0.21011
 Alpha virt. eigenvalues --    0.23948   0.30406   0.38524   0.39585   0.50622

 Mulliken charges:
               1
     1  C   -0.097666
     2  H    0.192274
     3  H    0.192274
     4  O   -0.286882
 Sum of Mulliken charges =  -0.00000

 Dipole moment (field-independent basis, Debye):
    X=             -0.0000    Y=              0.0000    Z=             -4.1803  Tot=              4.1803
 Quadrupole moment (field-independent basis, Debye-Ang):
   XX=            -13.0397   YY=            -12.0408   ZZ=            -10.6352
   XY=              0.0000   XZ=              0.0000   YZ=              0.0000

 Normal termination of Gaussian 16 at Fri Sep 17 10:53:09 2021.
