 Gaussian 16, Revision C.01,
 Gaussian 16:  ES64L-G16RevC.01  3-Jul-2019

 ----------------------------------------
 #P wB97XD/6-311+G* NoSymm #P Field=Z-272
 ----------------------------------------

 -------
 TitleMe
 -------
 Symbolic Z-matrix:
 Charge =  1 Multiplicity = 1

                          Input orientation:
 ---------------------------------------------------------------------
 Center     Atomic      Atomic             Coordinates (Angstroms)
 Number     Number       Type             X           Y           Z
 ---------------------------------------------------------------------
      1          6           0        0.519300    1.233000   -0.031900
      2          6           0        1.944500    1.269200   -0.036700
      3          6           0        2.620400    0.092800   -0.025000
      4          6           0       -0.196000    0.030100    0.001000
      5          1           0       -0.020700    2.174200   -0.043400
      6          1           0        2.482800    2.208900   -0.036100
      7          1           0       -1.277700    0.039900    0.011700
      8          7           0        4.092100    0.095900    0.036600
      9          8           0        4.639300   -1.021700    0.144600
     10          8           0        4.664900    1.198400   -0.023300
     11          6           0        0.494300   -1.167100    0.021000
     12          1           0       -0.032500   -2.114900    0.054500
     13          6           0        1.962900   -1.216500   -0.021100
     14          1           0        2.443600   -1.963100    0.615100
     15         35           0        2.173000   -1.949100   -1.906200
 ---------------------------------------------------------------------

 SCF Done:  E(RwB97XD) =  -3010.55002403     A.U. after   22 cycles

 Alpha  occ. eigenvalues -- -483.36094 -62.91169 -56.70783 -56.70324 -56.70320
 Alpha  occ. eigenvalues --  -19.47087 -19.47003 -14.86528 -10.60908 -10.60844
 Alpha  occ. eigenvalues --  -10.59056 -10.58984 -10.55055 -10.54336  -9.07011
 Alpha  occ. eigenvalues --   -6.89474  -6.87935  -6.87929  -2.99429  -2.99014
 Alpha  occ. eigenvalues --   -2.99009  -2.97776  -2.97775  -1.50725  -1.33666
 Alpha  occ. eigenvalues --   -1.24480  -1.15671  -1.14122  -1.08205  -1.02137
 Alpha  occ. eigenvalues --   -0.97202  -0.92222  -0.86155  -0.82278  -0.81592
 Alpha  occ. eigenvalues --   -0.81169  -0.79447  -0.77430  -0.77025  -0.74685
 Alpha  occ. eigenvalues --   -0.70303  -0.69292  -0.66002  -0.63620  -0.61860
 Alpha  occ. eigenvalues --   -0.58680  -0.58097  -0.56828  -0.56556
 Alpha virt. eigenvalues --   -0.32583  -0.23453  -0.21560  -0.19015  -0.16613
 Alpha virt. eigenvalues --   -0.15209  -0.14193  -0.11411  -0.09851  -0.09216
 Alpha virt. eigenvalues --   -0.06469  -0.06181  -0.04127  -0.03489  -0.02694

 Mulliken charges:
               1
     1  C   -0.041228
     2  C    0.063347
     3  C   -0.103433
     4  C   -0.375841
     5  H    0.355612
     6  H    0.361055
     7  H    0.344736
     8  N   -0.191560
     9  O    0.094349
    10  O    0.078945
    11  C   -0.119511
    12  H    0.369830
    13  C   -0.244083
    14  H    0.498477
    15  Br  -0.090696
 Sum of Mulliken charges =   1.00000

 Dipole moment (field-independent basis, Debye):
    X=              2.4335    Y=              0.1482    Z=              4.1595  Tot=              4.8214
 Quadrupole moment (field-independent basis, Debye-Ang):
   XX=            -67.7554   YY=            -52.9128   ZZ=            -69.1962
   XY=             -0.8923   XZ=              7.5424   YZ=             -2.3532

 Normal termination of Gaussian 16 at Thu May  2 14:21:46 2024.
