 Gaussian 16, Revision A.03,
 Gaussian 16:  ES64L-G16RevA.03 25-Dec-2016

 --------------------------------------------------------------------
 #p B3LYP/6-311+G** #p TD=(singlets,nstates=30)IOp(6/8=3) IOp(9/40=4)
 --------------------------------------------------------------------

 -------------------------------
 Scan Step 130, Bond Length 1.15
 -------------------------------
 Symbolic Z-matrix:
 Charge =  0 Multiplicity = 1

                         Standard orientation:
 ---------------------------------------------------------------------
 Center     Atomic      Atomic             Coordinates (Angstroms)
 Number     Number       Type             X           Y           Z
 ---------------------------------------------------------------------
      1          6           0        0.000000    0.000000   -0.501081
      2          1           0        0.000000    0.937260   -1.092431
      3          1           0       -0.000000   -0.937260   -1.092431
      4          8           0        0.000000   -0.000000    0.648919
 ---------------------------------------------------------------------

 SCF Done:  E(RB3LYP) =  -114.537088752     A.U. after    9 cycles

 Excitation energies and oscillator strengths:

 Excited State   1:      Singlet-A2     4.2674 eV  290.53 nm  f=0.0000  <S**2>=0.000
       3 -> 27         0.00267
       3 -> 38         0.00226
       3 -> 45         0.00228
       4 -> 27         0.00221
       4 -> 38        -0.00063
       4 -> 45        -0.00121
       5 ->  9         0.02122
       5 -> 13        -0.00470
       5 -> 17         0.00593
       5 -> 23        -0.00095
       5 -> 29         0.00423
       5 -> 31         0.00269
       5 -> 37         0.00372
       5 -> 44         0.00066
       5 -> 47         0.00014
       5 -> 52         0.00082
       6 -> 38        -0.00077
       6 -> 45         0.00175
       7 -> 12        -0.00062
       7 -> 15         0.00243
       7 -> 18        -0.00247
       7 -> 22         0.00103
       7 -> 24         0.00139
       7 -> 30        -0.00084
       7 -> 33         0.00041
       7 -> 35        -0.00036
       7 -> 40        -0.00032
       7 -> 48         0.00046
       7 -> 50         0.00028
       7 -> 53         0.00045
       8 ->  9         0.70446
       8 -> 13        -0.05479
       8 -> 17         0.02371
       8 -> 23        -0.01122
       8 -> 29         0.00827
       8 -> 31         0.00309
       8 -> 37        -0.00055
       8 -> 44        -0.00017
       8 -> 47        -0.00023
       8 -> 52         0.00157
       3 <- 27         0.00179
       3 <- 38         0.00190
       3 <- 45         0.00237
       4 <- 27         0.00304
       4 <- 45        -0.00105
       5 <-  9        -0.00024
       5 <- 13        -0.00087
       5 <- 17        -0.00090
       5 <- 23         0.00055
       5 <- 29        -0.00059
       5 <- 31        -0.00100
       5 <- 37         0.00173
       5 <- 44         0.00030
       5 <- 47         0.00017
       5 <- 52         0.00022
       6 <- 27         0.00061
       6 <- 38        -0.00071
       6 <- 45         0.00136
       7 <- 12        -0.00089
       7 <- 15        -0.00650
       7 <- 18        -0.00035
       7 <- 22         0.00708
       7 <- 24        -0.00038
       7 <- 30         0.00298
       7 <- 33        -0.00134
       7 <- 35        -0.00251
       7 <- 40        -0.00102
       7 <- 42         0.00017
       7 <- 48         0.00028
       7 <- 50         0.00016
       7 <- 53         0.00121
       8 <-  9        -0.02122
       8 <- 13         0.00382
       8 <- 17        -0.00407
       8 <- 23         0.00079
       8 <- 29        -0.00075
       8 <- 31         0.00116
       8 <- 37        -0.00169
       8 <- 52         0.00046
 This state for optimization and/or second-order correction.
 Total Energy, E(TD-HF/TD-DFT) =  -114.380262919
 Copying the excited state density for this state as the 1-particle RhoCI density.

 Excited State   2:      Singlet-B2     6.7689 eV  183.17 nm  f=0.0393  <S**2>=0.000
       3 -> 12         0.00137
       3 -> 15         0.00070
       3 -> 18         0.00113
       3 -> 22        -0.00029
       3 -> 24         0.00131
       3 -> 30        -0.00011
       3 -> 33         0.00015
       3 -> 35         0.00033
       4 -> 12        -0.00371
       4 -> 15         0.00156
       4 -> 18         0.00223
       4 -> 22        -0.00336
       4 -> 24         0.00357
       4 -> 30         0.00019
       4 -> 33        -0.00064
       4 -> 35        -0.00071
       4 -> 40        -0.00049
       5 -> 10        -0.00510
       5 -> 11        -0.00923
       5 -> 14         0.00696
       5 -> 16        -0.00103
       5 -> 19         0.00172
       5 -> 20         0.00124
       5 -> 21         0.00539
       5 -> 26         0.00264
       5 -> 28         0.00158
       5 -> 32         0.00056
       5 -> 34        -0.00103
       5 -> 36        -0.00026
       5 -> 39        -0.00031
       5 -> 41        -0.00023
       5 -> 43        -0.00056
       5 -> 46        -0.00044
       5 -> 54         0.00010
       6 -> 12         0.00061
       6 -> 15         0.00143
       6 -> 18         0.00278
       6 -> 22        -0.00267
       6 -> 24         0.00140
       6 -> 30        -0.00044
       6 -> 33        -0.00018
       6 -> 35        -0.00022
       6 -> 40         0.00020
       6 -> 42        -0.00022
       6 -> 48         0.00044
       6 -> 50        -0.00042
       7 -> 27         0.00030
       7 -> 38        -0.00045
       7 -> 45         0.00056
       8 -> 10         0.70381
       8 -> 11        -0.06307
       8 -> 14         0.00857
       8 -> 16        -0.00772
       8 -> 19         0.01475
       8 -> 20         0.01241
       8 -> 21        -0.00380
       8 -> 25         0.00047
       8 -> 26         0.00197
       8 -> 28         0.00063
       8 -> 32        -0.00074
       8 -> 34         0.00180
       8 -> 36         0.00045
       8 -> 39         0.00044
       8 -> 41        -0.00016
       8 -> 43         0.00065
       8 -> 46        -0.00075
       8 -> 49        -0.00011
       8 -> 54         0.00018
       3 <- 12         0.00035
       3 <- 15         0.00054
       3 <- 18         0.00045
       3 <- 22        -0.00040
       3 <- 24         0.00080
       3 <- 30        -0.00011
       3 <- 33         0.00013
       3 <- 35         0.00031
       4 <- 12         0.00068
       4 <- 15         0.00180
       4 <- 18         0.00220
       4 <- 22        -0.00205
       4 <- 24         0.00249
       4 <- 30         0.00014
       4 <- 33        -0.00041
       4 <- 35        -0.00044
       4 <- 40        -0.00017
       4 <- 42        -0.00022
       4 <- 48        -0.00011
       5 <- 10         0.00244
       5 <- 11        -0.00024
       5 <- 14         0.00495
       5 <- 16        -0.00092
       5 <- 19         0.00039
       5 <- 20         0.00063
       5 <- 21         0.00228
       5 <- 25         0.00175
       5 <- 26         0.00158
       5 <- 28         0.00032
       5 <- 32         0.00031
       5 <- 34        -0.00101
       5 <- 36        -0.00032
       5 <- 39        -0.00017
       5 <- 43        -0.00041
       5 <- 46        -0.00038
       5 <- 51        -0.00010
       6 <- 12         0.00022
       6 <- 18         0.00140
       6 <- 22        -0.00085
       6 <- 24         0.00050
       6 <- 30         0.00032
       6 <- 33        -0.00024
       6 <- 35        -0.00037
       6 <- 40         0.00019
       6 <- 42        -0.00021
       6 <- 48         0.00036
       6 <- 50        -0.00042
       6 <- 53         0.00013
       7 <- 27         0.00024
       7 <- 38        -0.00033
       7 <- 45         0.00049
       8 <- 10        -0.00214
       8 <- 11        -0.00058
       8 <- 14        -0.00663
       8 <- 16        -0.00020
       8 <- 19        -0.00032
       8 <- 20        -0.00046
       8 <- 21        -0.00239
       8 <- 25        -0.00257
       8 <- 26        -0.00041
       8 <- 28        -0.00066
       8 <- 32        -0.00106
       8 <- 34         0.00077
       8 <- 36         0.00043
       8 <- 39         0.00036
       8 <- 43         0.00047
       8 <- 46        -0.00050

 Excited State   3:      Singlet-B2     7.5628 eV  163.94 nm  f=0.0234  <S**2>=0.000
       3 -> 12        -0.00027
       3 -> 15        -0.00071
       3 -> 18         0.00072
       3 -> 22         0.00034
       3 -> 24         0.00023
       3 -> 30         0.00186
       3 -> 33         0.00013
       3 -> 35         0.00040
       3 -> 40         0.00038
       3 -> 48         0.00036
       3 -> 50        -0.00025
       4 -> 12         0.00293
       4 -> 15        -0.00030
       4 -> 18         0.00281
       4 -> 22        -0.00152
       4 -> 24         0.00314
       4 -> 30        -0.00115
       4 -> 33         0.00052
       4 -> 35         0.00049
       4 -> 42        -0.00016
       4 -> 48         0.00023
       4 -> 50        -0.00011
       5 -> 10        -0.00760
       5 -> 14         0.00742
       5 -> 16        -0.00704
       5 -> 19        -0.00317
       5 -> 20        -0.00390
       5 -> 21         0.00114
       5 -> 25         0.00133
       5 -> 26         0.00034
       5 -> 28         0.00162
       5 -> 34        -0.00139
       5 -> 36        -0.00017
       5 -> 39         0.00041
       5 -> 41        -0.00080
       5 -> 46         0.00085
       5 -> 51         0.00043
       6 -> 12        -0.00320
       6 -> 15        -0.00188
       6 -> 18        -0.00111
       6 -> 22         0.00139
       6 -> 24         0.00012
       6 -> 30         0.00082
       6 -> 33        -0.00050
       6 -> 35        -0.00148
       6 -> 40        -0.00098
       6 -> 48        -0.00097
       6 -> 50         0.00058
       6 -> 53         0.00011
       7 -> 27        -0.00021
       7 -> 38        -0.00102
       7 -> 45        -0.00162
       8 -> 10         0.06362
       8 -> 11         0.70333
       8 -> 14        -0.00877
       8 -> 16         0.01313
       8 -> 19        -0.02725
       8 -> 20         0.00959
       8 -> 21        -0.00250
       8 -> 25         0.00059
       8 -> 26        -0.00161
       8 -> 28         0.00033
       8 -> 32        -0.00033
       8 -> 34        -0.00012
       8 -> 39        -0.00015
       8 -> 41        -0.00131
       8 -> 43         0.00024
       8 -> 46         0.00163
       8 -> 51         0.00091
       8 -> 54        -0.00014
       3 <- 12         0.00034
       3 <- 15        -0.00024
       3 <- 18         0.00084
       3 <- 24         0.00035
       3 <- 30         0.00108
       3 <- 33         0.00023
       3 <- 35         0.00046
       3 <- 40         0.00034
       3 <- 48         0.00030
       3 <- 50        -0.00017
       3 <- 53        -0.00025
       4 <- 12         0.00035
       4 <- 15         0.00066
       4 <- 18         0.00073
       4 <- 22        -0.00116
       4 <- 24         0.00129
       4 <- 30        -0.00053
       4 <- 33         0.00047
       4 <- 35         0.00013
       4 <- 42        -0.00017
       4 <- 48         0.00016
       4 <- 50        -0.00016
       5 <- 10         0.00128
       5 <- 11        -0.00103
       5 <- 14         0.00245
       5 <- 16        -0.00044
       5 <- 19         0.00092
       5 <- 20        -0.00036
       5 <- 21         0.00080
       5 <- 25         0.00127
       5 <- 26        -0.00026
       5 <- 28         0.00075
       5 <- 32         0.00104
       5 <- 34        -0.00047
       5 <- 36         0.00017
       5 <- 39         0.00014
       5 <- 41        -0.00083
       5 <- 46         0.00078
       5 <- 49         0.00011
       5 <- 51         0.00033
       6 <- 12        -0.00033
       6 <- 15        -0.00051
       6 <- 22         0.00060
       6 <- 30         0.00050
       6 <- 33        -0.00033
       6 <- 35        -0.00116
       6 <- 40        -0.00073
       6 <- 48        -0.00080
       6 <- 50         0.00047
       7 <- 38        -0.00082
       7 <- 45        -0.00136
       8 <- 10        -0.00071
       8 <- 11        -0.00034
       8 <- 14        -0.00392
       8 <- 16         0.00050
       8 <- 19         0.00361
       8 <- 20        -0.00122
       8 <- 21        -0.00206
       8 <- 25         0.00026
       8 <- 26        -0.00168
       8 <- 32         0.00115
       8 <- 34         0.00106
       8 <- 39        -0.00044
       8 <- 41        -0.00113
       8 <- 43         0.00012
       8 <- 46         0.00130
       8 <- 49         0.00012
       8 <- 51         0.00063

 Excited State   4:      Singlet-A1     7.7347 eV  160.30 nm  f=0.0522  <S**2>=0.000
       3 -> 10         0.00182
       3 -> 11        -0.00094
       3 -> 14         0.00076
       3 -> 16        -0.00022
       3 -> 19         0.00030
       3 -> 20         0.00159
       3 -> 21         0.00067
       3 -> 25        -0.00053
       3 -> 26         0.00111
       3 -> 28         0.00104
       3 -> 32        -0.00013
       3 -> 34        -0.00056
       3 -> 36        -0.00023
       3 -> 41        -0.00021
       3 -> 46         0.00012
       3 -> 49         0.00027
       3 -> 51         0.00026
       3 -> 54        -0.00020
       4 -> 10         0.00501
       4 -> 11         0.00649
       4 -> 14         0.00517
       4 -> 16         0.00025
       4 -> 19         0.00033
       4 -> 20         0.00452
       4 -> 21         0.00133
       4 -> 25         0.00720
       4 -> 26         0.00142
       4 -> 28        -0.00042
       4 -> 32         0.00063
       4 -> 34        -0.00025
       4 -> 39        -0.00014
       4 -> 41         0.00012
       4 -> 43         0.00016
       4 -> 46        -0.00022
       4 -> 51         0.00015
       5 -> 12         0.00679
       5 -> 15         0.00163
       5 -> 18         0.01100
       5 -> 22        -0.00191
       5 -> 24         0.00530
       5 -> 33        -0.00016
       5 -> 35        -0.00078
       5 -> 50         0.00027
       5 -> 53        -0.00014
       6 -> 10         0.01270
       6 -> 11        -0.00307
       6 -> 14         0.00441
       6 -> 16         0.00121
       6 -> 19         0.00308
       6 -> 20         0.00433
       6 -> 21         0.00119
       6 -> 25         0.00319
       6 -> 26         0.00017
       6 -> 28        -0.00162
       6 -> 32         0.00054
       6 -> 43         0.00013
       6 -> 49        -0.00062
       6 -> 51        -0.00025
       7 ->  9         0.01597
       7 -> 13         0.00963
       7 -> 17         0.00324
       7 -> 23         0.00523
       7 -> 29        -0.00039
       7 -> 31         0.00087
       7 -> 37         0.00057
       7 -> 44         0.00066
       7 -> 47        -0.00035
       7 -> 52        -0.00011
       8 -> 12         0.70576
       8 -> 15        -0.01206
       8 -> 18         0.03000
       8 -> 22         0.00477
       8 -> 24         0.00323
       8 -> 30         0.00060
       8 -> 33         0.00155
       8 -> 35         0.00202
       8 -> 40        -0.00067
       8 -> 42         0.00028
       8 -> 48        -0.00040
       8 -> 50         0.00030
       8 -> 53        -0.00022
       3 <- 10         0.00061
       3 <- 14         0.00043
       3 <- 20         0.00073
       3 <- 21         0.00049
       3 <- 26         0.00069
       3 <- 28         0.00068
       3 <- 32        -0.00021
       3 <- 34        -0.00036
       3 <- 36        -0.00018
       3 <- 41        -0.00015
       3 <- 46         0.00021
       3 <- 49         0.00022
       3 <- 51         0.00023
       3 <- 54        -0.00018
       4 <- 10         0.00447
       4 <- 11         0.00161
       4 <- 14         0.00380
       4 <- 16        -0.00029
       4 <- 19         0.00020
       4 <- 20         0.00258
       4 <- 21         0.00048
       4 <- 25         0.00395
       4 <- 26         0.00090
       4 <- 32         0.00068
       4 <- 34        -0.00064
       4 <- 39        -0.00021
       4 <- 43         0.00010
       4 <- 46        -0.00019
       4 <- 51         0.00014
       5 <- 12         0.00275
       5 <- 15         0.00231
       5 <- 18         0.00388
       5 <- 22        -0.00063
       5 <- 24         0.00287
       5 <- 30        -0.00012
       5 <- 33        -0.00034
       5 <- 35        -0.00072
       5 <- 50         0.00017
       5 <- 53        -0.00012
       6 <- 10         0.00326
       6 <- 11        -0.00021
       6 <- 14         0.00175
       6 <- 16         0.00037
       6 <- 19         0.00095
       6 <- 20         0.00208
       6 <- 21         0.00038
       6 <- 25         0.00160
       6 <- 26         0.00034
       6 <- 28        -0.00102
       6 <- 32         0.00046
       6 <- 34        -0.00017
       6 <- 41         0.00014
       6 <- 46        -0.00011
       6 <- 49        -0.00051
       6 <- 51        -0.00029
       7 <-  9         0.00103
       7 <- 13         0.00232
       7 <- 17         0.00088
       7 <- 23         0.00267
       7 <- 29        -0.00035
       7 <- 31         0.00061
       7 <- 37         0.00045
       7 <- 44         0.00054
       7 <- 47        -0.00030
       7 <- 52        -0.00010
       8 <- 12        -0.00116
       8 <- 15        -0.00644
       8 <- 18        -0.00214
       8 <- 22         0.00079
       8 <- 24        -0.00192
       8 <- 30        -0.00036
       8 <- 33         0.00072
       8 <- 35         0.00096
       8 <- 40        -0.00064
       8 <- 42         0.00025
       8 <- 48        -0.00044
       8 <- 50         0.00022
       8 <- 53        -0.00023

 Excited State   5:      Singlet-A2     8.2367 eV  150.53 nm  f=0.0000  <S**2>=0.000
       3 -> 27        -0.00053
       3 -> 38        -0.00048
       3 -> 45        -0.00027
       4 -> 27         0.00019
       4 -> 38         0.00051
       5 ->  9        -0.00769
       5 -> 13        -0.00333
       5 -> 17         0.00640
       5 -> 23        -0.00177
       5 -> 31        -0.00158
       5 -> 37        -0.00105
       5 -> 44        -0.00021
       6 -> 27         0.00023
       6 -> 38         0.00029
       6 -> 45        -0.00028
       7 -> 12        -0.00043
       7 -> 15        -0.00183
       7 -> 18         0.00196
       7 -> 22        -0.00069
       7 -> 35         0.00014
       7 -> 40         0.00012
       7 -> 48        -0.00010
       8 ->  9         0.05460
       8 -> 13         0.70447
       8 -> 17         0.01753
       8 -> 23         0.01759
       8 -> 29         0.00014
       8 -> 31        -0.00147
       8 -> 37        -0.00026
       8 -> 47         0.00018
       8 -> 52        -0.00013
       3 <- 27        -0.00017
       3 <- 38        -0.00032
       3 <- 45        -0.00036
       4 <- 27        -0.00015
       5 <-  9        -0.00028
       5 <- 13        -0.00032
       5 <- 17         0.00056
       5 <- 37        -0.00023
       6 <- 38         0.00020
       7 <- 12        -0.00064
       7 <- 15        -0.00092
       7 <- 18         0.00071
       7 <- 22        -0.00106
       7 <- 24        -0.00040
       7 <- 30         0.00021
       7 <- 33         0.00040
       7 <- 35         0.00065
       7 <- 40         0.00038
       7 <- 42        -0.00011
       8 <-  9         0.00221
       8 <- 13         0.00139
       8 <- 17         0.00023
       8 <- 23        -0.00019
       8 <- 37         0.00017

 Excited State   6:      Singlet-B1     9.7290 eV  127.44 nm  f=0.0006  <S**2>=0.000
       3 ->  9        -0.03148
       3 -> 13         0.00728
       3 -> 17        -0.00765
       3 -> 23         0.00510
       3 -> 29        -0.00326
       3 -> 31        -0.00028
       3 -> 37        -0.00011
       3 -> 44         0.00077
       3 -> 47        -0.00017
       3 -> 52         0.00110
       4 ->  9         0.01679
       4 -> 13        -0.00286
       4 -> 17         0.00109
       4 -> 23        -0.00244
       4 -> 29        -0.00026
       4 -> 31         0.00306
       4 -> 37        -0.00023
       4 -> 44        -0.00020

 The electronic state is 1-A1.
 Alpha  occ. eigenvalues --  -19.14768 -10.27032  -1.10601  -0.63728  -0.51606
 Alpha  occ. eigenvalues --   -0.47245  -0.43191  -0.27776
 Alpha virt. eigenvalues --   -0.05028   0.00933   0.04037   0.04295   0.06608
 Alpha virt. eigenvalues --    0.13170   0.18413   0.18443   0.22007   0.23009
 Alpha virt. eigenvalues --    0.27172   0.33935   0.46927   0.47561   0.50995

 Mulliken charges:
               1
     1  C    0.034191
     2  H    0.096933
     3  H    0.096933
     4  O   -0.228057
 Sum of Mulliken charges =   0.00000

 Dipole moment (field-independent basis, Debye):
    X=             -0.0000    Y=              0.0000    Z=             -2.2211  Tot=              2.2211
 Quadrupole moment (field-independent basis, Debye-Ang):
   XX=            -11.5900   YY=            -11.7712   ZZ=            -12.5772
   XY=              0.0000   XZ=              0.0000   YZ=              0.0000

 Normal termination of Gaussian 16 at Fri Sep 17 10:52:40 2021.
