 Gaussian 16, Revision A.03,
 Gaussian 16:  ES64L-G16RevA.03 25-Dec-2016

 --------------------------------------------------------------------
 #p B3LYP/6-311+G** #p TD=(singlets,nstates=30)IOp(6/8=3) IOp(9/40=4)
 --------------------------------------------------------------------

 ---------------------------------------------
 Scan Step 161, Bond Length 1.3050000000000002
 ---------------------------------------------
 Symbolic Z-matrix:
 Charge =  0 Multiplicity = 1

                         Standard orientation:
 ---------------------------------------------------------------------
 Center     Atomic      Atomic             Coordinates (Angstroms)
 Number     Number       Type             X           Y           Z
 ---------------------------------------------------------------------
      1          6           0        0.000000    0.000000   -0.578581
      2          1           0        0.000000    0.937260   -1.169931
      3          1           0       -0.000000   -0.937260   -1.169931
      4          8           0        0.000000   -0.000000    0.726419
 ---------------------------------------------------------------------

 SCF Done:  E(RB3LYP) =  -114.528279708     A.U. after    9 cycles

 Excitation energies and oscillator strengths:

 Excited State   1:      Singlet-A2     3.3683 eV  368.09 nm  f=0.0000  <S**2>=0.000
       3 -> 27         0.00214
       3 -> 38         0.00178
       3 -> 45         0.00277
       4 -> 27         0.00152
       4 -> 38        -0.00043
       4 -> 45        -0.00139
       5 ->  9         0.01873
       5 -> 13        -0.00141
       5 -> 17         0.00503
       5 -> 23         0.00065
       5 -> 29         0.00426
       5 -> 31        -0.00152
       5 -> 37         0.00289
       5 -> 44         0.00055
       5 -> 48         0.00014
       5 -> 52         0.00067
       6 -> 27        -0.00034
       6 -> 38        -0.00088
       6 -> 45         0.00175
       7 -> 12        -0.00063
       7 -> 15         0.00339
       7 -> 18        -0.00315
       7 -> 22         0.00026
       7 -> 25         0.00139
       7 -> 30        -0.00105
       7 -> 33         0.00045
       7 -> 35         0.00016
       7 -> 40         0.00015
       7 -> 42        -0.00012
       7 -> 49         0.00023
       7 -> 50         0.00031
       7 -> 53         0.00048
       8 ->  9         0.70633
       8 -> 13        -0.03184
       8 -> 17         0.02255
       8 -> 23        -0.00861
       8 -> 29         0.01008
       8 -> 31        -0.00154
       8 -> 37         0.00030
       8 -> 48        -0.00027
       8 -> 52         0.00180
       3 <- 27         0.00132
       3 <- 38         0.00144
       3 <- 45         0.00285
       4 <- 27         0.00229
       4 <- 38         0.00012
       4 <- 45        -0.00115
       5 <-  9        -0.00055
       5 <- 13        -0.00077
       5 <- 17        -0.00100
       5 <- 23         0.00049
       5 <- 29        -0.00071
       5 <- 31         0.00072
       5 <- 37         0.00144
       5 <- 44         0.00020
       5 <- 48         0.00013
       5 <- 52         0.00018
       6 <- 27         0.00027
       6 <- 38        -0.00077
       6 <- 45         0.00137
       7 <- 12        -0.00057
       7 <- 15        -0.00811
       7 <- 18         0.00111
       7 <- 22         0.00747
       7 <- 25         0.00011
       7 <- 30         0.00400
       7 <- 33        -0.00118
       7 <- 35         0.00210
       7 <- 40         0.00089
       7 <- 50         0.00021
       7 <- 53         0.00136
       8 <-  9        -0.02923
       8 <- 13         0.00223
       8 <- 17        -0.00484
       8 <- 23         0.00074
       8 <- 29        -0.00133
       8 <- 31        -0.00060
       8 <- 37        -0.00114
       8 <- 52         0.00051
 This state for optimization and/or second-order correction.
 Total Energy, E(TD-HF/TD-DFT) =  -114.404496208
 Copying the excited state density for this state as the 1-particle RhoCI density.

 Excited State   2:      Singlet-B2     6.9429 eV  178.58 nm  f=0.0190  <S**2>=0.000
       3 -> 12         0.00167
       3 -> 15         0.00064
       3 -> 18         0.00130
       3 -> 22        -0.00034
       3 -> 25         0.00120
       3 -> 33         0.00025
       3 -> 35        -0.00052
       3 -> 40        -0.00022
       3 -> 49         0.00015
       4 -> 12        -0.00248
       4 -> 15         0.00205
       4 -> 18         0.00183
       4 -> 22        -0.00321
       4 -> 25         0.00307
       4 -> 30         0.00034
       4 -> 33        -0.00030
       4 -> 35         0.00043
       4 -> 40         0.00043
       4 -> 42        -0.00013
       5 -> 10        -0.00826
       5 -> 11        -0.00683
       5 -> 14         0.00712
       5 -> 16        -0.00063
       5 -> 19        -0.00281
       5 -> 20         0.00267
       5 -> 21         0.00575
       5 -> 24        -0.00064
       5 -> 26         0.00208
       5 -> 28         0.00098
       5 -> 32        -0.00106
       5 -> 34        -0.00098
       5 -> 36        -0.00018
       5 -> 39        -0.00023
       5 -> 41        -0.00049
       5 -> 43        -0.00047
       5 -> 46        -0.00019
       5 -> 54         0.00012
       6 -> 12        -0.00085
       6 -> 15         0.00140
       6 -> 18         0.00116
       6 -> 22        -0.00222
       6 -> 25         0.00094
       6 -> 30        -0.00052
       6 -> 33        -0.00029
       6 -> 35         0.00062
       6 -> 42        -0.00016
       6 -> 49         0.00042
       6 -> 50        -0.00021
       7 -> 38        -0.00068
       7 -> 45         0.00016
       8 -> 10         0.70265
       8 -> 11        -0.07312
       8 -> 14         0.02029
       8 -> 16        -0.00378
       8 -> 20         0.01760
       8 -> 21        -0.00229
       8 -> 26         0.00299
       8 -> 28         0.00111
       8 -> 32         0.00094
       8 -> 34         0.00070
       8 -> 36         0.00029
       8 -> 39         0.00031
       8 -> 41        -0.00025
       8 -> 43         0.00059
       8 -> 46        -0.00033
       8 -> 47         0.00017
       8 -> 51        -0.00017
       8 -> 54         0.00022
       3 <- 12         0.00037
       3 <- 15         0.00051
       3 <- 18         0.00049
       3 <- 22        -0.00052
       3 <- 25         0.00065
       3 <- 30        -0.00010
       3 <- 33         0.00022
       3 <- 35        -0.00046
       3 <- 40        -0.00023
       3 <- 49         0.00020
       4 <- 12         0.00078
       4 <- 15         0.00197
       4 <- 18         0.00174
       4 <- 22        -0.00202
       4 <- 25         0.00207
       4 <- 30         0.00024
       4 <- 33        -0.00013
       4 <- 35         0.00018
       4 <- 40         0.00011
       4 <- 42        -0.00022
       4 <- 50        -0.00014
       5 <- 10         0.00225
       5 <- 11        -0.00023
       5 <- 14         0.00459
       5 <- 16        -0.00052
       5 <- 19        -0.00040
       5 <- 20         0.00073
       5 <- 21         0.00166
       5 <- 24        -0.00215
       5 <- 26         0.00141
       5 <- 28         0.00011
       5 <- 32        -0.00079
       5 <- 34        -0.00087
       5 <- 36        -0.00023
       5 <- 39        -0.00013
       5 <- 41        -0.00031
       5 <- 43        -0.00037
       5 <- 46        -0.00017
       6 <- 15        -0.00029
       6 <- 18         0.00094
       6 <- 22        -0.00042
       6 <- 25         0.00031
       6 <- 30         0.00038
       6 <- 33        -0.00034
       6 <- 35         0.00065
       6 <- 42        -0.00014
       6 <- 49         0.00034
       6 <- 50        -0.00023
       6 <- 53         0.00017
       7 <- 38        -0.00051
       7 <- 45         0.00017
       8 <- 10        -0.00142
       8 <- 11        -0.00064
       8 <- 14        -0.00422
       8 <- 16        -0.00058
       8 <- 19         0.00045
       8 <- 20        -0.00072
       8 <- 21        -0.00143
       8 <- 24         0.00174
       8 <- 26        -0.00088
       8 <- 28        -0.00040
       8 <- 32         0.00088
       8 <- 36         0.00031
       8 <- 39         0.00019
       8 <- 43         0.00036
       8 <- 46        -0.00016

 Excited State   3:      Singlet-B2     7.6749 eV  161.55 nm  f=0.0282  <S**2>=0.000
       3 -> 12        -0.00035
       3 -> 15        -0.00108
       3 -> 18         0.00122
       3 -> 22         0.00052
       3 -> 30         0.00266
       3 -> 33         0.00016
       3 -> 35        -0.00070
       3 -> 40        -0.00058
       3 -> 49         0.00067
       3 -> 50        -0.00017
       4 -> 12         0.00234
       4 -> 15         0.00053
       4 -> 18         0.00165
       4 -> 22        -0.00149
       4 -> 25         0.00270
       4 -> 30        -0.00146
       4 -> 33         0.00048
       4 -> 35        -0.00060
       4 -> 49         0.00022
       5 -> 10        -0.00488
       5 -> 11        -0.00015
       5 -> 14         0.01028
       5 -> 16        -0.00663
       5 -> 20        -0.00466
       5 -> 21         0.00283
       5 -> 24        -0.00073
       5 -> 26         0.00173
       5 -> 28         0.00153
       5 -> 34        -0.00076
       5 -> 36        -0.00045
       5 -> 39         0.00049
       5 -> 41        -0.00065
       5 -> 43         0.00021
       5 -> 46         0.00092
       5 -> 51        -0.00044
       6 -> 12        -0.00272
       6 -> 15        -0.00129
       6 -> 18        -0.00072
       6 -> 22         0.00104
       6 -> 25         0.00017
       6 -> 30         0.00121
       6 -> 33        -0.00055
       6 -> 35         0.00149
       6 -> 40         0.00117
       6 -> 49        -0.00135
       6 -> 50         0.00026
       6 -> 53         0.00012
       7 -> 27         0.00031
       7 -> 38        -0.00079
       7 -> 45        -0.00213
       8 -> 10         0.07305
       8 -> 11         0.70213
       8 -> 14         0.00066
       8 -> 16         0.00843
       8 -> 19        -0.03758
       8 -> 20        -0.00345
       8 -> 21        -0.00258
       8 -> 24         0.00077
       8 -> 26        -0.00038
       8 -> 28         0.00251
       8 -> 32         0.00010
       8 -> 34        -0.00021
       8 -> 36        -0.00030
       8 -> 39        -0.00027
       8 -> 41        -0.00105
       8 -> 43         0.00040
       8 -> 46         0.00255
       8 -> 51        -0.00116
       3 <- 12         0.00034
       3 <- 15        -0.00035
       3 <- 18         0.00106
       3 <- 25         0.00018
       3 <- 30         0.00141
       3 <- 33         0.00027
       3 <- 35        -0.00070
       3 <- 40        -0.00054
       3 <- 49         0.00061
       3 <- 50        -0.00012
       3 <- 53        -0.00035
       4 <- 12         0.00028
       4 <- 15         0.00089
       4 <- 18         0.00033
       4 <- 22        -0.00118
       4 <- 25         0.00117
       4 <- 30        -0.00079
       4 <- 33         0.00046
       4 <- 35        -0.00033
       4 <- 49         0.00017
       5 <- 10         0.00115
       5 <- 11        -0.00143
       5 <- 14         0.00276
       5 <- 16        -0.00043
       5 <- 19         0.00161
       5 <- 20        -0.00033
       5 <- 21         0.00087
       5 <- 24        -0.00142
       5 <- 26         0.00016
       5 <- 28         0.00063
       5 <- 32        -0.00081
       5 <- 34         0.00013
       5 <- 36         0.00011
       5 <- 39         0.00012
       5 <- 41        -0.00068
       5 <- 43         0.00012
       5 <- 46         0.00089
       5 <- 51        -0.00030
       6 <- 12        -0.00026
       6 <- 15        -0.00121
       6 <- 18         0.00045
       6 <- 22         0.00101
       6 <- 25        -0.00015
       6 <- 30         0.00129
       6 <- 33        -0.00049
       6 <- 35         0.00133
       6 <- 40         0.00095
       6 <- 49        -0.00111
       6 <- 50         0.00019
       7 <- 27         0.00041
       7 <- 38        -0.00063
       7 <- 45        -0.00177
       8 <- 10        -0.00091
       8 <- 11        -0.00224
       8 <- 14        -0.00365
       8 <- 16         0.00038
       8 <- 19         0.00569
       8 <- 20         0.00066
       8 <- 21        -0.00192
       8 <- 24        -0.00051
       8 <- 26        -0.00165
       8 <- 28         0.00069
       8 <- 32        -0.00135
       8 <- 34         0.00171
       8 <- 39        -0.00078
       8 <- 41        -0.00100
       8 <- 43         0.00018
       8 <- 46         0.00205
       8 <- 47        -0.00029
       8 <- 51        -0.00076

 Excited State   4:      Singlet-A1     7.9643 eV  155.67 nm  f=0.0263  <S**2>=0.000
       3 -> 10         0.00264
       3 -> 11         0.00087
       3 -> 14         0.00195
       3 -> 16        -0.00014
       3 -> 19        -0.00438
       3 -> 20         0.00233
       3 -> 21         0.00158
       3 -> 24         0.00138
       3 -> 26         0.00202
       3 -> 28         0.00092
       3 -> 32         0.00043
       3 -> 34        -0.00120
       3 -> 36        -0.00029
       3 -> 39         0.00020
       3 -> 41        -0.00017
       3 -> 43         0.00014
       3 -> 46         0.00035
       3 -> 47        -0.00024
       3 -> 51        -0.00012
       3 -> 54        -0.00013
       4 -> 10         0.00693
       4 -> 11         0.00272
       4 -> 14         0.00548
       4 -> 16         0.00084
       4 -> 19         0.00105
       4 -> 20         0.00337
       4 -> 21        -0.00086
       4 -> 24        -0.00713
       4 -> 26         0.00278
       4 -> 28        -0.00016
       4 -> 32        -0.00069
       4 -> 34         0.00058
       4 -> 36         0.00016
       4 -> 43         0.00016
       4 -> 46        -0.00025
       4 -> 47        -0.00017
       4 -> 51        -0.00012
       5 -> 12         0.00764
       5 -> 15         0.00647
       5 -> 18         0.00853
       5 -> 22        -0.00274
       5 -> 25         0.00651
       5 -> 30        -0.00068
       5 -> 33        -0.00045
       5 -> 35         0.00080
       5 -> 40         0.00021
       5 -> 53        -0.00014
       6 -> 10         0.00736
       6 -> 11        -0.00571
       6 -> 14         0.00255
       6 -> 16        -0.00328
       6 -> 19         0.00822
       6 -> 20        -0.00282
       6 -> 21        -0.00454
       6 -> 24        -0.00714
       6 -> 26        -0.00178
       6 -> 28        -0.00335
       6 -> 32        -0.00019
       6 -> 34        -0.00045
       6 -> 36         0.00020
       6 -> 39         0.00025
       6 -> 43         0.00019
       6 -> 47         0.00084
       6 -> 51         0.00024
       6 -> 54        -0.00014
       7 ->  9         0.08856
       7 -> 13         0.01520
       7 -> 17        -0.00262
       7 -> 23         0.00564
       7 -> 29        -0.00147
       7 -> 31        -0.00110
       7 -> 37         0.00057
       7 -> 44         0.00052
       7 -> 48        -0.00026
       8 -> 12         0.70030
       8 -> 15         0.01773
       8 -> 18         0.02653
       8 -> 22        -0.00250
       8 -> 25         0.00554
       8 -> 30        -0.00243
       8 -> 33         0.00222
       8 -> 35        -0.00259
       8 -> 49        -0.00043
       8 -> 50         0.00025
       8 -> 53        -0.00034
       3 <- 10         0.00086
       3 <- 11         0.00112
       3 <- 14         0.00107
       3 <- 16         0.00016
       3 <- 19        -0.00259
       3 <- 20         0.00105
       3 <- 21         0.00113
       3 <- 24         0.00061
       3 <- 26         0.00139
       3 <- 28         0.00062
       3 <- 32         0.00051
       3 <- 34        -0.00080
       3 <- 36        -0.00019
       3 <- 39         0.00015
       3 <- 43         0.00013
       3 <- 46         0.00043
       3 <- 47        -0.00015
       3 <- 54        -0.00012
       4 <- 10         0.00453
       4 <- 11         0.00022
       4 <- 14         0.00358
       4 <- 16         0.00011
       4 <- 19         0.00043
       4 <- 20         0.00192
       4 <- 21        -0.00063
       4 <- 24        -0.00385
       4 <- 26         0.00170
       4 <- 32        -0.00093
       4 <- 34         0.00011
       4 <- 41        -0.00016
       4 <- 43         0.00012
       4 <- 46        -0.00014
       4 <- 47        -0.00016
       5 <- 12         0.00334
       5 <- 15         0.00401
       5 <- 18         0.00313
       5 <- 22        -0.00109
       5 <- 25         0.00354
       5 <- 30        -0.00034
       5 <- 33        -0.00051
       5 <- 35         0.00070
       5 <- 40         0.00010
       5 <- 49         0.00010
       5 <- 53        -0.00012
       6 <- 10         0.00182
       6 <- 11        -0.00068
       6 <- 14         0.00109
       6 <- 16        -0.00110
       6 <- 19         0.00270
       6 <- 20        -0.00111
       6 <- 21        -0.00228
       6 <- 24        -0.00349
       6 <- 26        -0.00086
       6 <- 28        -0.00214
       6 <- 32        -0.00027
       6 <- 34        -0.00041
       6 <- 36         0.00013
       6 <- 39         0.00014
       6 <- 43         0.00011
       6 <- 46        -0.00016
       6 <- 47         0.00068
       6 <- 51         0.00025
       6 <- 54        -0.00012
       7 <-  9        -0.01003
       7 <- 13         0.00348
       7 <- 17        -0.00171
       7 <- 23         0.00312
       7 <- 29        -0.00127
       7 <- 31        -0.00064
       7 <- 37         0.00041
       7 <- 44         0.00048
       7 <- 48        -0.00027
       8 <- 12        -0.00013
       8 <- 15        -0.00094
       8 <- 18        -0.00199
       8 <- 22        -0.00162
       8 <- 25        -0.00098
       8 <- 30        -0.00205
       8 <- 33         0.00093
       8 <- 35        -0.00108
       8 <- 40         0.00020
       8 <- 49        -0.00042
       8 <- 50         0.00016
       8 <- 53        -0.00033

 Excited State   5:      Singlet-B1     7.9681 eV  155.60 nm  f=0.0013  <S**2>=0.000
       3 ->  9        -0.03352
       3 -> 13         0.00448
       3 -> 17        -0.00679
       3 -> 23         0.00369
       3 -> 29        -0.00235
       3 -> 31        -0.00034
       3 -> 44         0.00060
       3 -> 48         0.00026
       3 -> 52         0.00112
       4 ->  9         0.01668
       4 -> 13        -0.00274
       4 -> 17         0.00091
       4 -> 23        -0.00249
       4 -> 31        -0.00236
       4 -> 37        -0.00043
       4 -> 48        -0.00158
       4 -> 52        -0.00094
       5 -> 27        -0.00161
       5 -> 38         0.00207
       5 -> 45         0.00260
       6 ->  9         0.70527
       6 -> 13        -0.03226
       6 -> 17         0.02201
       6 -> 23        -0.01233
       6 -> 29         0.00746
       6 -> 31         0.00384
       6 -> 37        -0.00262
       6 -> 44        -0.00352
       6 -> 48         0.00543
       6 -> 52         0.00192
       7 -> 10         0.00218
       7 -> 11         0.00615
       7 -> 14        -0.00010
       7 -> 16        -0.01221
       7 -> 19        -0.00297
       7 -> 20         0.00225
       7 -> 21         0.00335
       7 -> 24         0.00232
       7 -> 26         0.00171
       7 -> 28        -0.00473
       7 -> 32        -0.00128
       7 -> 34         0.00013
       7 -> 36        -0.00156
       7 -> 39         0.00026
       7 -> 41        -0.00196
       7 -> 43         0.00099
       7 -> 46         0.00485
       7 -> 47         0.00238
       7 -> 51         0.00111
       7 -> 54         0.00056
       8 -> 27         0.00264
       8 -> 38         0.00089
       8 -> 45         0.00677
       3 <-  9        -0.01050
       3 <- 13         0.00061
       3 <- 17        -0.00336
       3 <- 23         0.00038
       3 <- 29        -0.00144
       3 <- 31        -0.00024
       3 <- 37        -0.00015
       3 <- 44        -0.00013
       3 <- 48         0.00054
       3 <- 52         0.00091
       4 <-  9         0.00556
       4 <- 17         0.00249
       4 <- 23        -0.00030

 The electronic state is 1-A1.
 Alpha  occ. eigenvalues --  -19.15762 -10.29467  -1.02572  -0.66079  -0.49542
 Alpha  occ. eigenvalues --   -0.45153  -0.38503  -0.28719
 Alpha virt. eigenvalues --   -0.09005   0.00459   0.03627   0.04203   0.06306
 Alpha virt. eigenvalues --    0.12430   0.16743   0.18777   0.21879   0.23524
 Alpha virt. eigenvalues --    0.24682   0.30839   0.42825   0.44737   0.50927

 Mulliken charges:
               1
     1  C   -0.003871
     2  H    0.136081
     3  H    0.136081
     4  O   -0.268291
 Sum of Mulliken charges =  -0.00000

 Dipole moment (field-independent basis, Debye):
    X=             -0.0000    Y=             -0.0000    Z=             -2.9148  Tot=              2.9148
 Quadrupole moment (field-independent basis, Debye-Ang):
   XX=            -12.0495   YY=            -11.7335   ZZ=            -12.1629
   XY=              0.0000   XZ=              0.0000   YZ=              0.0000

 Normal termination of Gaussian 16 at Fri Sep 17 10:52:48 2021.
