 Gaussian 16, Revision C.01,
 Gaussian 16:  ES64L-G16RevC.01  3-Jul-2019

 ----------------------------------------
 #P wB97XD/6-311+G* NoSymm #P Field=Z+145
 ----------------------------------------

 -------
 TitleMe
 -------
 Symbolic Z-matrix:
 Charge =  1 Multiplicity = 1

                          Input orientation:
 ---------------------------------------------------------------------
 Center     Atomic      Atomic             Coordinates (Angstroms)
 Number     Number       Type             X           Y           Z
 ---------------------------------------------------------------------
      1          6           0        0.519300    1.233000   -0.031900
      2          6           0        1.944500    1.269200   -0.036700
      3          6           0        2.620400    0.092800   -0.025000
      4          6           0       -0.196000    0.030100    0.001000
      5          1           0       -0.020700    2.174200   -0.043400
      6          1           0        2.482800    2.208900   -0.036100
      7          1           0       -1.277700    0.039900    0.011700
      8          7           0        4.092100    0.095900    0.036600
      9          8           0        4.639300   -1.021700    0.144600
     10          8           0        4.664900    1.198400   -0.023300
     11          6           0        0.494300   -1.167100    0.021000
     12          1           0       -0.032500   -2.114900    0.054500
     13          6           0        1.962900   -1.216500   -0.021100
     14          1           0        2.443600   -1.963100    0.615100
     15         35           0        2.173000   -1.949100   -1.906200
 ---------------------------------------------------------------------

 SCF Done:  E(RwB97XD) =  -3010.54364745     A.U. after   20 cycles

 Alpha  occ. eigenvalues -- -483.28819 -62.83797 -56.63536 -56.62910 -56.62890
 Alpha  occ. eigenvalues --  -19.45859 -19.45854 -14.85243 -10.58317 -10.56650
 Alpha  occ. eigenvalues --  -10.56341 -10.55846 -10.52513 -10.51920  -8.99571
 Alpha  occ. eigenvalues --   -6.82369  -6.80326  -6.80269  -2.92244  -2.91715
 Alpha  occ. eigenvalues --   -2.91669  -2.90036  -2.90035  -1.49531  -1.32504
 Alpha  occ. eigenvalues --   -1.21396  -1.11931  -1.11188  -1.03096  -0.99159
 Alpha  occ. eigenvalues --   -0.94327  -0.89702  -0.84358  -0.80270  -0.79540
 Alpha  occ. eigenvalues --   -0.79351  -0.77103  -0.75674  -0.74689  -0.70690
 Alpha  occ. eigenvalues --   -0.67606  -0.66666  -0.61857  -0.58509  -0.57002
 Alpha  occ. eigenvalues --   -0.56232  -0.55543  -0.53339  -0.52321
 Alpha virt. eigenvalues --   -0.28867  -0.19796  -0.14083  -0.12419  -0.10505
 Alpha virt. eigenvalues --   -0.07638  -0.07346  -0.05635  -0.03891  -0.03459
 Alpha virt. eigenvalues --   -0.02109  -0.00916   0.00442   0.00604   0.01339

 Mulliken charges:
               1
     1  C   -0.148195
     2  C    0.229697
     3  C   -0.042580
     4  C   -0.334235
     5  H    0.343846
     6  H    0.348866
     7  H    0.327758
     8  N   -0.271460
     9  O    0.088308
    10  O    0.069716
    11  C   -0.238633
    12  H    0.352796
    13  C   -0.415355
    14  H    0.364377
    15  Br   0.325093
 Sum of Mulliken charges =   1.00000

 Dipole moment (field-independent basis, Debye):
    X=              3.0050    Y=             -1.5024    Z=             -3.3750  Tot=              4.7621
 Quadrupole moment (field-independent basis, Debye-Ang):
   XX=            -67.8864   YY=            -50.2232   ZZ=            -58.9986
   XY=             -4.1834   XZ=             -7.9698   YZ=              5.0129

 Normal termination of Gaussian 16 at Thu May  2 14:19:47 2024.
