 Gaussian 16, Revision A.03,
 Gaussian 16:  ES64L-G16RevA.03 25-Dec-2016

 --------------------------------------------------------------------
 #p B3LYP/6-311+G** #p TD=(singlets,nstates=30)IOp(6/8=3) IOp(9/40=4)
 --------------------------------------------------------------------

 -------------------------------
 Scan Step 210, Bond Length 1.55
 -------------------------------
 Symbolic Z-matrix:
 Charge =  0 Multiplicity = 1

                         Standard orientation:
 ---------------------------------------------------------------------
 Center     Atomic      Atomic             Coordinates (Angstroms)
 Number     Number       Type             X           Y           Z
 ---------------------------------------------------------------------
      1          6           0        0.000000    0.000000   -0.701081
      2          1           0        0.000000    0.937260   -1.292431
      3          1           0       -0.000000   -0.937260   -1.292431
      4          8           0        0.000000   -0.000000    0.848919
 ---------------------------------------------------------------------

 SCF Done:  E(RB3LYP) =  -114.446611888     A.U. after   10 cycles

 Excitation energies and oscillator strengths:

 Excited State   1:      Singlet-A2     2.1778 eV  569.32 nm  f=0.0000  <S**2>=0.000
       3 -> 27         0.00132
       3 -> 38         0.00100
       3 -> 46         0.00324
       4 -> 27         0.00080
       4 -> 38        -0.00017
       4 -> 46        -0.00134
       5 ->  9         0.00913
       5 -> 13         0.00078
       5 -> 18         0.00321
       5 -> 23         0.00160
       5 -> 28         0.00283
       5 -> 31        -0.00026
       5 -> 37         0.00158
       5 -> 44         0.00036
       5 -> 52         0.00039
       6 -> 27        -0.00062
       6 -> 38        -0.00081
       6 -> 46         0.00142
       7 -> 12        -0.00084
       7 -> 16         0.00457
       7 -> 19        -0.00390
       7 -> 22        -0.00066
       7 -> 25         0.00103
       7 -> 30        -0.00146
       7 -> 33         0.00039
       7 -> 49         0.00013
       7 -> 50         0.00018
       7 -> 53         0.00045
       8 ->  9         0.70814
       8 -> 13        -0.01523
       8 -> 18         0.02177
       8 -> 23        -0.00416
       8 -> 28         0.01107
       8 -> 31         0.00080
       8 -> 37         0.00065
       8 -> 48        -0.00031
       8 -> 52         0.00194
       3 <- 27         0.00065
       3 <- 38         0.00072
       3 <- 46         0.00330
       4 <- 27         0.00136
       4 <- 38         0.00023
       4 <- 46        -0.00109
       5 <-  9        -0.00035
       5 <- 13        -0.00056
       5 <- 18        -0.00075
       5 <- 23         0.00030
       5 <- 28        -0.00052
       5 <- 31         0.00039
       5 <- 37         0.00087
       5 <- 44         0.00012
       5 <- 52         0.00010
       6 <- 38        -0.00067
       6 <- 46         0.00110
       7 <- 12         0.00041
       7 <- 16        -0.00983
       7 <- 19         0.00332
       7 <- 22         0.00709
       7 <- 25         0.00049
       7 <- 30         0.00513
       7 <- 33        -0.00060
       7 <- 36         0.00102
       7 <- 40         0.00057
       7 <- 42         0.00012
       7 <- 49        -0.00035
       7 <- 50         0.00011
       7 <- 53         0.00145
       8 <-  9        -0.04724
       8 <- 13         0.00071
       8 <- 18        -0.00632
       8 <- 23         0.00028
       8 <- 28        -0.00224
       8 <- 31        -0.00059
       8 <- 37        -0.00054
       8 <- 52         0.00052
 This state for optimization and/or second-order correction.
 Total Energy, E(TD-HF/TD-DFT) =  -114.366580483
 Copying the excited state density for this state as the 1-particle RhoCI density.

 Excited State   2:      Singlet-A1     5.5458 eV  223.56 nm  f=0.0891  <S**2>=0.000
       3 -> 10         0.01226
       3 -> 11        -0.01623
       3 -> 14        -0.01296
       3 -> 15         0.01137
       3 -> 17        -0.00364
       3 -> 20        -0.00360
       3 -> 21        -0.00188
       3 -> 24         0.00315
       3 -> 26         0.00481
       3 -> 29        -0.00091
       3 -> 32         0.00278
       3 -> 34         0.00303
       3 -> 35        -0.00054
       3 -> 39         0.00094
       3 -> 43         0.00043
       3 -> 45        -0.00039
       3 -> 47         0.00218
       3 -> 51         0.00087
       3 -> 54         0.00024
       4 -> 10         0.01588
       4 -> 11         0.01114
       4 -> 14        -0.00852
       4 -> 15        -0.00916
       4 -> 17         0.00324
       4 -> 20         0.00631
       4 -> 21         0.00039
       4 -> 24        -0.00554
       4 -> 26         0.00542
       4 -> 29         0.00115
       4 -> 32        -0.00128
       4 -> 34        -0.00210
       4 -> 35         0.00021
       4 -> 39        -0.00014
       4 -> 41         0.00014
       4 -> 43        -0.00037
       4 -> 45        -0.00062
       4 -> 47        -0.00144
       4 -> 51        -0.00029
       5 -> 12         0.01984
       5 -> 16         0.01444
       5 -> 19         0.00156
       5 -> 22         0.00692
       5 -> 25         0.00935
       5 -> 30        -0.00068
       5 -> 33        -0.00321
       5 -> 36         0.00266
       5 -> 40         0.00155
       5 -> 42         0.00062
       5 -> 49         0.00053
       5 -> 50        -0.00063
       5 -> 53        -0.00017
       6 -> 10        -0.09915
       6 -> 11         0.11113
       6 -> 14         0.09036
       6 -> 15        -0.09343
       6 -> 17        -0.02053
       6 -> 20        -0.01531
       6 -> 21         0.01673
       6 -> 24        -0.01623
       6 -> 26        -0.00807
       6 -> 29        -0.00874
       6 -> 32         0.00039
       6 -> 34         0.00166
       6 -> 35        -0.00109
       6 -> 39         0.00069
       6 -> 41        -0.00052
       6 -> 43         0.00075
       6 -> 45         0.00064
       6 -> 47         0.00147
       6 -> 51         0.00084
       6 -> 54        -0.00057
       7 ->  9         0.68541
       7 -> 13         0.00437
       7 -> 18        -0.02069
       7 -> 23         0.00126
       7 -> 28        -0.00226
       7 -> 31        -0.00283
       7 -> 37         0.00071
       7 -> 44        -0.00106
       7 -> 48         0.00048
       7 -> 52         0.00104
       8 -> 12        -0.00624
       8 -> 16         0.08160
       8 -> 19        -0.02545
       8 -> 22        -0.03115
       8 -> 25         0.00104
       8 -> 30        -0.01306
       8 -> 33         0.00286
       8 -> 36        -0.00356
       8 -> 40        -0.00166
       8 -> 42        -0.00034
       8 -> 49         0.00065
       8 -> 50         0.00026
       8 -> 53        -0.00078
       3 <- 10         0.00783
       3 <- 11        -0.01093
       3 <- 14        -0.00936
       3 <- 15         0.00769
       3 <- 17        -0.00183
       3 <- 20        -0.00247
       3 <- 21        -0.00203
       3 <- 24         0.00205
       3 <- 26         0.00296
       3 <- 29        -0.00052
       3 <- 32         0.00255
       3 <- 34         0.00200
       3 <- 35        -0.00051
       3 <- 39         0.00080
       3 <- 41         0.00011
       3 <- 43         0.00051
       3 <- 45        -0.00021
       3 <- 47         0.00233
       3 <- 51         0.00084
       3 <- 54         0.00033
       4 <- 10         0.00776
       4 <- 11         0.00673
       4 <- 14        -0.00416
       4 <- 15        -0.00537
       4 <- 17         0.00155
       4 <- 20         0.00489
       4 <- 21         0.00031
       4 <- 24        -0.00365
       4 <- 26         0.00415
       4 <- 29         0.00030
       4 <- 32        -0.00161
       4 <- 34        -0.00184
       4 <- 35         0.00042
       4 <- 39        -0.00020
       4 <- 43        -0.00037
       4 <- 45        -0.00082
       4 <- 47        -0.00104
       4 <- 51        -0.00013
       5 <- 12         0.00814
       5 <- 16         0.00690
       5 <- 19         0.00104
       5 <- 22         0.00410
       5 <- 25         0.00610
       5 <- 30        -0.00032
       5 <- 33        -0.00244
       5 <- 36         0.00214
       5 <- 40         0.00134
       5 <- 42         0.00050
       5 <- 49         0.00046
       5 <- 50        -0.00057
       5 <- 53        -0.00016
       6 <- 10        -0.02729
       6 <- 11         0.03270
       6 <- 14         0.03348
       6 <- 15        -0.03764
       6 <- 17        -0.00932
       6 <- 20        -0.00876
       6 <- 21         0.00928
       6 <- 24        -0.00959
       6 <- 26        -0.00475
       6 <- 29        -0.00584
       6 <- 32         0.00087
       6 <- 34         0.00197
       6 <- 35        -0.00101
       6 <- 39         0.00080
       6 <- 41        -0.00035
       6 <- 43         0.00065
       6 <- 45         0.00067
       6 <- 47         0.00098
       6 <- 51         0.00066
       6 <- 54        -0.00046
       7 <-  9        -0.12014
       7 <- 13         0.00858
       7 <- 18        -0.01429
       7 <- 23         0.00435
       7 <- 28        -0.00444
       7 <- 31        -0.00121
       7 <- 37         0.00019
       7 <- 44        -0.00058
       7 <- 48        -0.00010
       7 <- 52         0.00090
       8 <- 12        -0.00119
       8 <- 16         0.02577
       8 <- 19        -0.00992
       8 <- 22        -0.01590
       8 <- 25         0.00031
       8 <- 30        -0.00913
       8 <- 33         0.00208
       8 <- 36        -0.00267
       8 <- 40        -0.00132
       8 <- 42        -0.00027
       8 <- 49         0.00044
       8 <- 50         0.00021
       8 <- 53        -0.00070

 Excited State   3:      Singlet-B1     5.7837 eV  214.37 nm  f=0.0015  <S**2>=0.000
       3 ->  9        -0.03019
       3 -> 13         0.00206
       3 -> 18        -0.00504
       3 -> 23         0.00204
       3 -> 28        -0.00112
       3 -> 31        -0.00049
       3 -> 44         0.00027
       3 -> 48         0.00089
       3 -> 52         0.00100
       4 ->  9         0.01427
       4 -> 13        -0.00270
       4 -> 18         0.00036
       4 -> 23        -0.00246
       4 -> 28         0.00021
       4 -> 31        -0.00164
       4 -> 37        -0.00043
       4 -> 44         0.00012
       4 -> 48        -0.00121
       4 -> 52        -0.00066
       5 -> 27        -0.00037
       5 -> 38         0.00200
       5 -> 46         0.00113
       6 ->  9         0.70583
       6 -> 13        -0.02149
       6 -> 18         0.01764
       6 -> 23        -0.01123
       6 -> 28         0.00468
       6 -> 31         0.00350
       6 -> 37        -0.00230
       6 -> 44        -0.00304
       6 -> 48         0.00437
       6 -> 52         0.00155
       7 -> 10        -0.01977
       7 -> 11         0.01997
       7 -> 14         0.01302
       7 -> 15        -0.00812
       7 -> 17        -0.00950
       7 -> 20         0.00265
       7 -> 21        -0.00026
       7 -> 24        -0.00025
       7 -> 26        -0.00121
       7 -> 29        -0.00407
       7 -> 32        -0.00080
       7 -> 34         0.00041
       7 -> 35         0.00185
       7 -> 39         0.00013
       7 -> 41        -0.00073
       7 -> 43         0.00060
       7 -> 45        -0.00118
       7 -> 47         0.00433
       7 -> 51         0.00117
       7 -> 54         0.00048
       8 -> 27         0.00074
       8 -> 38         0.00019
       8 -> 46         0.00564
       3 <-  9        -0.01003
       3 <- 13        -0.00048
       3 <- 18        -0.00302
       3 <- 23        -0.00046
       3 <- 28        -0.00074
       3 <- 31        -0.00063
       3 <- 44        -0.00027
       3 <- 48         0.00108
       3 <- 52         0.00080
       4 <-  9         0.00667
       4 <- 13        -0.00017
       4 <- 18         0.00208
       4 <- 23        -0.00051
       4 <- 28         0.00178
       4 <- 31        -0.00114
       4 <- 37        -0.00019
       4 <- 44         0.00013
       4 <- 48        -0.00104
       4 <- 52        -0.00037
       5 <- 27        -0.00087
       5 <- 38         0.00160
       5 <- 46         0.00100
       6 <-  9        -0.02407
       6 <- 13         0.00174
       6 <- 18        -0.00314
       6 <- 23        -0.00027
       6 <- 28        -0.00323
       6 <- 31         0.00149
       6 <- 37        -0.00203
       6 <- 44        -0.00172
       6 <- 48         0.00391
       6 <- 52         0.00055
       7 <- 10         0.00972
       7 <- 11        -0.01146
       7 <- 14        -0.01206
       7 <- 15         0.01533
       7 <- 17         0.00104
       7 <- 20         0.00541
       7 <- 21        -0.00474
       7 <- 24         0.00465
       7 <- 26         0.00190
       7 <- 29         0.00090
       7 <- 32        -0.00043
       7 <- 35         0.00287
       7 <- 39         0.00041
       7 <- 41        -0.00036
       7 <- 43         0.00048
       7 <- 45        -0.00124
       7 <- 47         0.00391
       7 <- 51         0.00098
       7 <- 54         0.00109
       8 <- 27         0.00116
       8 <- 38         0.00036
       8 <- 46         0.00521

 Excited State   4:      Singlet-B2     6.5137 eV  190.34 nm  f=0.0182  <S**2>=0.000
       3 -> 12         0.00168
       3 -> 16        -0.00157
       3 -> 19         0.00400
       3 -> 22        -0.00033
       3 -> 30         0.00295
       3 -> 33         0.00037
       3 -> 36        -0.00198
       3 -> 40        -0.00155
       3 -> 42        -0.00016
       3 -> 49         0.00210
       3 -> 50        -0.00021
       3 -> 53        -0.00026
       4 -> 12        -0.00054
       4 -> 16         0.00289
       4 -> 19         0.00040
       4 -> 22        -0.00344
       4 -> 25         0.00255
       4 -> 30        -0.00126
       4 -> 33         0.00044
       4 -> 36        -0.00046
       4 -> 40         0.00050
       4 -> 49        -0.00029
       5 -> 10         0.00124
       5 -> 11        -0.00507
       5 -> 14        -0.01455
       5 -> 15        -0.00036
       5 -> 17        -0.00138
       5 -> 20        -0.00167
       5 -> 21        -0.00671
       5 -> 24        -0.00187
       5 -> 26         0.00211
       5 -> 29         0.00190
       5 -> 32         0.00087
       5 -> 34         0.00133
       5 -> 35         0.00064
       5 -> 39         0.00086
       5 -> 41        -0.00082
       5 -> 45        -0.00026
       5 -> 47         0.00078
       5 -> 51        -0.00047
       5 -> 54         0.00022
       6 -> 12        -0.00347
       6 -> 16         0.00127
       6 -> 19        -0.00230
       6 -> 22        -0.00028
       6 -> 25         0.00074
       6 -> 30         0.00051
       6 -> 33        -0.00046
       6 -> 36         0.00215
       6 -> 40         0.00162
       6 -> 42         0.00024
       6 -> 49        -0.00133
       6 -> 53         0.00028
       7 -> 27         0.00055
       7 -> 38        -0.00099
       7 -> 46        -0.00316
       8 -> 10         0.63625
       8 -> 11        -0.27902
       8 -> 14        -0.10681
       8 -> 15         0.07546
       8 -> 17         0.00929
       8 -> 20         0.00470
       8 -> 21        -0.00466
       8 -> 24         0.00525
       8 -> 26         0.00544
       8 -> 29         0.00816
       8 -> 32         0.00208
       8 -> 34         0.00138
       8 -> 35         0.00068
       8 -> 39         0.00047
       8 -> 41        -0.00044
       8 -> 43         0.00060
       8 -> 45        -0.00212
       8 -> 47         0.00337
       8 -> 51        -0.00195
       8 -> 54         0.00121
       3 <- 12         0.00056
       3 <- 16        -0.00033
       3 <- 19         0.00188
       3 <- 22        -0.00083
       3 <- 25        -0.00012
       3 <- 30         0.00117
       3 <- 33         0.00033
       3 <- 36        -0.00159
       3 <- 40        -0.00140
       3 <- 42        -0.00014
       3 <- 49         0.00216
       3 <- 50        -0.00018
       3 <- 53        -0.00072
       4 <- 12         0.00041
       4 <- 16         0.00246
       4 <- 19         0.00056
       4 <- 22        -0.00280
       4 <- 25         0.00157
       4 <- 30        -0.00103
       4 <- 33         0.00052
       4 <- 36        -0.00064
       4 <- 40         0.00015
       4 <- 42        -0.00016
       4 <- 49        -0.00022
       5 <- 10         0.00120
       5 <- 11         0.00143
       5 <- 14        -0.00304
       5 <- 15        -0.00350
       5 <- 17        -0.00025
       5 <- 20        -0.00033
       5 <- 21        -0.00202
       5 <- 24        -0.00279
       5 <- 26         0.00078
       5 <- 29         0.00049
       5 <- 32        -0.00037
       5 <- 34         0.00044
       5 <- 39         0.00026
       5 <- 41        -0.00078
       5 <- 43        -0.00014
       5 <- 45        -0.00054
       5 <- 47         0.00056
       5 <- 51        -0.00025
       6 <- 12        -0.00020
       6 <- 16        -0.00423
       6 <- 19         0.00193
       6 <- 22         0.00298
       6 <- 25         0.00033
       6 <- 30         0.00370
       6 <- 33        -0.00068
       6 <- 36         0.00214
       6 <- 40         0.00158
       6 <- 42         0.00028
       6 <- 49        -0.00138
       6 <- 53         0.00081
       7 <- 27         0.00056
       7 <- 38        -0.00076
       7 <- 46        -0.00258
       8 <- 10        -0.00794
       8 <- 11         0.00993
       8 <- 14         0.01000
       8 <- 15        -0.00601
       8 <- 17        -0.00021
       8 <- 20         0.00182
       8 <- 21         0.00233
       8 <- 24        -0.00082
       8 <- 26        -0.00199
       8 <- 29         0.00079
       8 <- 32        -0.00168
       8 <- 34        -0.00129
       8 <- 39        -0.00123
       8 <- 41        -0.00059
       8 <- 45        -0.00250
       8 <- 47         0.00229
       8 <- 51        -0.00114
       8 <- 54         0.00029

 Excited State   5:      Singlet-B2     7.1133 eV  174.30 nm  f=0.0045  <S**2>=0.000
       3 -> 12         0.00127
       3 -> 16         0.00175
       3 -> 19        -0.00133
       3 -> 22        -0.00040
       3 -> 25         0.00096
       3 -> 30        -0.00280
       3 -> 36         0.00075
       3 -> 40         0.00066
       3 -> 49        -0.00094
       4 -> 12        -0.00146
       4 -> 16         0.00025
       4 -> 19         0.00086
       4 -> 22        -0.00046
       4 -> 25         0.00030
       4 -> 30         0.00149
       4 -> 33        -0.00026
       4 -> 36         0.00046
       4 -> 50        -0.00012
       5 -> 10        -0.00818
       5 -> 11        -0.00055
       5 -> 14         0.00088
       5 -> 15         0.00602
       5 -> 17         0.00146
       5 -> 20         0.00228
       5 -> 21         0.00100
       5 -> 24        -0.00015
       5 -> 26        -0.00066
       5 -> 29        -0.00070
       5 -> 32        -0.00160
       5 -> 34         0.00010
       5 -> 35        -0.00048
       5 -> 39        -0.00071
       5 -> 43        -0.00036
       5 -> 45         0.00041
       5 -> 47        -0.00049
       5 -> 51         0.00035
       6 -> 12        -0.00081
       6 -> 16        -0.00022
       6 -> 19         0.00072
       6 -> 22        -0.00108
       6 -> 30        -0.00097
       6 -> 36        -0.00045
       6 -> 40        -0.00087
       6 -> 42        -0.00023
       6 -> 49         0.00146
       6 -> 50        -0.00012
       6 -> 53        -0.00014
       7 -> 27        -0.00069
       7 -> 46         0.00220
       8 -> 10         0.29088
       8 -> 11         0.64199
       8 -> 14         0.02167
       8 -> 15        -0.04913
       8 -> 17        -0.00638
       8 -> 20         0.01539
       8 -> 21         0.00421
       8 -> 24        -0.00402
       8 -> 26         0.00084
       8 -> 29        -0.00384
       8 -> 32        -0.00060
       8 -> 34        -0.00088
       8 -> 35        -0.00083
       8 -> 39         0.00011

 The electronic state is 1-A1.
 Alpha  occ. eigenvalues --  -19.17018 -10.32222  -0.94091  -0.69138  -0.48820
 Alpha  occ. eigenvalues --   -0.42201  -0.33777  -0.28997
 Alpha virt. eigenvalues --   -0.13750  -0.00700   0.01837   0.04104   0.06142
 Alpha virt. eigenvalues --    0.10022   0.13882   0.14780   0.18953   0.21496
 Alpha virt. eigenvalues --    0.23933   0.30103   0.39416   0.41616   0.50967

 Mulliken charges:
               1
     1  C   -0.051432
     2  H    0.174136
     3  H    0.174136
     4  O   -0.296841
 Sum of Mulliken charges =   0.00000

 Dipole moment (field-independent basis, Debye):
    X=             -0.0000    Y=             -0.0000    Z=             -3.6423  Tot=              3.6423
 Quadrupole moment (field-independent basis, Debye-Ang):
   XX=            -12.6374   YY=            -11.8534   ZZ=            -11.4608
   XY=              0.0000   XZ=              0.0000   YZ=              0.0000

 Normal termination of Gaussian 16 at Fri Sep 17 10:52:59 2021.
