 Gaussian 16, Revision C.01,
 Gaussian 16:  ES64L-G16RevC.01  3-Jul-2019

 ----------------------------------------
 #P wB97XD/6-311+G* NoSymm #P Field=Z+243
 ----------------------------------------

 -------
 TitleMe
 -------
 Symbolic Z-matrix:
 Charge =  1 Multiplicity = 1

                          Input orientation:
 ---------------------------------------------------------------------
 Center     Atomic      Atomic             Coordinates (Angstroms)
 Number     Number       Type             X           Y           Z
 ---------------------------------------------------------------------
      1          6           0        0.519300    1.233000   -0.031900
      2          6           0        1.944500    1.269200   -0.036700
      3          6           0        2.620400    0.092800   -0.025000
      4          6           0       -0.196000    0.030100    0.001000
      5          1           0       -0.020700    2.174200   -0.043400
      6          1           0        2.482800    2.208900   -0.036100
      7          1           0       -1.277700    0.039900    0.011700
      8          7           0        4.092100    0.095900    0.036600
      9          8           0        4.639300   -1.021700    0.144600
     10          8           0        4.664900    1.198400   -0.023300
     11          6           0        0.494300   -1.167100    0.021000
     12          1           0       -0.032500   -2.114900    0.054500
     13          6           0        1.962900   -1.216500   -0.021100
     14          1           0        2.443600   -1.963100    0.615100
     15         35           0        2.173000   -1.949100   -1.906200
 ---------------------------------------------------------------------

 SCF Done:  E(RwB97XD) =  -3010.56015229     A.U. after   21 cycles

 Alpha  occ. eigenvalues -- -483.27542 -62.82487 -56.62254 -56.61595 -56.61567
 Alpha  occ. eigenvalues --  -19.45710 -19.45703 -14.85057 -10.57824 -10.55925
 Alpha  occ. eigenvalues --  -10.55809 -10.55204 -10.52062 -10.51500  -8.98236
 Alpha  occ. eigenvalues --   -6.81104  -6.78962  -6.78880  -2.90961  -2.90414
 Alpha  occ. eigenvalues --   -2.90349  -2.88637  -2.88636  -1.49361  -1.32342
 Alpha  occ. eigenvalues --   -1.20845  -1.11492  -1.10475  -1.02229  -0.98431
 Alpha  occ. eigenvalues --   -0.93753  -0.89236  -0.84074  -0.79969  -0.79272
 Alpha  occ. eigenvalues --   -0.78955  -0.76677  -0.75400  -0.74206  -0.70006
 Alpha  occ. eigenvalues --   -0.67112  -0.66185  -0.60988  -0.57908  -0.56825
 Alpha  occ. eigenvalues --   -0.56066  -0.55368  -0.51615  -0.50813
 Alpha virt. eigenvalues --   -0.28214  -0.19572  -0.14598  -0.12959  -0.11408
 Alpha virt. eigenvalues --   -0.10009  -0.09856  -0.06637  -0.05736  -0.04753
 Alpha virt. eigenvalues --   -0.02681  -0.01326   0.00168   0.00424   0.01288

 Mulliken charges:
               1
     1  C   -0.175199
     2  C    0.252824
     3  C   -0.014672
     4  C   -0.345371
     5  H    0.344478
     6  H    0.349727
     7  H    0.327861
     8  N   -0.293597
     9  O    0.089308
    10  O    0.071523
    11  C   -0.258160
    12  H    0.351573
    13  C   -0.454512
    14  H    0.332809
    15  Br   0.421408
 Sum of Mulliken charges =   1.00000

 Dipole moment (field-independent basis, Debye):
    X=              3.1764    Y=             -1.9308    Z=             -5.1954  Tot=              6.3883
 Quadrupole moment (field-independent basis, Debye-Ang):
   XX=            -67.8923   YY=            -49.5996   ZZ=            -57.0416
   XY=             -5.0711   XZ=            -11.7077   YZ=              6.7678

 Normal termination of Gaussian 16 at Thu May  2 14:19:11 2024.
