 Gaussian 16, Revision C.01,
 Gaussian 16:  ES64L-G16RevC.01  3-Jul-2019

 ----------------------------------------
 #P wB97XD/6-311+G* NoSymm #P Field=Y-233
 ----------------------------------------

 -------
 TitleMe
 -------
 Symbolic Z-matrix:
 Charge =  1 Multiplicity = 1

                          Input orientation:
 ---------------------------------------------------------------------
 Center     Atomic      Atomic             Coordinates (Angstroms)
 Number     Number       Type             X           Y           Z
 ---------------------------------------------------------------------
      1          6           0        0.519300    1.233000   -0.031900
      2          6           0        1.944500    1.269200   -0.036700
      3          6           0        2.620400    0.092800   -0.025000
      4          6           0       -0.196000    0.030100    0.001000
      5          1           0       -0.020700    2.174200   -0.043400
      6          1           0        2.482800    2.208900   -0.036100
      7          1           0       -1.277700    0.039900    0.011700
      8          7           0        4.092100    0.095900    0.036600
      9          8           0        4.639300   -1.021700    0.144600
     10          8           0        4.664900    1.198400   -0.023300
     11          6           0        0.494300   -1.167100    0.021000
     12          1           0       -0.032500   -2.114900    0.054500
     13          6           0        1.962900   -1.216500   -0.021100
     14          1           0        2.443600   -1.963100    0.615100
     15         35           0        2.173000   -1.949100   -1.906200
 ---------------------------------------------------------------------

 SCF Done:  E(RwB97XD) =  -3010.55502358     A.U. after   22 cycles

 Alpha  occ. eigenvalues -- -483.35015 -62.90073 -56.69713 -56.69218 -56.69210
 Alpha  occ. eigenvalues --  -19.46869 -19.46409 -14.85949 -10.61456 -10.59844
 Alpha  occ. eigenvalues --  -10.59088 -10.57445 -10.54080 -10.53123  -9.05905
 Alpha  occ. eigenvalues --   -6.88437  -6.86798  -6.86771  -2.98376  -2.97941
 Alpha  occ. eigenvalues --   -2.97919  -2.96606  -2.96606  -1.50255  -1.33212
 Alpha  occ. eigenvalues --   -1.24062  -1.14720  -1.13596  -1.07285  -1.01608
 Alpha  occ. eigenvalues --   -0.96708  -0.91612  -0.86102  -0.81730  -0.81389
 Alpha  occ. eigenvalues --   -0.80619  -0.79231  -0.76883  -0.76375  -0.73798
 Alpha  occ. eigenvalues --   -0.69465  -0.67878  -0.64724  -0.62486  -0.60754
 Alpha  occ. eigenvalues --   -0.58323  -0.57741  -0.56275  -0.55868
 Alpha virt. eigenvalues --   -0.31750  -0.21050  -0.19964  -0.18936  -0.15558
 Alpha virt. eigenvalues --   -0.14339  -0.13453  -0.10161  -0.09461  -0.08198
 Alpha virt. eigenvalues --   -0.06604  -0.05385  -0.04895  -0.04209  -0.02007

 Mulliken charges:
               1
     1  C   -0.122280
     2  C    0.236233
     3  C   -0.033163
     4  C   -0.281810
     5  H    0.435377
     6  H    0.431839
     7  H    0.338758
     8  N   -0.233696
     9  O   -0.035391
    10  O    0.204413
    11  C   -0.192592
    12  H    0.267176
    13  C   -0.380580
    14  H    0.353491
    15  Br   0.012224
 Sum of Mulliken charges =   1.00000

 Dipole moment (field-independent basis, Debye):
    X=              2.4291    Y=              5.9740    Z=              0.1577  Tot=              6.4509
 Quadrupole moment (field-independent basis, Debye-Ang):
   XX=            -68.2265   YY=            -55.5682   ZZ=            -64.7968
   XY=             11.3376   XZ=             -0.5890   YZ=             -1.2067

 Normal termination of Gaussian 16 at Thu May  2 14:21:14 2024.
