 Gaussian 16, Revision C.01,
 Gaussian 16:  ES64L-G16RevC.01  3-Jul-2019

 ----------------------------------------
 #P wB97XD/6-311+G* NoSymm #P Field=Y-252
 ----------------------------------------

 -------
 TitleMe
 -------
 Symbolic Z-matrix:
 Charge =  1 Multiplicity = 1

                          Input orientation:
 ---------------------------------------------------------------------
 Center     Atomic      Atomic             Coordinates (Angstroms)
 Number     Number       Type             X           Y           Z
 ---------------------------------------------------------------------
      1          6           0        0.029500    1.339700    0.068200
      2          6           0        1.434800    1.286700    0.006400
      3          6           0        2.111800    0.051100   -0.005400
      4          6           0        1.445100   -1.137200    0.031200
      5          6           0       -0.687900    0.168200    0.110000
      6          1           0       -0.471300    2.298400    0.078100
      7          1           0        2.027300    2.196500   -0.032200
      8          1           0        1.989700   -2.076400    0.023200
      9          1           0       -1.771600    0.180400    0.158200
     10          7           0        3.586400    0.051000   -0.067500
     11          8           0        4.147100   -1.059700   -0.088100
     12          8           0        4.145000    1.163900   -0.090100
     13          6           0       -0.023600   -1.145800    0.083500
     14          1           0       -0.436700   -1.872500    0.788900
     15         35           0       -0.535900   -1.869700   -1.740800
 ---------------------------------------------------------------------

 SCF Done:  E(RwB97XD) =  -3010.56549118     A.U. after   21 cycles

 Alpha  occ. eigenvalues -- -483.35539 -62.90602 -56.70233 -56.69751 -56.69744
 Alpha  occ. eigenvalues --  -19.46995 -19.46430 -14.86033 -10.61838 -10.58643
 Alpha  occ. eigenvalues --  -10.58558 -10.57290 -10.56802 -10.51924  -9.06436
 Alpha  occ. eigenvalues --   -6.88940  -6.87342  -6.87322  -2.98885  -2.98458
 Alpha  occ. eigenvalues --   -2.98442  -2.97163  -2.97162  -1.50384  -1.33351
 Alpha  occ. eigenvalues --   -1.24100  -1.16199  -1.12181  -1.07604  -1.01758
 Alpha  occ. eigenvalues --   -0.96736  -0.91821  -0.86142  -0.81861  -0.81351
 Alpha  occ. eigenvalues --   -0.80811  -0.79893  -0.76737  -0.76224  -0.74316
 Alpha  occ. eigenvalues --   -0.69532  -0.67293  -0.64756  -0.62985  -0.61407
 Alpha  occ. eigenvalues --   -0.58034  -0.57663  -0.56831  -0.56077
 Alpha virt. eigenvalues --   -0.31216  -0.22183  -0.21018  -0.19190  -0.16056
 Alpha virt. eigenvalues --   -0.15144  -0.13681  -0.10734  -0.09681  -0.09128
 Alpha virt. eigenvalues --   -0.07232  -0.05804  -0.04979  -0.03687  -0.02546

 Mulliken charges:
               1
     1  C   -0.515947
     2  C    0.413916
     3  C   -0.610920
     4  C    0.287125
     5  C    0.061053
     6  H    0.429942
     7  H    0.450771
     8  H    0.283874
     9  H    0.359135
    10  N   -0.110118
    11  O   -0.092868
    12  O    0.175029
    13  C   -0.479201
    14  H    0.338725
    15  Br   0.009483
 Sum of Mulliken charges =   1.00000

 Dipole moment (field-independent basis, Debye):
    X=              0.1076    Y=              6.6947    Z=              0.8955  Tot=              6.7552
 Quadrupole moment (field-independent basis, Debye-Ang):
   XX=            -69.6891   YY=            -56.2268   ZZ=            -64.8716
   XY=              9.4135   XZ=              0.3107   YZ=             -1.7006

 Normal termination of Gaussian 16 at Wed May  1 14:49:38 2024.
