 Gaussian 16, Revision C.01,
 Gaussian 16:  ES64L-G16RevC.01  3-Jul-2019

 ----------------------------------------
 #P wB97XD/6-311+G* NoSymm #P Field=Y+223
 ----------------------------------------

 -------
 TitleMe
 -------
 Symbolic Z-matrix:
 Charge =  1 Multiplicity = 1

                          Input orientation:
 ---------------------------------------------------------------------
 Center     Atomic      Atomic             Coordinates (Angstroms)
 Number     Number       Type             X           Y           Z
 ---------------------------------------------------------------------
      1          6           0        0.029500    1.339700    0.068200
      2          6           0        1.434800    1.286700    0.006400
      3          6           0        2.111800    0.051100   -0.005400
      4          6           0        1.445100   -1.137200    0.031200
      5          6           0       -0.687900    0.168200    0.110000
      6          1           0       -0.471300    2.298400    0.078100
      7          1           0        2.027300    2.196500   -0.032200
      8          1           0        1.989700   -2.076400    0.023200
      9          1           0       -1.771600    0.180400    0.158200
     10          7           0        3.586400    0.051000   -0.067500
     11          8           0        4.147100   -1.059700   -0.088100
     12          8           0        4.145000    1.163900   -0.090100
     13          6           0       -0.023600   -1.145800    0.083500
     14          1           0       -0.436700   -1.872500    0.788900
     15         35           0       -0.535900   -1.869700   -1.740800
 ---------------------------------------------------------------------

 SCF Done:  E(RwB97XD) =  -3010.56878737     A.U. after   23 cycles

 Alpha  occ. eigenvalues -- -483.28031 -62.83002 -56.62739 -56.62111 -56.62103
 Alpha  occ. eigenvalues --  -19.45503 -19.45234 -14.84743 -10.57589 -10.56310
 Alpha  occ. eigenvalues --  -10.56170 -10.55342 -10.55265 -10.53764  -8.98768
 Alpha  occ. eigenvalues --   -6.81558  -6.79511  -6.79483  -2.91434  -2.90896
 Alpha  occ. eigenvalues --   -2.90873  -2.89237  -2.89236  -1.49090  -1.32085
 Alpha  occ. eigenvalues --   -1.21640  -1.12580  -1.11104  -1.01801  -1.00363
 Alpha  occ. eigenvalues --   -0.94354  -0.90146  -0.85003  -0.80357  -0.79766
 Alpha  occ. eigenvalues --   -0.79345  -0.77641  -0.75392  -0.74787  -0.71161
 Alpha  occ. eigenvalues --   -0.68306  -0.66692  -0.62416  -0.58739  -0.56761
 Alpha  occ. eigenvalues --   -0.55669  -0.54884  -0.52298  -0.51970
 Alpha virt. eigenvalues --   -0.28334  -0.20361  -0.18196  -0.14893  -0.13947
 Alpha virt. eigenvalues --   -0.11341  -0.08722  -0.08456  -0.06737  -0.04379
 Alpha virt. eigenvalues --   -0.03803  -0.02415  -0.01229  -0.00466  -0.00319

 Mulliken charges:
               1
     1  C   -0.612592
     2  C    0.658747
     3  C   -0.852960
     4  C    0.398994
     5  C   -0.096329
     6  H    0.233517
     7  H    0.278317
     8  H    0.442559
     9  H    0.345383
    10  N   -0.100512
    11  O    0.145676
    12  O   -0.095780
    13  C   -0.537464
    14  H    0.459354
    15  Br   0.333091
 Sum of Mulliken charges =   1.00000

 Dipole moment (field-independent basis, Debye):
    X=             -1.5314    Y=             -7.0696    Z=             -0.9085  Tot=              7.2904
 Quadrupole moment (field-independent basis, Debye-Ang):
   XX=            -72.3570   YY=            -49.7541   ZZ=            -60.8509
   XY=             -5.8422   XZ=              1.8470   YZ=              4.6539

 Normal termination of Gaussian 16 at Wed May  1 15:13:23 2024.
