 Gaussian 16, Revision A.03,
 Gaussian 16:  ES64L-G16RevA.03 25-Dec-2016

 --------------------------------------------------------------------
 #p B3LYP/6-311+G** #p TD=(singlets,nstates=30)IOp(6/8=3) IOp(9/40=4)
 --------------------------------------------------------------------

 --------------------------------
 Scan Step 243, Bond Length 1.715
 --------------------------------
 Symbolic Z-matrix:
 Charge =  0 Multiplicity = 1

                         Standard orientation:
 ---------------------------------------------------------------------
 Center     Atomic      Atomic             Coordinates (Angstroms)
 Number     Number       Type             X           Y           Z
 ---------------------------------------------------------------------
      1          6           0        0.000000   -0.000000   -0.783581
      2          1           0        0.000000    0.937260   -1.374931
      3          1           0       -0.000000   -0.937260   -1.374931
      4          8           0        0.000000    0.000000    0.931419
 ---------------------------------------------------------------------

 SCF Done:  E(RB3LYP) =  -114.385776573     A.U. after   11 cycles

 Excitation energies and oscillator strengths:

 Excited State   1:      Singlet-A2     1.5990 eV  775.41 nm  f=0.0000  <S**2>=0.000
       3 -> 27         0.00092
       3 -> 38         0.00063
       3 -> 46         0.00335
       4 -> 27         0.00052
       4 -> 46        -0.00114
       5 ->  9         0.00414
       5 -> 13         0.00109
       5 -> 18         0.00223
       5 -> 23         0.00154
       5 -> 28         0.00185
       5 -> 37         0.00101
       5 -> 44         0.00027
       5 -> 52         0.00025
       6 -> 27        -0.00061
       6 -> 38        -0.00067
       6 -> 46         0.00114
       7 -> 12        -0.00109
       7 -> 16         0.00507
       7 -> 19        -0.00436
       7 -> 22        -0.00100
       7 -> 25         0.00075
       7 -> 29        -0.00173
       7 -> 33         0.00032
       7 -> 49         0.00012
       7 -> 50         0.00012
       7 -> 53         0.00041
       8 ->  9         0.70957
       8 -> 13        -0.00955
       8 -> 18         0.02126
       8 -> 23        -0.00202
       8 -> 28         0.01076
       8 -> 31         0.00145
       8 -> 37         0.00056
       8 -> 48        -0.00031
       8 -> 52         0.00191
       3 <- 27         0.00035
       3 <- 38         0.00038
       3 <- 46         0.00339
       4 <- 27         0.00094
       4 <- 38         0.00022
       4 <- 46        -0.00091
       5 <- 13        -0.00042
       5 <- 18        -0.00052
       5 <- 23         0.00021
       5 <- 28        -0.00037
       5 <- 31         0.00028
       5 <- 37         0.00058
       6 <- 38        -0.00053
       6 <- 46         0.00086
       7 <- 12         0.00123
       7 <- 16        -0.01041
       7 <- 19         0.00469
       7 <- 22         0.00638
       7 <- 25         0.00060
       7 <- 29         0.00549
       7 <- 33        -0.00040
       7 <- 35         0.00043
       7 <- 40        -0.00028
       7 <- 42         0.00016
       7 <- 49        -0.00046
       7 <- 53         0.00146
       8 <-  9        -0.06303
       8 <- 18        -0.00721
       8 <- 23        -0.00010
       8 <- 28        -0.00260
       8 <- 31        -0.00073
       8 <- 37        -0.00031
       8 <- 48         0.00012
       8 <- 52         0.00048
 This state for optimization and/or second-order correction.
 Total Energy, E(TD-HF/TD-DFT) =  -114.327016029
 Copying the excited state density for this state as the 1-particle RhoCI density.

 Excited State   2:      Singlet-A1     4.1759 eV  296.90 nm  f=0.0497  <S**2>=0.000
       3 -> 10        -0.01779
       3 -> 11        -0.00653
       3 -> 14         0.00515
       3 -> 15         0.00189
       3 -> 17        -0.00332
       3 -> 20        -0.00392
       3 -> 21        -0.00015
       3 -> 24         0.00137
       3 -> 26         0.00249
       3 -> 30        -0.00125
       3 -> 32         0.00276
       3 -> 34        -0.00155
       3 -> 36        -0.00117
       3 -> 39         0.00061
       3 -> 43         0.00051
       3 -> 45         0.00057
       3 -> 47         0.00230
       3 -> 51         0.00133
       4 -> 10        -0.00506
       4 -> 11         0.01254
       4 -> 14         0.00320
       4 -> 15        -0.00903
       4 -> 17         0.00272
       4 -> 20         0.00351
       4 -> 21         0.00037
       4 -> 24        -0.00433
       4 -> 26         0.00422
       4 -> 30         0.00082
       4 -> 32        -0.00135
       4 -> 34         0.00115
       4 -> 36         0.00035
       4 -> 41         0.00011
       4 -> 43        -0.00051
       4 -> 45        -0.00082
       4 -> 47        -0.00097
       4 -> 51        -0.00032
       4 -> 54         0.00014
       5 -> 12         0.01307
       5 -> 16         0.00608
       5 -> 19         0.00136
       5 -> 22         0.00744
       5 -> 25         0.00634
       5 -> 29         0.00019
       5 -> 33        -0.00274
       5 -> 35         0.00278
       5 -> 40        -0.00128
       5 -> 42         0.00081
       5 -> 49         0.00031
       5 -> 50        -0.00077
       6 -> 10         0.21531
       6 -> 11         0.06447
       6 -> 14        -0.06960
       6 -> 15        -0.03661
       6 -> 17        -0.01808
       6 -> 20        -0.00534
       6 -> 21         0.00905
       6 -> 24        -0.01071
       6 -> 26        -0.00483
       6 -> 30        -0.00646
       6 -> 32         0.00214
       6 -> 34        -0.00141
       6 -> 39         0.00109
       6 -> 41        -0.00024
       6 -> 43         0.00086
       6 -> 45         0.00083
       6 -> 47         0.00099
       6 -> 51         0.00072
       6 -> 54        -0.00085
       7 ->  9         0.68032
       7 -> 13        -0.00395
       7 -> 18        -0.01417
       7 -> 23        -0.00155
       7 -> 31        -0.00321
       7 -> 37         0.00116
       7 -> 44        -0.00101
       7 -> 48         0.00023
       7 -> 52         0.00106
       8 -> 12        -0.00791
       8 -> 16         0.05109
       8 -> 19        -0.02150
       8 -> 22        -0.01886
       8 -> 25         0.00017
       8 -> 29        -0.00997
       8 -> 33         0.00147
       8 -> 35        -0.00150
       8 -> 40         0.00071
       8 -> 42        -0.00035
       8 -> 49         0.00037
       8 -> 50         0.00019
       8 -> 53        -0.00059
       3 <- 10        -0.01299
       3 <- 11        -0.00515
       3 <- 14         0.00408
       3 <- 15         0.00105
       3 <- 17        -0.00181
       3 <- 20        -0.00311
       3 <- 21        -0.00060
       3 <- 24         0.00069
       3 <- 26         0.00129
       3 <- 30        -0.00073
       3 <- 32         0.00249
       3 <- 34        -0.00089
       3 <- 36        -0.00106
       3 <- 39         0.00057
       3 <- 43         0.00060
       3 <- 45         0.00075
       3 <- 47         0.00234
       3 <- 51         0.00132
       3 <- 54         0.00017
       4 <- 10        -0.00201
       4 <- 11         0.00845
       4 <- 14         0.00195
       4 <- 15        -0.00575
       4 <- 17         0.00151
       4 <- 20         0.00348
       4 <- 21         0.00022
       4 <- 24        -0.00313
       4 <- 26         0.00352
       4 <- 30         0.00013
       4 <- 32        -0.00158
       4 <- 34         0.00098
       4 <- 36         0.00063
       4 <- 43        -0.00048
       4 <- 45        -0.00083
       4 <- 47        -0.00062
       4 <- 51        -0.00018
       4 <- 54         0.00011
       5 <- 12         0.00685
       5 <- 16         0.00354
       5 <- 19         0.00101
       5 <- 22         0.00499
       5 <- 25         0.00463
       5 <- 29         0.00026
       5 <- 33        -0.00220
       5 <- 35         0.00233
       5 <- 40        -0.00114
       5 <- 42         0.00069
       5 <- 49         0.00028
       5 <- 50        -0.00071
       6 <- 10         0.06975
       6 <- 11         0.02346
       6 <- 14        -0.03024
       6 <- 15        -0.01750
       6 <- 17        -0.00985
       6 <- 20        -0.00432
       6 <- 21         0.00574
       6 <- 24        -0.00682
       6 <- 26        -0.00272
       6 <- 30        -0.00453
       6 <- 32         0.00242
       6 <- 34        -0.00164
       6 <- 36        -0.00048
       6 <- 39         0.00106
       6 <- 41        -0.00019
       6 <- 43         0.00071
       6 <- 45         0.00066
       6 <- 47         0.00058
       6 <- 51         0.00057
       6 <- 54        -0.00075
       7 <-  9        -0.12929
       7 <- 13         0.00535
       7 <- 18        -0.01271
       7 <- 23         0.00205
       7 <- 28        -0.00274
       7 <- 31        -0.00156
       7 <- 37         0.00051
       7 <- 44        -0.00070
       7 <- 48        -0.00031
       7 <- 52         0.00095
       8 <- 12        -0.00253
       8 <- 16         0.02178
       8 <- 19        -0.01083
       8 <- 22        -0.01136
       8 <- 29        -0.00761
       8 <- 33         0.00113
       8 <- 35        -0.00117
       8 <- 40         0.00057
       8 <- 42        -0.00028
       8 <- 49         0.00021
       8 <- 50         0.00016
       8 <- 53        -0.00055

 Excited State   3:      Singlet-B1     4.6145 eV  268.68 nm  f=0.0010  <S**2>=0.000
       3 ->  9        -0.02602
       3 -> 13         0.00123
       3 -> 18        -0.00407
       3 -> 23         0.00144
       3 -> 28        -0.00078
       3 -> 31        -0.00053
       3 -> 44         0.00026
       3 -> 48         0.00093
       3 -> 52         0.00086
       4 ->  9         0.01155
       4 -> 13        -0.00245
       4 -> 18         0.00014
       4 -> 23        -0.00220
       4 -> 28         0.00034
       4 -> 31        -0.00137
       4 -> 37        -0.00035
       4 -> 44         0.00011
       4 -> 48        -0.00085
       4 -> 52        -0.00045
       5 -> 27         0.00016
       5 -> 38         0.00194
       5 -> 46         0.00063
       6 ->  9         0.69865
       6 -> 13        -0.01829
       6 -> 18         0.01534
       6 -> 23        -0.01055
       6 -> 28         0.00373
       6 -> 31         0.00281
       6 -> 37        -0.00189
       6 -> 44        -0.00236
       6 -> 48         0.00377
       6 -> 52         0.00124
       7 -> 10         0.10773
       7 -> 11         0.02552
       7 -> 14        -0.02165
       7 -> 15        -0.00624
       7 -> 17        -0.00900
       7 -> 20         0.00339
       7 -> 21         0.00093
       7 -> 24        -0.00143
       7 -> 26        -0.00210
       7 -> 30        -0.00395
       7 -> 32        -0.00026
       7 -> 34        -0.00091
       7 -> 36         0.00161
       7 -> 39         0.00018
       7 -> 41        -0.00032
       7 -> 43         0.00049
       7 -> 45         0.00022
       7 -> 47         0.00387
       7 -> 51         0.00121
       7 -> 54         0.00020
       8 -> 27         0.00023
       8 -> 46         0.00479
       3 <-  9        -0.00879
       3 <- 13        -0.00081
       3 <- 18        -0.00268
       3 <- 23        -0.00061
       3 <- 28        -0.00045
       3 <- 31        -0.00073
       3 <- 37         0.00014
       3 <- 44        -0.00015
       3 <- 48         0.00107
       3 <- 52         0.00072
       4 <-  9         0.00645
       4 <- 13        -0.00042
       4 <- 18         0.00166
       4 <- 23        -0.00075
       4 <- 28         0.00146
       4 <- 31        -0.00092
       4 <- 37        -0.00022
       4 <- 48        -0.00074
       4 <- 52        -0.00025
       5 <- 27        -0.00041
       5 <- 38         0.00163
       5 <- 46         0.00056
       6 <-  9        -0.03039
       6 <- 13         0.00184
       6 <- 18        -0.00381
       6 <- 23        -0.00014
       6 <- 28        -0.00367
       6 <- 31         0.00075
       6 <- 37        -0.00160
       6 <- 44        -0.00106
       6 <- 48         0.00337
       6 <- 52         0.00031
       7 <- 10        -0.03139
       7 <- 11        -0.01048
       7 <- 14         0.01456
       7 <- 15         0.00972
       7 <- 17         0.00226
       7 <- 20         0.00409
       7 <- 21        -0.00374
       7 <- 24         0.00432
       7 <- 26         0.00170
       7 <- 30         0.00157
       7 <- 32         0.00029
       7 <- 34        -0.00110
       7 <- 36         0.00208
       7 <- 39         0.00053
       7 <- 43         0.00031
       7 <- 47         0.00358
       7 <- 51         0.00121
       7 <- 54         0.00098
       8 <- 27         0.00071
       8 <- 38         0.00017
       8 <- 46         0.00449

 Excited State   4:      Singlet-B2     4.8820 eV  253.96 nm  f=0.0059  <S**2>=0.000
       3 -> 12        -0.00142
       3 -> 16         0.00182
       3 -> 19        -0.00451
       3 -> 22         0.00084
       3 -> 25         0.00075
       3 -> 29        -0.00314
       3 -> 35         0.00193
       3 -> 40        -0.00169
       3 -> 42         0.00044
       3 -> 49        -0.00339
       3 -> 50         0.00021
       3 -> 53         0.00031
       4 -> 12         0.00046
       4 -> 16        -0.00211
       4 -> 19         0.00042
       4 -> 22         0.00242
       4 -> 25        -0.00116
       4 -> 29         0.00127
       4 -> 33        -0.00043
       4 -> 35         0.00050
       4 -> 40         0.00043
       4 -> 49         0.00063
       4 -> 50        -0.00012
       5 -> 10         0.01086
       5 -> 11         0.00305
       5 -> 14        -0.00696
       5 -> 15         0.00417
       5 -> 17        -0.00023
       5 -> 20         0.00214
       5 -> 21         0.00462
       5 -> 24         0.00171
       5 -> 26        -0.00113
       5 -> 30        -0.00197
       5 -> 32        -0.00194
       5 -> 34         0.00072
       5 -> 36        -0.00016
       5 -> 39        -0.00092
       5 -> 41         0.00057
       5 -> 47        -0.00065
       5 -> 51         0.00040
       5 -> 54        -0.00023
       6 -> 12         0.00280
       6 -> 16        -0.00233
       6 -> 19         0.00374
       6 -> 22        -0.00046
       6 -> 25        -0.00100
       6 -> 29        -0.00027
       6 -> 35        -0.00174
       6 -> 40         0.00139
       6 -> 42        -0.00062
       6 -> 49         0.00156
       6 -> 53        -0.00043
       7 -> 27        -0.00065
       7 -> 38         0.00058
       7 -> 46         0.00361
       8 -> 10         0.68851
       8 -> 11         0.12712
       8 -> 14        -0.09357
       8 -> 15        -0.03678
       8 -> 17        -0.01609
       8 -> 20         0.00171
       8 -> 21         0.00743
       8 -> 24        -0.00678
       8 -> 26        -0.00532
       8 -> 30        -0.01151
       8 -> 32        -0.00371
       8 -> 34         0.00177
       8 -> 36         0.00056
       8 -> 39        -0.00075
       8 -> 43        -0.00016
       8 -> 45         0.00117
       8 -> 47        -0.00445
       8 -> 51         0.00199
       8 -> 54        -0.00215
       3 <- 12        -0.00051
       3 <- 16         0.00056
       3 <- 19        -0.00216
       3 <- 22         0.00096
       3 <- 25         0.00067
       3 <- 29        -0.00125
       3 <- 35         0.00141
       3 <- 40        -0.00148
       3 <- 42         0.00035
       3 <- 49        -0.00347
       3 <- 50         0.00019
       3 <- 53         0.00084
       4 <- 16        -0.00205
       4 <- 22         0.00249
       4 <- 25        -0.00072
       4 <- 29         0.00131
       4 <- 33        -0.00047
       4 <- 35         0.00073
       4 <- 40         0.00016
       4 <- 49         0.00046
       5 <- 10        -0.00067
       5 <- 11        -0.00115
       5 <- 14        -0.00077
       5 <- 15         0.00329
       5 <- 17         0.00020
       5 <- 20         0.00073
       5 <- 21         0.00197
       5 <- 24         0.00210
       5 <- 26        -0.00030
       5 <- 30        -0.00044
       5 <- 32        -0.00027
       5 <- 34         0.00012
       5 <- 39        -0.00035
       5 <- 41         0.00060
       5 <- 43         0.00010
       5 <- 45         0.00033
       5 <- 47        -0.00060
       5 <- 51         0.00021
       6 <- 12        -0.00030
       6 <- 16         0.00673
       6 <- 19        -0.00322
       6 <- 22        -0.00479
       6 <- 25        -0.00087
       6 <- 29        -0.00557
       6 <- 33         0.00041
       6 <- 35        -0.00168
       6 <- 40         0.00142
       6 <- 42        -0.00068
       6 <- 49         0.00188
       6 <- 53        -0.00128
       7 <- 27        -0.00064
       7 <- 38         0.00046
       7 <- 46         0.00304
       8 <- 10        -0.02819
       8 <- 11        -0.00962
       8 <- 14         0.01012
       8 <- 15         0.00286
       8 <- 17         0.00099
       8 <- 20        -0.00283
       8 <- 21        -0.00192
       8 <- 24         0.00161
       8 <- 26         0.00168
       8 <- 30        -0.00012
       8 <- 32         0.00298
       8 <- 34        -0.00112
       8 <- 36        -0.00054
       8 <- 39         0.00144
       8 <- 41         0.00039
       8 <- 43         0.00049
       8 <- 45         0.00194
       8 <- 47        -0.00351
       8 <- 51         0.00135
       8 <- 54        -0.00057

 Excited State   5:      Singlet-B1     5.8265 eV  212.79 nm  f=0.0079  <S**2>=0.000
       3 ->  9        -0.01196
       3 -> 13         0.00066
       3 -> 18        -0.00294
       3 -> 23         0.00084
       3 -> 28        -0.00319
       3 -> 31        -0.00161
       3 -> 44         0.00044
       3 -> 48        -0.00252
       4 ->  9        -0.03304
       4 -> 13         0.00626
       4 -> 18         0.00129
       4 -> 23         0.00463
       4 -> 28         0.00172
       4 -> 37         0.00033
       4 -> 44        -0.00047
       4 -> 48         0.00065
       4 -> 52         0.00012
       5 -> 27        -0.00708
       5 -> 38        -0.00318
       5 -> 46         0.00043
       6 ->  9        -0.11032
       6 -> 13        -0.00198
       6 -> 18         0.00201
       6 -> 23        -0.00046
       6 -> 28         0.00332
       6 -> 31        -0.00367
       6 -> 37         0.00202
       6 -> 44         0.00024
       6 -> 48         0.00062
       6 -> 52        -0.00059
       7 -> 10         0.68320
       7 -> 11         0.10899
       7 -> 14        -0.08400
       7 -> 15        -0.04222
       7 -> 17        -0.00985
       7 -> 20        -0.00408
       7 -> 21         0.00383
       7 -> 24        -0.00998
       7 -> 26        -0.00713
       7 -> 30        -0.00692
       7 -> 32        -0.00198
       7 -> 34         0.00397
       7 -> 36        -0.00170
       7 -> 39        -0.00065
       7 -> 43         0.00062
       7 -> 45         0.00094
       7 -> 47         0.00175
       7 -> 51         0.00088
       7 -> 54        -0.00147
       8 -> 27         0.00097
       8 -> 38         0.00027
       8 -> 46         0.00208
       3 <-  9        -0.00258
       3 <- 13         0.00065
       3 <- 18        -0.00119
       3 <- 23         0.00060
       3 <- 28        -0.00203
       3 <- 31        -0.00030
       3 <- 37        -0.00020
       3 <- 44         0.00018
       3 <- 48        -0.00269
       3 <- 52         0.00039
       4 <-  9        -0.01168
       4 <- 13         0.00254
       4 <- 18         0.00048
       4 <- 23         0.00243
       4 <- 28         0.00161
       4 <- 31        -0.00019
       4 <- 37         0.00040
       4 <- 44        -0.00068
       4 <- 48         0.00023
       4 <- 52         0.00011
       5 <- 27        -0.00481
       5 <- 38        -0.00247
       5 <- 46         0.00041
       6 <-  9        -0.02658
       6 <- 18        -0.00374
       6 <- 23         0.00039
       6 <- 28        -0.00061
       6 <- 31        -0.00429
       6 <- 37         0.00178
       6 <- 44         0.00043

 The electronic state is 1-A1.
 Alpha  occ. eigenvalues --  -19.17533 -10.33382  -0.90759  -0.70637  -0.49014
 Alpha  occ. eigenvalues --   -0.40235  -0.31764  -0.28851
 Alpha virt. eigenvalues --   -0.15979  -0.03967   0.00350   0.04066   0.06105
 Alpha virt. eigenvalues --    0.07219   0.12182   0.13840   0.18854   0.21204
 Alpha virt. eigenvalues --    0.23985   0.30307   0.38715   0.40259   0.50815

 Mulliken charges:
               1
     1  C   -0.080753
     2  H    0.187229
     3  H    0.187229
     4  O   -0.293705
 Sum of Mulliken charges =  -0.00000

 Dipole moment (field-independent basis, Debye):
    X=             -0.0000    Y=             -0.0000    Z=             -3.9810  Tot=              3.9810
 Quadrupole moment (field-independent basis, Debye-Ang):
   XX=            -12.9096   YY=            -11.9657   ZZ=            -10.9735
   XY=              0.0000   XZ=              0.0000   YZ=             -0.0000

 Normal termination of Gaussian 16 at Fri Sep 17 10:53:04 2021.
