 Gaussian 16, Revision C.01,
 Gaussian 16:  ES64L-G16RevC.01  3-Jul-2019

 ---------------------------------------
 #P wB97XD/6-311+G* NoSymm #P Field=X+19
 ---------------------------------------

 -------
 TitleMe
 -------
 Symbolic Z-matrix:
 Charge =  1 Multiplicity = 1

                          Input orientation:
 ---------------------------------------------------------------------
 Center     Atomic      Atomic             Coordinates (Angstroms)
 Number     Number       Type             X           Y           Z
 ---------------------------------------------------------------------
      1          6           0        0.519300    1.233000   -0.031900
      2          6           0        1.944500    1.269200   -0.036700
      3          6           0        2.620400    0.092800   -0.025000
      4          6           0       -0.196000    0.030100    0.001000
      5          1           0       -0.020700    2.174200   -0.043400
      6          1           0        2.482800    2.208900   -0.036100
      7          1           0       -1.277700    0.039900    0.011700
      8          7           0        4.092100    0.095900    0.036600
      9          8           0        4.639300   -1.021700    0.144600
     10          8           0        4.664900    1.198400   -0.023300
     11          6           0        0.494300   -1.167100    0.021000
     12          1           0       -0.032500   -2.114900    0.054500
     13          6           0        1.962900   -1.216500   -0.021100
     14          1           0        2.443600   -1.963100    0.615100
     15         35           0        2.173000   -1.949100   -1.906200
 ---------------------------------------------------------------------

 SCF Done:  E(RwB97XD) =  -3010.53002720     A.U. after   19 cycles

 Alpha  occ. eigenvalues -- -483.31680 -62.86703 -56.66397 -56.65827 -56.65816
 Alpha  occ. eigenvalues --  -19.47365 -19.47340 -14.86754 -10.59799 -10.58588
 Alpha  occ. eigenvalues --  -10.57719 -10.57358 -10.54014 -10.53063  -9.02509
 Alpha  occ. eigenvalues --   -6.85190  -6.83319  -6.83288  -2.95094  -2.94601
 Alpha  occ. eigenvalues --   -2.94576  -2.93079  -2.93078  -1.51036  -1.34009
 Alpha  occ. eigenvalues --   -1.22965  -1.13371  -1.13016  -1.05323  -1.00951
 Alpha  occ. eigenvalues --   -0.95836  -0.91134  -0.85748  -0.81761  -0.80910
 Alpha  occ. eigenvalues --   -0.80803  -0.78420  -0.77174  -0.76139  -0.72481
 Alpha  occ. eigenvalues --   -0.68916  -0.68054  -0.63805  -0.60373  -0.58516
 Alpha  occ. eigenvalues --   -0.57832  -0.57092  -0.56752  -0.55202
 Alpha virt. eigenvalues --   -0.30606  -0.21193  -0.16201  -0.13691  -0.08821
 Alpha virt. eigenvalues --   -0.06363  -0.05689  -0.05067  -0.04725  -0.03520
 Alpha virt. eigenvalues --   -0.02792  -0.02089  -0.01792  -0.01120  -0.00053

 Mulliken charges:
               1
     1  C   -0.111611
     2  C    0.184412
     3  C   -0.085162
     4  C   -0.332979
     5  H    0.350244
     6  H    0.347884
     7  H    0.339654
     8  N   -0.239469
     9  O    0.080986
    10  O    0.060681
    11  C   -0.195051
    12  H    0.361370
    13  C   -0.349025
    14  H    0.408868
    15  Br   0.179197
 Sum of Mulliken charges =   1.00000

 Dipole moment (field-independent basis, Debye):
    X=              2.2422    Y=             -0.8774    Z=             -0.7237  Tot=              2.5142
 Quadrupole moment (field-independent basis, Debye-Ang):
   XX=            -69.9653   YY=            -51.1763   ZZ=            -62.2225
   XY=             -2.8361   XZ=             -2.4106   YZ=              2.3937

 Normal termination of Gaussian 16 at Thu May  2 14:18:33 2024.
