 Gaussian 16, Revision A.03,
 Gaussian 16:  ES64L-G16RevA.03 25-Dec-2016

 --------------------------------------------------------------------
 #p B3LYP/6-311+G** #p TD=(singlets,nstates=30)IOp(6/8=3) IOp(9/40=4)
 --------------------------------------------------------------------

 --------------------------------
 Scan Step 169, Bond Length 1.345
 --------------------------------
 Symbolic Z-matrix:
 Charge =  0 Multiplicity = 1

                         Standard orientation:
 ---------------------------------------------------------------------
 Center     Atomic      Atomic             Coordinates (Angstroms)
 Number     Number       Type             X           Y           Z
 ---------------------------------------------------------------------
      1          6           0        0.000000   -0.000000   -0.598581
      2          1           0        0.000000    0.937260   -1.189931
      3          1           0       -0.000000   -0.937260   -1.189931
      4          8           0        0.000000    0.000000    0.746419
 ---------------------------------------------------------------------

 SCF Done:  E(RB3LYP) =  -114.517905400     A.U. after    9 cycles

 Excitation energies and oscillator strengths:

 Excited State   1:      Singlet-A2     3.1493 eV  393.68 nm  f=0.0000  <S**2>=0.000
       3 -> 27         0.00199
       3 -> 38         0.00164
       3 -> 46         0.00287
       4 -> 27         0.00137
       4 -> 38        -0.00038
       4 -> 46        -0.00141
       5 ->  9         0.01729
       5 -> 13        -0.00083
       5 -> 17         0.00473
       5 -> 23         0.00094
       5 -> 29         0.00411
       5 -> 31        -0.00120
       5 -> 37         0.00265
       5 -> 44         0.00051
       5 -> 48         0.00013
       5 -> 52         0.00062
       6 -> 27        -0.00042
       6 -> 38        -0.00089
       6 -> 46         0.00171
       7 -> 12        -0.00065
       7 -> 15         0.00362
       7 -> 19        -0.00328
       7 -> 25         0.00135
       7 -> 30        -0.00111
       7 -> 33         0.00045
       7 -> 35         0.00012
       7 -> 40         0.00012
       7 -> 42        -0.00012
       7 -> 49         0.00020
       7 -> 50         0.00029
       7 -> 53         0.00048
       8 ->  9         0.70665
       8 -> 13        -0.02803
       8 -> 17         0.02239
       8 -> 23        -0.00783
       8 -> 29         0.01041
       8 -> 31        -0.00105
       8 -> 37         0.00043
       8 -> 48        -0.00028
       8 -> 52         0.00184
       3 <- 27         0.00120
       3 <- 38         0.00132
       3 <- 46         0.00295
       4 <- 27         0.00212
       4 <- 38         0.00016
       4 <- 46        -0.00116
       5 <-  9        -0.00058
       5 <- 13        -0.00074
       5 <- 17        -0.00099
       5 <- 23         0.00046
       5 <- 29        -0.00070
       5 <- 31         0.00065
       5 <- 37         0.00134
       5 <- 44         0.00019
       5 <- 48         0.00012
       5 <- 52         0.00017
       6 <- 27         0.00020
       6 <- 38        -0.00076
       6 <- 46         0.00134
       7 <- 12        -0.00045
       7 <- 15        -0.00846
       7 <- 19         0.00148
       7 <- 22         0.00748
       7 <- 25         0.00020
       7 <- 30         0.00424
       7 <- 33        -0.00109
       7 <- 35         0.00194
       7 <- 40         0.00085
       7 <- 50         0.00020
       7 <- 53         0.00138
       8 <-  9        -0.03169
       8 <- 13         0.00192
       8 <- 17        -0.00507
       8 <- 23         0.00069
       8 <- 29        -0.00150
       8 <- 31        -0.00055
       8 <- 37        -0.00102
       8 <- 52         0.00052
 This state for optimization and/or second-order correction.
 Total Energy, E(TD-HF/TD-DFT) =  -114.402169158
 Copying the excited state density for this state as the 1-particle RhoCI density.

 Excited State   2:      Singlet-B2     6.9532 eV  178.31 nm  f=0.0158  <S**2>=0.000
       3 -> 12         0.00173
       3 -> 15         0.00056
       3 -> 19         0.00139
       3 -> 22        -0.00034
       3 -> 25         0.00114
       3 -> 33         0.00028
       3 -> 35        -0.00059
       3 -> 40        -0.00029
       3 -> 49         0.00024
       3 -> 53        -0.00010
       4 -> 12        -0.00219
       4 -> 15         0.00213
       4 -> 19         0.00171
       4 -> 22        -0.00317
       4 -> 25         0.00296
       4 -> 30         0.00031
       4 -> 33        -0.00021
       4 -> 35         0.00034
       4 -> 40         0.00042
       4 -> 42        -0.00013
       5 -> 10        -0.00858
       5 -> 11        -0.00569
       5 -> 14         0.00737
       5 -> 16        -0.00055
       5 -> 18         0.00407
       5 -> 20         0.00225
       5 -> 21         0.00559
       5 -> 24        -0.00090
       5 -> 26         0.00193
       5 -> 28         0.00096
       5 -> 32        -0.00106
       5 -> 34        -0.00098
       5 -> 36        -0.00020
       5 -> 39        -0.00017
       5 -> 41        -0.00054
       5 -> 43        -0.00043
       5 -> 45        -0.00012
       5 -> 54         0.00013
       6 -> 12        -0.00128
       6 -> 15         0.00129
       6 -> 19         0.00076
       6 -> 22        -0.00203
       6 -> 25         0.00085
       6 -> 30        -0.00048
       6 -> 33        -0.00032
       6 -> 35         0.00075
       6 -> 40         0.00012
       6 -> 42        -0.00014
       6 -> 49         0.00035
       6 -> 50        -0.00017
       7 -> 38        -0.00073
       8 -> 10         0.70304
       8 -> 11        -0.06805
       8 -> 14         0.02356
       8 -> 16        -0.00243
       8 -> 18         0.00629
       8 -> 20         0.01739
       8 -> 21        -0.00203
       8 -> 24         0.00015
       8 -> 26         0.00323
       8 -> 28         0.00139
       8 -> 32         0.00089
       8 -> 34         0.00050
       8 -> 36         0.00022
       8 -> 39         0.00029
       8 -> 41        -0.00028
       8 -> 43         0.00059
       8 -> 45        -0.00013
       8 -> 47         0.00019
       8 -> 51        -0.00024
       8 -> 54         0.00025
       3 <- 12         0.00038
       3 <- 15         0.00048
       3 <- 19         0.00053
       3 <- 22        -0.00055
       3 <- 25         0.00060
       3 <- 33         0.00024
       3 <- 35        -0.00052
       3 <- 40        -0.00029
       3 <- 49         0.00029
       4 <- 12         0.00077
       4 <- 15         0.00199
       4 <- 19         0.00162
       4 <- 22        -0.00203
       4 <- 25         0.00198
       4 <- 30         0.00021
       4 <- 35         0.00011
       4 <- 40         0.00010
       4 <- 42        -0.00022
       4 <- 50        -0.00014
       5 <- 10         0.00218
       5 <- 11        -0.00023
       5 <- 14         0.00448
       5 <- 16        -0.00044
       5 <- 18         0.00042
       5 <- 20         0.00058
       5 <- 21         0.00149
       5 <- 24        -0.00224
       5 <- 26         0.00134
       5 <- 28         0.00012
       5 <- 32        -0.00083
       5 <- 34        -0.00083
       5 <- 36        -0.00021
       5 <- 39        -0.00011
       5 <- 41        -0.00037
       5 <- 43        -0.00035
       5 <- 45        -0.00010
       6 <- 12        -0.00011
       6 <- 15        -0.00045
       6 <- 19         0.00088
       6 <- 22        -0.00023
       6 <- 25         0.00028
       6 <- 30         0.00049
       6 <- 33        -0.00037
       6 <- 35         0.00076
       6 <- 42        -0.00012
       6 <- 49         0.00027
       6 <- 50        -0.00020
       6 <- 53         0.00019
       7 <- 38        -0.00054
       8 <- 10        -0.00136
       8 <- 11        -0.00084
       8 <- 14        -0.00388
       8 <- 16        -0.00065
       8 <- 18        -0.00087
       8 <- 20        -0.00069
       8 <- 21        -0.00135
       8 <- 24         0.00147
       8 <- 26        -0.00093
       8 <- 28        -0.00032
       8 <- 32         0.00075
       8 <- 34        -0.00011
       8 <- 36         0.00031
       8 <- 39         0.00012
       8 <- 43         0.00033

 Excited State   3:      Singlet-B1     7.5659 eV  163.87 nm  f=0.0014  <S**2>=0.000
       3 ->  9        -0.03344
       3 -> 13         0.00396
       3 -> 17        -0.00652
       3 -> 23         0.00336
       3 -> 29        -0.00211
       3 -> 31        -0.00043
       3 -> 44         0.00054
       3 -> 48         0.00038
       3 -> 52         0.00112
       4 ->  9         0.01640
       4 -> 13        -0.00273
       4 -> 17         0.00082
       4 -> 23        -0.00249
       4 -> 29         0.00014
       4 -> 31        -0.00220
       4 -> 37        -0.00044
       4 -> 48        -0.00153
       4 -> 52        -0.00090
       5 -> 27        -0.00143
       5 -> 38         0.00202
       5 -> 46         0.00230
       6 ->  9         0.70552
       6 -> 13        -0.02965
       6 -> 17         0.02118
       6 -> 23        -0.01219
       6 -> 29         0.00688
       6 -> 31         0.00395
       6 -> 37        -0.00260
       6 -> 44        -0.00349
       6 -> 48         0.00526
       6 -> 52         0.00187
       7 -> 10         0.00086
       7 -> 11         0.00287
       7 -> 14        -0.00100
       7 -> 16        -0.01179
       7 -> 18         0.00160
       7 -> 20         0.00193
       7 -> 21         0.00268
       7 -> 24         0.00168
       7 -> 26         0.00092
       7 -> 28        -0.00473
       7 -> 32        -0.00125
       7 -> 34         0.00022
       7 -> 36        -0.00157
       7 -> 39         0.00019
       7 -> 41        -0.00172
       7 -> 43         0.00093
       7 -> 45         0.00465
       7 -> 47         0.00253
       7 -> 51         0.00112
       7 -> 54         0.00057
       8 -> 27         0.00221
       8 -> 38         0.00075
       8 -> 46         0.00665
       3 <-  9        -0.01058
       3 <- 13         0.00039
       3 <- 17        -0.00334
       3 <- 23         0.00020
       3 <- 29        -0.00133
       3 <- 31        -0.00034
       3 <- 37        -0.00012
       3 <- 44        -0.00017
       3 <- 48         0.00065
       3 <- 52         0.00090
       4 <-  9         0.00583
       4 <- 17         0.00246
       4 <- 23        -0.00029
       4 <- 29         0.00223
       4 <- 31        -0.00198
       4 <- 44         0.00020
       4 <- 48        -0.00132
       4 <- 52        -0.00050
       5 <- 27        -0.00158
       5 <- 38         0.00154
       5 <- 46         0.00204
       6 <-  9        -0.02180
       6 <- 13         0.00261
       6 <- 17        -0.00302
       6 <- 23         0.00030
       6 <- 29        -0.00243
       6 <- 31         0.00275
       6 <- 37        -0.00255
       6 <- 44        -0.00215
       6 <- 48         0.00463
       6 <- 52         0.00068
       7 <- 10         0.00223
       7 <- 11         0.00379
       7 <- 14         0.00142
       7 <- 16         0.00098
       7 <- 18         0.01186
       7 <- 20         0.00773
       7 <- 21         0.00680
       7 <- 24         0.00614
       7 <- 26         0.00346
       7 <- 28         0.00055
       7 <- 32        -0.00113
       7 <- 34         0.00151
       7 <- 36        -0.00253
       7 <- 39         0.00043
       7 <- 41        -0.00118
       7 <- 43         0.00088
       7 <- 45         0.00420
       7 <- 47         0.00210
       7 <- 51         0.00080
       7 <- 54         0.00105
       8 <- 27         0.00215
       8 <- 38         0.00081
       8 <- 46         0.00591

 Excited State   4:      Singlet-B2     7.6444 eV  162.19 nm  f=0.0286  <S**2>=0.000
       3 -> 12        -0.00037
       3 -> 15        -0.00125
       3 -> 19         0.00145
       3 -> 22         0.00055
       3 -> 25        -0.00011
       3 -> 30         0.00291
       3 -> 33         0.00018
       3 -> 35        -0.00083
       3 -> 40        -0.00068
       3 -> 49         0.00079
       3 -> 50        -0.00017
       4 -> 12         0.00217
       4 -> 15         0.00071
       4 -> 19         0.00130
       4 -> 22        -0.00149
       4 -> 25         0.00253
       4 -> 30        -0.00157
       4 -> 33         0.00048
       4 -> 35        -0.00062
       4 -> 49         0.00020
       5 -> 10        -0.00340
       5 -> 14         0.01081
       5 -> 16        -0.00620
       5 -> 18        -0.00059
       5 -> 20        -0.00433
       5 -> 21         0.00338
       5 -> 24        -0.00065
       5 -> 26         0.00190
       5 -> 28         0.00150
       5 -> 32         0.00018
       5 -> 34        -0.00066
       5 -> 36        -0.00055
       5 -> 39         0.00056
       5 -> 41        -0.00061
       5 -> 43         0.00024
       5 -> 45         0.00093
       5 -> 47         0.00017
       5 -> 51        -0.00046
       6 -> 12        -0.00253
       6 -> 15        -0.00103
       6 -> 19        -0.00074
       6 -> 22         0.00094
       6 -> 25         0.00017
       6 -> 30         0.00127
       6 -> 33        -0.00054
       6 -> 35         0.00150
       6 -> 40         0.00124
       6 -> 49        -0.00145
       6 -> 50         0.00022
       6 -> 53         0.00014
       7 -> 27         0.00044
       7 -> 38        -0.00074
       7 -> 46        -0.00233
       8 -> 10         0.06752
       8 -> 11         0.70235
       8 -> 14         0.00476
       8 -> 16         0.00877
       8 -> 18         0.04291
       8 -> 20        -0.00712
       8 -> 21        -0.00187
       8 -> 24         0.00150
       8 -> 28         0.00316
       8 -> 32         0.00012
       8 -> 34        -0.00024
       8 -> 36        -0.00044
       8 -> 39        -0.00026
       8 -> 41        -0.00096
       8 -> 43         0.00041
       8 -> 45         0.00285
       8 -> 47         0.00011
       8 -> 51        -0.00129
       3 <- 12         0.00033
       3 <- 15        -0.00041
       3 <- 19         0.00114
       3 <- 25         0.00011
       3 <- 30         0.00150
       3 <- 33         0.00028
       3 <- 35        -0.00080
       3 <- 40        -0.00063
       3 <- 49         0.00074
       3 <- 50        -0.00011
       3 <- 53        -0.00040
       4 <- 12         0.00023
       4 <- 15         0.00094
       4 <- 19         0.00022
       4 <- 22        -0.00121
       4 <- 25         0.00111
       4 <- 30        -0.00089
       4 <- 33         0.00046
       4 <- 35        -0.00038
       4 <- 49         0.00014
       5 <- 10         0.00106
       5 <- 11        -0.00152
       5 <- 14         0.00274
       5 <- 16        -0.00044
       5 <- 18        -0.00184
       5 <- 20        -0.00024
       5 <- 21         0.00098
       5 <- 24        -0.00143
       5 <- 26         0.00020
       5 <- 28         0.00060
       5 <- 32        -0.00068
       5 <- 34         0.00019
       5 <- 39         0.00014
       5 <- 41        -0.00065
       5 <- 43         0.00013
       5 <- 45         0.00092
       5 <- 51        -0.00031
       6 <- 12        -0.00023
       6 <- 15        -0.00148
       6 <- 19         0.00059
       6 <- 22         0.00120
       6 <- 25        -0.00016
       6 <- 30         0.00156
       6 <- 33        -0.00052
       6 <- 35         0.00139
       6 <- 40         0.00104
       6 <- 42         0.00010
       6 <- 49        -0.00120
       6 <- 50         0.00016
       6 <- 53         0.00016
       7 <- 27         0.00049
       7 <- 38        -0.00059
       7 <- 46        -0.00193
       8 <- 10        -0.00113
       8 <- 11        -0.00299
       8 <- 14        -0.00380
       8 <- 16         0.00031
       8 <- 18        -0.00626
       8 <- 20         0.00144
       8 <- 21        -0.00187
       8 <- 24        -0.00060
       8 <- 26        -0.00166
       8 <- 28         0.00083
       8 <- 32        -0.00149
       8 <- 34         0.00183
       8 <- 39        -0.00089
       8 <- 41        -0.00096
       8 <- 43         0.00017
       8 <- 45         0.00232
       8 <- 47        -0.00023
       8 <- 51        -0.00084

 Excited State   5:      Singlet-A1     7.7105 eV  160.80 nm  f=0.1284  <S**2>=0.000
       3 -> 10         0.00544
       3 -> 11         0.01415
       3 -> 14         0.00727
       3 -> 16        -0.00138
       3 -> 18         0.02415
       3 -> 20         0.00281
       3 -> 21         0.00666
       3 -> 24         0.00695
       3 -> 26         0.00919
       3 -> 28         0.00153
       3 -> 32         0.00317
       3 -> 34        -0.00394
       3 -> 36        -0.00206
       3 -> 39         0.00150
       3 -> 41         0.00021
       3 -> 43         0.00071
       3 -> 45         0.00183
       3 -> 47         0.00072
       3 -> 54         0.00028
       4 -> 10         0.02838
       4 -> 11        -0.01125
       4 -> 14         0.01683
       4 -> 16         0.00172
       4 -> 18        -0.00808
       4 -> 20         0.01010
       4 -> 21         0.00031
       4 -> 24        -0.00862
       4 -> 26         0.00636
       4 -> 28         0.00085
       4 -> 32        -0.00133
       4 -> 34         0.00324
       4 -> 36         0.00078
       4 -> 39        -0.00020
       4 -> 45        -0.00079
       4 -> 47        -0.00153
       5 -> 12         0.03398
       5 -> 15         0.03441
       5 -> 19         0.00323
       5 -> 22         0.00077
       5 -> 25         0.01456
       5 -> 30        -0.00351
       5 -> 33        -0.00313
       5 -> 35         0.00147
       5 -> 40         0.00164
       5 -> 42         0.00076
       5 -> 49         0.00059
       5 -> 50        -0.00042
       5 -> 53        -0.00038
       6 -> 10        -0.03163
       6 -> 11        -0.05203
       6 -> 14        -0.01870
       6 -> 16        -0.03175
       6 -> 18        -0.08995
       6 -> 20        -0.04350
       6 -> 21        -0.03155
       6 -> 24        -0.02780
       6 -> 26        -0.01455
       6 -> 28        -0.01178
       6 -> 32        -0.00020
       6 -> 34        -0.00338
       6 -> 36         0.00254
       6 -> 41        -0.00109
       6 -> 43         0.00035
       6 -> 45         0.00075
       6 -> 47         0.00177
       6 -> 51         0.00071
       6 -> 54        -0.00022
       7 ->  9         0.67928
       7 -> 13         0.02918
       7 -> 17        -0.02827
       7 -> 23         0.00826
       7 -> 29        -0.00557
       7 -> 31        -0.00130
       7 -> 44        -0.00075
       7 -> 48         0.00057
       7 -> 52         0.00098
       8 -> 12         0.05224
       8 -> 15         0.14853
       8 -> 19        -0.02461
       8 -> 22        -0.05040
       8 -> 25         0.00449
       8 -> 30        -0.01535
       8 -> 33         0.00627
       8 -> 35        -0.00769
       8 -> 40        -0.00292
       8 -> 42        -0.00038
       8 -> 49         0.00059
       8 -> 50         0.00043
       8 -> 53        -0.00107
       3 <- 10         0.00270
       3 <- 11         0.00816
       3 <- 14         0.00494
       3 <- 16        -0.00019
       3 <- 18         0.01519
       3 <- 20         0.00205
       3 <- 21         0.00539
       3 <- 24         0.00476
       3 <- 26         0.00596
       3 <- 28         0.00114
       3 <- 32         0.00280
       3 <- 34        -0.00249
       3 <- 36        -0.00142
       3 <- 39         0.00112
       3 <- 41         0.00015
       3 <- 43         0.00069
       3 <- 45         0.00191
       3 <- 47         0.00098
       3 <- 54         0.00030
       4 <- 10         0.01062
       4 <- 11        -0.00480
       4 <- 14         0.00690
       4 <- 16         0.00042
       4 <- 18        -0.00445
       4 <- 20         0.00575
       4 <- 24        -0.00492
       4 <- 26         0.00430
       4 <- 32        -0.00174
       4 <- 34         0.00245
       4 <- 36         0.00044
       4 <- 39        -0.00020
       4 <- 41        -0.00015
       4 <- 45        -0.00027
       4 <- 47        -0.00140

 The electronic state is 1-A1.
 Alpha  occ. eigenvalues --  -19.16002 -10.30014  -1.00845  -0.66641  -0.49271
 Alpha  occ. eigenvalues --   -0.44658  -0.37542  -0.28840
 Alpha virt. eigenvalues --   -0.09912   0.00326   0.03468   0.04183   0.06263
 Alpha virt. eigenvalues --    0.12218   0.16368   0.18833   0.21827   0.22951
 Alpha virt. eigenvalues --    0.23624   0.30421   0.41928   0.44122   0.50941

 Mulliken charges:
               1
     1  C   -0.011731
     2  H    0.144145
     3  H    0.144145
     4  O   -0.276558
 Sum of Mulliken charges =  -0.00000

 Dipole moment (field-independent basis, Debye):
    X=             -0.0000    Y=              0.0000    Z=             -3.0600  Tot=              3.0600
 Quadrupole moment (field-independent basis, Debye-Ang):
   XX=            -12.1590   YY=            -11.7434   ZZ=            -12.0516
   XY=              0.0000   XZ=              0.0000   YZ=             -0.0000

 Normal termination of Gaussian 16 at Fri Sep 17 10:52:47 2021.
