 Gaussian 16, Revision C.01,
 Gaussian 16:  ES64L-G16RevC.01  3-Jul-2019

 --------------------------------------
 #P wB97XD/6-311+G* NoSymm #P Field=Z+9
 --------------------------------------

 -------
 TitleMe
 -------
 Symbolic Z-matrix:
 Charge =  1 Multiplicity = 1

                          Input orientation:
 ---------------------------------------------------------------------
 Center     Atomic      Atomic             Coordinates (Angstroms)
 Number     Number       Type             X           Y           Z
 ---------------------------------------------------------------------
      1          6           0        0.519300    1.233000   -0.031900
      2          6           0        1.944500    1.269200   -0.036700
      3          6           0        2.620400    0.092800   -0.025000
      4          6           0       -0.196000    0.030100    0.001000
      5          1           0       -0.020700    2.174200   -0.043400
      6          1           0        2.482800    2.208900   -0.036100
      7          1           0       -1.277700    0.039900    0.011700
      8          7           0        4.092100    0.095900    0.036600
      9          8           0        4.639300   -1.021700    0.144600
     10          8           0        4.664900    1.198400   -0.023300
     11          6           0        0.494300   -1.167100    0.021000
     12          1           0       -0.032500   -2.114900    0.054500
     13          6           0        1.962900   -1.216500   -0.021100
     14          1           0        2.443600   -1.963100    0.615100
     15         35           0        2.173000   -1.949100   -1.906200
 ---------------------------------------------------------------------

 SCF Done:  E(RwB97XD) =  -3010.53219948     A.U. after   19 cycles

 Alpha  occ. eigenvalues -- -483.30879 -62.85897 -56.65595 -56.65020 -56.65009
 Alpha  occ. eigenvalues --  -19.46150 -19.46137 -14.85571 -10.59068 -10.57828
 Alpha  occ. eigenvalues --  -10.57138 -10.56791 -10.53230 -10.52595  -9.01700
 Alpha  occ. eigenvalues --   -6.84392  -6.82505  -6.82471  -2.94293  -2.93798
 Alpha  occ. eigenvalues --   -2.93770  -2.92260  -2.92259  -1.49834  -1.32795
 Alpha  occ. eigenvalues --   -1.22262  -1.12691  -1.12266  -1.04551  -1.00140
 Alpha  occ. eigenvalues --   -0.95183  -0.90425  -0.84834  -0.80784  -0.80015
 Alpha  occ. eigenvalues --   -0.79949  -0.77769  -0.76097  -0.75434  -0.71788
 Alpha  occ. eigenvalues --   -0.68374  -0.67416  -0.63145  -0.59619  -0.57319
 Alpha  occ. eigenvalues --   -0.56629  -0.55915  -0.55816  -0.54333
 Alpha virt. eigenvalues --   -0.29900  -0.20265  -0.15407  -0.12922  -0.08471
 Alpha virt. eigenvalues --   -0.06031  -0.05453  -0.04425  -0.04167  -0.03107
 Alpha virt. eigenvalues --   -0.02291  -0.01331  -0.01004  -0.00330   0.00724

 Mulliken charges:
               1
     1  C   -0.111874
     2  C    0.186553
     3  C   -0.073194
     4  C   -0.332840
     5  H    0.345207
     6  H    0.350068
     7  H    0.330345
     8  N   -0.241900
     9  O    0.088294
    10  O    0.069706
    11  C   -0.205165
    12  H    0.356350
    13  C   -0.361975
    14  H    0.408325
    15  Br   0.192100
 Sum of Mulliken charges =   1.00000

 Dipole moment (field-independent basis, Debye):
    X=              2.7950    Y=             -0.9416    Z=             -0.9124  Tot=              3.0872
 Quadrupole moment (field-independent basis, Debye-Ang):
   XX=            -67.8545   YY=            -51.0833   ZZ=            -61.9574
   XY=             -3.0429   XZ=             -2.8945   YZ=              2.6161

 Normal termination of Gaussian 16 at Thu May  2 14:19:18 2024.
