 Gaussian 16, Revision C.01,
 Gaussian 16:  ES64L-G16RevC.01  3-Jul-2019

 ----------------------------------------
 #P wB97XD/6-311+G* NoSymm #P Field=X-145
 ----------------------------------------

 -------
 TitleMe
 -------
 Symbolic Z-matrix:
 Charge =  1 Multiplicity = 1

                          Input orientation:
 ---------------------------------------------------------------------
 Center     Atomic      Atomic             Coordinates (Angstroms)
 Number     Number       Type             X           Y           Z
 ---------------------------------------------------------------------
      1          6           0        0.519300    1.233000   -0.031900
      2          6           0        1.944500    1.269200   -0.036700
      3          6           0        2.620400    0.092800   -0.025000
      4          6           0       -0.196000    0.030100    0.001000
      5          1           0       -0.020700    2.174200   -0.043400
      6          1           0        2.482800    2.208900   -0.036100
      7          1           0       -1.277700    0.039900    0.011700
      8          7           0        4.092100    0.095900    0.036600
      9          8           0        4.639300   -1.021700    0.144600
     10          8           0        4.664900    1.198400   -0.023300
     11          6           0        0.494300   -1.167100    0.021000
     12          1           0       -0.032500   -2.114900    0.054500
     13          6           0        1.962900   -1.216500   -0.021100
     14          1           0        2.443600   -1.963100    0.615100
     15         35           0        2.173000   -1.949100   -1.906200
 ---------------------------------------------------------------------

 SCF Done:  E(RwB97XD) =  -3010.55961273     A.U. after   25 cycles

 Alpha  occ. eigenvalues -- -483.26161 -62.81165 -56.60871 -56.60289 -56.60271
 Alpha  occ. eigenvalues --  -19.37283 -19.37191 -14.76859 -10.54056 -10.53255
 Alpha  occ. eigenvalues --  -10.52968 -10.52850 -10.49553 -10.47917  -8.96956
 Alpha  occ. eigenvalues --   -6.79666  -6.77760  -6.77705  -2.89562  -2.89067
 Alpha  occ. eigenvalues --   -2.89023  -2.87498  -2.87497  -1.40985  -1.23837
 Alpha  occ. eigenvalues --   -1.17653  -1.08253  -1.07278  -0.99707  -0.94580
 Alpha  occ. eigenvalues --   -0.90798  -0.85646  -0.79559  -0.75406  -0.73998
 Alpha  occ. eigenvalues --   -0.73146  -0.72030  -0.70598  -0.67647  -0.66820
 Alpha  occ. eigenvalues --   -0.64461  -0.62835  -0.59028  -0.54739  -0.51002
 Alpha  occ. eigenvalues --   -0.50178  -0.48125  -0.46686  -0.46499
 Alpha virt. eigenvalues --   -0.25307  -0.14365  -0.10881  -0.10124  -0.06975
 Alpha virt. eigenvalues --   -0.06733  -0.04605  -0.03035  -0.01629  -0.00389
 Alpha virt. eigenvalues --    0.00618   0.01226   0.02440   0.03385   0.04717

 Mulliken charges:
               1
     1  C   -0.098236
     2  C    0.160128
     3  C    0.011056
     4  C   -0.314846
     5  H    0.307003
     6  H    0.368679
     7  H    0.256937
     8  N   -0.242995
     9  O    0.144594
    10  O    0.139670
    11  C   -0.280403
    12  H    0.320133
    13  C   -0.419352
    14  H    0.429414
    15  Br   0.218219
 Sum of Mulliken charges =   1.00000

 Dipole moment (field-independent basis, Debye):
    X=              6.9532    Y=             -1.1197    Z=             -0.9636  Tot=              7.1084
 Quadrupole moment (field-independent basis, Debye-Ang):
   XX=            -51.8956   YY=            -50.9235   ZZ=            -61.7646
   XY=             -3.9386   XZ=             -3.7182   YZ=              2.9645

 Normal termination of Gaussian 16 at Thu May  2 14:24:06 2024.
