 Gaussian 16, Revision C.01,
 Gaussian 16:  ES64L-G16RevC.01  3-Jul-2019

 ----------------------------------------
 #P wB97XD/6-311+G* NoSymm #P Field=Y-184
 ----------------------------------------

 -------
 TitleMe
 -------
 Symbolic Z-matrix:
 Charge =  1 Multiplicity = 1

                          Input orientation:
 ---------------------------------------------------------------------
 Center     Atomic      Atomic             Coordinates (Angstroms)
 Number     Number       Type             X           Y           Z
 ---------------------------------------------------------------------
      1          6           0        0.029500    1.339700    0.068200
      2          6           0        1.434800    1.286700    0.006400
      3          6           0        2.111800    0.051100   -0.005400
      4          6           0        1.445100   -1.137200    0.031200
      5          6           0       -0.687900    0.168200    0.110000
      6          1           0       -0.471300    2.298400    0.078100
      7          1           0        2.027300    2.196500   -0.032200
      8          1           0        1.989700   -2.076400    0.023200
      9          1           0       -1.771600    0.180400    0.158200
     10          7           0        3.586400    0.051000   -0.067500
     11          8           0        4.147100   -1.059700   -0.088100
     12          8           0        4.145000    1.163900   -0.090100
     13          6           0       -0.023600   -1.145800    0.083500
     14          1           0       -0.436700   -1.872500    0.788900
     15         35           0       -0.535900   -1.869700   -1.740800
 ---------------------------------------------------------------------

 SCF Done:  E(RwB97XD) =  -3010.55024165     A.U. after   21 cycles

 Alpha  occ. eigenvalues -- -483.34227 -62.89283 -56.68930 -56.68422 -56.68419
 Alpha  occ. eigenvalues --  -19.46543 -19.46118 -14.85752 -10.60769 -10.58112
 Alpha  occ. eigenvalues --  -10.58035 -10.57247 -10.56717 -10.52094  -9.05112
 Alpha  occ. eigenvalues --   -6.87663  -6.85986  -6.85977  -2.97597  -2.97148
 Alpha  occ. eigenvalues --   -2.97140  -2.95797  -2.95797  -1.50059  -1.33027
 Alpha  occ. eigenvalues --   -1.23550  -1.15474  -1.11957  -1.06641  -1.01438
 Alpha  occ. eigenvalues --   -0.96279  -0.91465  -0.85733  -0.81360  -0.81029
 Alpha  occ. eigenvalues --   -0.80475  -0.79377  -0.76462  -0.76037  -0.73601
 Alpha  occ. eigenvalues --   -0.69466  -0.67374  -0.64330  -0.61958  -0.59979
 Alpha  occ. eigenvalues --   -0.57612  -0.57110  -0.56508  -0.55861
 Alpha virt. eigenvalues --   -0.30643  -0.21816  -0.17899  -0.16658  -0.13741
 Alpha virt. eigenvalues --   -0.12012  -0.11757  -0.08348  -0.07072  -0.06753
 Alpha virt. eigenvalues --   -0.05524  -0.04732  -0.03239  -0.02848  -0.01579

 Mulliken charges:
               1
     1  C   -0.535441
     2  C    0.437642
     3  C   -0.632702
     4  C    0.267938
     5  C    0.049492
     6  H    0.405734
     7  H    0.429436
     8  H    0.309247
     9  H    0.356654
    10  N   -0.109668
    11  O   -0.060514
    12  O    0.134939
    13  C   -0.463233
    14  H    0.356348
    15  Br   0.054129
 Sum of Mulliken charges =   1.00000

 Dipole moment (field-independent basis, Debye):
    X=             -0.1643    Y=              4.7102    Z=              0.6536  Tot=              4.7581
 Quadrupole moment (field-independent basis, Debye-Ang):
   XX=            -70.1503   YY=            -54.8447   ZZ=            -64.2292
   XY=              7.2192   XZ=              0.5241   YZ=             -0.7715

 Normal termination of Gaussian 16 at Wed May  1 15:06:53 2024.
