 Gaussian 16, Revision C.01,
 Gaussian 16:  ES64L-G16RevC.01  3-Jul-2019

 ----------------------------------------
 #P wB97XD/6-311+G* NoSymm #P Field=X-116
 ----------------------------------------

 -------
 TitleMe
 -------
 Symbolic Z-matrix:
 Charge =  1 Multiplicity = 1

                          Input orientation:
 ---------------------------------------------------------------------
 Center     Atomic      Atomic             Coordinates (Angstroms)
 Number     Number       Type             X           Y           Z
 ---------------------------------------------------------------------
      1          6           0        0.029500    1.339700    0.068200
      2          6           0        1.434800    1.286700    0.006400
      3          6           0        2.111800    0.051100   -0.005400
      4          6           0        1.445100   -1.137200    0.031200
      5          6           0       -0.687900    0.168200    0.110000
      6          1           0       -0.471300    2.298400    0.078100
      7          1           0        2.027300    2.196500   -0.032200
      8          1           0        1.989700   -2.076400    0.023200
      9          1           0       -1.771600    0.180400    0.158200
     10          7           0        3.586400    0.051000   -0.067500
     11          8           0        4.147100   -1.059700   -0.088100
     12          8           0        4.145000    1.163900   -0.090100
     13          6           0       -0.023600   -1.145800    0.083500
     14          1           0       -0.436700   -1.872500    0.788900
     15         35           0       -0.535900   -1.869700   -1.740800
 ---------------------------------------------------------------------

 SCF Done:  E(RwB97XD) =  -3010.53947311     A.U. after   22 cycles

 Alpha  occ. eigenvalues -- -483.30429 -62.85471 -56.65140 -56.64601 -56.64598
 Alpha  occ. eigenvalues --  -19.39806 -19.39737 -14.79416 -10.57225 -10.55371
 Alpha  occ. eigenvalues --  -10.55293 -10.54478 -10.54135 -10.51740  -9.01289
 Alpha  occ. eigenvalues --   -6.83903  -6.82130  -6.82117  -2.93823  -2.93350
 Alpha  occ. eigenvalues --   -2.93338  -2.91920  -2.91920  -1.43570  -1.26474
 Alpha  occ. eigenvalues --   -1.20663  -1.11989  -1.09747  -1.03121  -0.97710
 Alpha  occ. eigenvalues --   -0.93571  -0.88504  -0.82545  -0.78359  -0.77061
 Alpha  occ. eigenvalues --   -0.75794  -0.74710  -0.73714  -0.70654  -0.69856
 Alpha  occ. eigenvalues --   -0.67635  -0.65515  -0.61773  -0.58569  -0.55909
 Alpha  occ. eigenvalues --   -0.54054  -0.50801  -0.49551  -0.49291
 Alpha virt. eigenvalues --   -0.27977  -0.17410  -0.14506  -0.11257  -0.09947
 Alpha virt. eigenvalues --   -0.07807  -0.06297  -0.05869  -0.03364  -0.02337
 Alpha virt. eigenvalues --   -0.01932  -0.00790  -0.00672  -0.00290   0.00287

 Mulliken charges:
               1
     1  C   -0.543377
     2  C    0.462449
     3  C   -0.670098
     4  C    0.323535
     5  C   -0.024470
     6  H    0.309549
     7  H    0.386477
     8  H    0.390627
     9  H    0.296542
    10  N   -0.113585
    11  O    0.084533
    12  O    0.081876
    13  C   -0.482909
    14  H    0.385068
    15  Br   0.113785
 Sum of Mulliken charges =   1.00000

 Dipole moment (field-independent basis, Debye):
    X=              2.6519    Y=             -0.2017    Z=              0.2577  Tot=              2.6720
 Quadrupole moment (field-independent basis, Debye-Ang):
   XX=            -63.2608   YY=            -52.3965   ZZ=            -63.5024
   XY=              0.7064   XZ=              0.2127   YZ=              0.8707

 Normal termination of Gaussian 16 at Wed May  1 14:49:17 2024.
