 Gaussian 16, Revision A.03,
 Gaussian 16:  ES64L-G16RevA.03 25-Dec-2016

 --------------------------------------------------------------------
 #p B3LYP/6-311+G** #p TD=(singlets,nstates=30)IOp(6/8=3) IOp(9/40=4)
 --------------------------------------------------------------------

 ---------------------------------------------
 Scan Step 276, Bond Length 1.8800000000000001
 ---------------------------------------------
 Symbolic Z-matrix:
 Charge =  0 Multiplicity = 1

                         Standard orientation:
 ---------------------------------------------------------------------
 Center     Atomic      Atomic             Coordinates (Angstroms)
 Number     Number       Type             X           Y           Z
 ---------------------------------------------------------------------
      1          6           0        0.000000   -0.000000   -0.866081
      2          1           0        0.000000    0.937260   -1.457431
      3          1           0       -0.000000   -0.937260   -1.457431
      4          8           0        0.000000    0.000000    1.013919
 ---------------------------------------------------------------------

 SCF Done:  E(RB3LYP) =  -114.331014100     A.U. after   12 cycles

 Excitation energies and oscillator strengths:

 Excited State   1:      Singlet-A2     1.1864 eV 1045.05 nm  f=0.0000  <S**2>=0.000
       3 -> 27         0.00065
       3 -> 38         0.00039
       3 -> 46         0.00332
       4 -> 27         0.00034
       4 -> 46        -0.00089
       5 ->  9         0.00097
       5 -> 13         0.00108
       5 -> 18         0.00153
       5 -> 23         0.00129
       5 -> 28         0.00115
       5 -> 37         0.00066
       5 -> 44         0.00019
       5 -> 52         0.00015
       6 -> 27        -0.00055
       6 -> 38        -0.00052
       6 -> 46         0.00087
       7 -> 12        -0.00135
       7 -> 16         0.00536
       7 -> 19        -0.00480
       7 -> 22        -0.00114
       7 -> 25        -0.00051
       7 -> 29        -0.00197
       7 -> 33         0.00026
       7 -> 49         0.00013
       7 -> 53         0.00037
       8 ->  9         0.71136
       8 -> 13        -0.00598
       8 -> 18         0.02060
       8 -> 23        -0.00066
       8 -> 28         0.01007
       8 -> 31         0.00161
       8 -> 37         0.00047
       8 -> 47        -0.00028
       8 -> 52         0.00183
       3 <- 27         0.00016
       3 <- 38         0.00018
       3 <- 46         0.00334
       4 <- 27         0.00064
       4 <- 38         0.00018
       4 <- 46        -0.00068
       5 <-  9         0.00047
       5 <- 13        -0.00031
       5 <- 18        -0.00033
       5 <- 23         0.00015
       5 <- 28        -0.00025
       5 <- 31         0.00020
       5 <- 37         0.00038
       6 <- 38        -0.00039
       6 <- 46         0.00063
       7 <- 12         0.00200
       7 <- 16        -0.01053
       7 <- 19         0.00588
       7 <- 22         0.00545
       7 <- 25        -0.00064
       7 <- 29         0.00564
       7 <- 33        -0.00034
       7 <- 49        -0.00048
       7 <- 53         0.00144
       8 <-  9        -0.07988
       8 <- 13        -0.00057
       8 <- 18        -0.00788
       8 <- 23        -0.00040
       8 <- 28        -0.00279
       8 <- 31        -0.00084
       8 <- 37        -0.00017
       8 <- 47         0.00013
       8 <- 52         0.00042
 This state for optimization and/or second-order correction.
 Total Energy, E(TD-HF/TD-DFT) =  -114.287415039
 Copying the excited state density for this state as the 1-particle RhoCI density.

 Excited State   2:      Singlet-A1     3.1183 eV  397.61 nm  f=0.0259  <S**2>=0.000
       3 -> 10        -0.01327
       3 -> 11        -0.00252
       3 -> 14         0.00070
       3 -> 15         0.00022
       3 -> 17        -0.00297
       3 -> 20        -0.00336
       3 -> 21         0.00058
       3 -> 24         0.00030
       3 -> 26         0.00101
       3 -> 30        -0.00022
       3 -> 32         0.00271
       3 -> 34         0.00099
       3 -> 36        -0.00093
       3 -> 39        -0.00036
       3 -> 43         0.00049
       3 -> 45        -0.00112
       3 -> 48         0.00231
       3 -> 50         0.00161
       3 -> 54        -0.00011
       4 -> 10        -0.00080
       4 -> 11         0.00971
       4 -> 14         0.00157
       4 -> 15        -0.00733
       4 -> 17         0.00206
       4 -> 20         0.00178
       4 -> 21         0.00023
       4 -> 24        -0.00367
       4 -> 26         0.00299
       4 -> 30         0.00017
       4 -> 32        -0.00113
       4 -> 34        -0.00070
       4 -> 39        -0.00024
       4 -> 43        -0.00043
       4 -> 45         0.00076
       4 -> 48        -0.00071
       4 -> 50        -0.00025
       4 -> 54         0.00014
       5 -> 12         0.00869
       5 -> 16         0.00189
       5 -> 19         0.00106
       5 -> 22         0.00651
       5 -> 25        -0.00409
       5 -> 29         0.00034
       5 -> 33        -0.00232
       5 -> 35         0.00271
       5 -> 40        -0.00092
       5 -> 42        -0.00099
       5 -> 51        -0.00088
       6 -> 10         0.25783
       6 -> 11         0.03241
       6 -> 14        -0.03584
       6 -> 15        -0.02046
       6 -> 17        -0.01501
       6 -> 20        -0.00077
       6 -> 21         0.00456
       6 -> 24        -0.00717
       6 -> 26        -0.00274
       6 -> 30        -0.00307
       6 -> 32         0.00452
       6 -> 34         0.00137
       6 -> 36         0.00063
       6 -> 39        -0.00144
       6 -> 43         0.00079
       6 -> 45        -0.00092
       6 -> 48         0.00073
       6 -> 50         0.00050
       6 -> 54        -0.00098
       7 ->  9         0.67450
       7 -> 13        -0.00754
       7 -> 18        -0.00932
       7 -> 23        -0.00286
       7 -> 28         0.00151
       7 -> 31        -0.00329
       7 -> 37         0.00135
       7 -> 44        -0.00096
       7 -> 52         0.00105
       8 -> 12        -0.00724
       8 -> 16         0.03280
       8 -> 19        -0.01752
       8 -> 22        -0.01096
       8 -> 29        -0.00741
       8 -> 33         0.00086
       8 -> 35        -0.00055
       8 -> 40         0.00019
       8 -> 42         0.00020
       8 -> 51         0.00013
       8 -> 53        -0.00049
       3 <- 10        -0.01072
       3 <- 11        -0.00238
       3 <- 14         0.00058
       3 <- 15        -0.00023
       3 <- 17        -0.00173
       3 <- 20        -0.00298
       3 <- 21         0.00014
       3 <- 24        -0.00016
       3 <- 26         0.00016
       3 <- 30         0.00014
       3 <- 32         0.00231
       3 <- 34         0.00051
       3 <- 36        -0.00097
       3 <- 39        -0.00030
       3 <- 43         0.00053
       3 <- 45        -0.00124
       3 <- 48         0.00232
       3 <- 50         0.00162
       4 <- 10         0.00061
       4 <- 11         0.00732
       4 <- 14         0.00133
       4 <- 15        -0.00516
       4 <- 17         0.00128
       4 <- 20         0.00233
       4 <- 24        -0.00285
       4 <- 26         0.00270
       4 <- 30        -0.00037
       4 <- 32        -0.00114
       4 <- 34        -0.00060
       4 <- 36         0.00032
       4 <- 39        -0.00028
       4 <- 43        -0.00039
       4 <- 45         0.00068
       4 <- 48        -0.00043
       4 <- 50        -0.00012
       4 <- 54         0.00012
       5 <- 12         0.00546
       5 <- 16         0.00133
       5 <- 19         0.00088
       5 <- 22         0.00480
       5 <- 25        -0.00327
       5 <- 29         0.00035
       5 <- 33        -0.00196
       5 <- 35         0.00237
       5 <- 40        -0.00085
       5 <- 42        -0.00089
       5 <- 51        -0.00083
       6 <- 10         0.08967
       6 <- 11         0.01415
       6 <- 14        -0.01811
       6 <- 15        -0.01137
       6 <- 17        -0.00939
       6 <- 20        -0.00181
       6 <- 21         0.00331
       6 <- 24        -0.00482
       6 <- 26        -0.00131
       6 <- 30        -0.00181
       6 <- 32         0.00428
       6 <- 34         0.00153
       6 <- 36         0.00013
       6 <- 39        -0.00129
       6 <- 43         0.00066
       6 <- 45        -0.00067
       6 <- 48         0.00041
       6 <- 50         0.00036
       6 <- 54        -0.00091
       7 <-  9        -0.13051
       7 <- 13         0.00276
       7 <- 18        -0.01084
       7 <- 23         0.00042
       7 <- 28        -0.00140
       7 <- 31        -0.00159
       7 <- 37         0.00065
       7 <- 44        -0.00082
       7 <- 47        -0.00044
       7 <- 52         0.00097
       8 <- 12        -0.00323
       8 <- 16         0.01736
       8 <- 19        -0.01059
       8 <- 22        -0.00750
       8 <- 25         0.00013
       8 <- 29        -0.00605
       8 <- 33         0.00069
       8 <- 35        -0.00043
       8 <- 40         0.00015
       8 <- 42         0.00016
       8 <- 51         0.00011
       8 <- 53        -0.00046

 Excited State   3:      Singlet-B2     3.3102 eV  374.55 nm  f=0.0019  <S**2>=0.000
       3 -> 12        -0.00114
       3 -> 16         0.00112
       3 -> 19        -0.00371
       3 -> 22         0.00110
       3 -> 25        -0.00088
       3 -> 29        -0.00243
       3 -> 33         0.00028
       3 -> 35         0.00126
       3 -> 40        -0.00119
       3 -> 42        -0.00044
       3 -> 49        -0.00395
       3 -> 51         0.00016
       3 -> 53         0.00026
       4 -> 12         0.00036
       4 -> 16        -0.00134
       4 -> 19         0.00033
       4 -> 22         0.00163
       4 -> 25         0.00055
       4 -> 29         0.00081
       4 -> 33        -0.00031
       4 -> 35         0.00041
       4 -> 40         0.00025
       4 -> 42         0.00011
       4 -> 49         0.00073
       5 -> 10         0.00960
       5 -> 11         0.00109
       5 -> 14        -0.00287
       5 -> 15         0.00290
       5 -> 17        -0.00052
       5 -> 20         0.00191
       5 -> 21         0.00277
       5 -> 24         0.00135
       5 -> 26        -0.00041
       5 -> 30        -0.00211
       5 -> 32        -0.00100
       5 -> 34        -0.00019
       5 -> 39         0.00060
       5 -> 41         0.00038
       5 -> 48        -0.00035
       5 -> 50         0.00023
       5 -> 54        -0.00018
       6 -> 12         0.00242
       6 -> 16        -0.00281
       6 -> 19         0.00422
       6 -> 22        -0.00066
       6 -> 25         0.00115
       6 -> 29         0.00026
       6 -> 33        -0.00017
       6 -> 35        -0.00114
       6 -> 40         0.00073
       6 -> 42         0.00061
       6 -> 49         0.00112
       6 -> 53        -0.00045
       7 -> 27        -0.00050
       7 -> 38         0.00030
       7 -> 46         0.00290
       8 -> 10         0.70458
       8 -> 11         0.05154
       8 -> 14        -0.04885
       8 -> 15        -0.02025
       8 -> 17        -0.01647
       8 -> 20         0.00568
       8 -> 21         0.00550
       8 -> 24        -0.00550
       8 -> 26        -0.00416
       8 -> 30        -0.01336
       8 -> 32        -0.00011
       8 -> 34        -0.00107
       8 -> 36         0.00160
       8 -> 39         0.00042
       8 -> 41        -0.00017
       8 -> 45        -0.00079
       8 -> 48        -0.00357
       8 -> 50         0.00131
       8 -> 54        -0.00247
       3 <- 12        -0.00040
       3 <- 16         0.00040
       3 <- 19        -0.00185
       3 <- 22         0.00091
       3 <- 25        -0.00079
       3 <- 29        -0.00099
       3 <- 33         0.00027
       3 <- 35         0.00082
       3 <- 40        -0.00103
       3 <- 42        -0.00028
       3 <- 49        -0.00401
       3 <- 51         0.00015
       3 <- 53         0.00070
       4 <- 12         0.00011
       4 <- 16        -0.00162
       4 <- 19         0.00019
       4 <- 22         0.00199
       4 <- 25         0.00029
       4 <- 29         0.00106
       4 <- 33        -0.00032
       4 <- 35         0.00059
       4 <- 40         0.00010
       4 <- 49         0.00051
       5 <- 10        -0.00094
       5 <- 11        -0.00056
       5 <- 14        -0.00042
       5 <- 15         0.00231
       5 <- 17         0.00019
       5 <- 20         0.00077
       5 <- 21         0.00155
       5 <- 24         0.00151
       5 <- 30        -0.00046
       5 <- 32        -0.00026
       5 <- 39         0.00029
       5 <- 41         0.00041
       5 <- 45        -0.00020
       5 <- 48        -0.00036
       5 <- 50         0.00012
       6 <- 12        -0.00091
       6 <- 16         0.00797
       6 <- 19        -0.00442
       6 <- 22        -0.00520
       6 <- 25         0.00129
       6 <- 29        -0.00617
       6 <- 33         0.00018
       6 <- 35        -0.00095
       6 <- 40         0.00072
       6 <- 42         0.00061
       6 <- 49         0.00164
       6 <- 53        -0.00143
       7 <- 27        -0.00051
       7 <- 38         0.00024
       7 <- 46         0.00251
       8 <- 10        -0.04830
       8 <- 11        -0.00717
       8 <- 14         0.00724
       8 <- 15         0.00221
       8 <- 17         0.00226
       8 <- 20        -0.00339
       8 <- 21        -0.00119
       8 <- 24         0.00147
       8 <- 26         0.00109
       8 <- 30         0.00220
       8 <- 32         0.00255
       8 <- 34         0.00080
       8 <- 36        -0.00085
       8 <- 39        -0.00097
       8 <- 41         0.00018
       8 <- 43         0.00037
       8 <- 45        -0.00150
       8 <- 48        -0.00297
       8 <- 50         0.00113
       8 <- 54        -0.00066

 Excited State   4:      Singlet-B1     3.5397 eV  350.27 nm  f=0.0000  <S**2>=0.000
       3 ->  9        -0.02132
       3 -> 13         0.00072
       3 -> 18        -0.00366
       3 -> 23         0.00118
       3 -> 28        -0.00121
       3 -> 31        -0.00096
       3 -> 37         0.00017
       3 -> 44         0.00032
       3 -> 47        -0.00040
       3 -> 52         0.00062
       4 ->  9         0.00171
       4 -> 13        -0.00061
       4 -> 18         0.00021
       4 -> 23        -0.00060
       4 -> 28         0.00064
       4 -> 31        -0.00102
       4 -> 37        -0.00016
       4 -> 47        -0.00022
       4 -> 52        -0.00022
       5 -> 27        -0.00110
       5 -> 38         0.00084
       5 -> 46         0.00039
       6 ->  9         0.58739
       6 -> 13        -0.01505
       6 -> 18         0.01305
       6 -> 23        -0.00915
       6 -> 28         0.00375
       6 -> 31         0.00132
       6 -> 37        -0.00088
       6 -> 44        -0.00136
       6 -> 47         0.00289
       6 -> 52         0.00067
       7 -> 10         0.39792
       7 -> 11         0.03125
       7 -> 14        -0.03075
       7 -> 15        -0.01279
       7 -> 17        -0.01160
       7 -> 20         0.00410
       7 -> 21         0.00232
       7 -> 24        -0.00464
       7 -> 26        -0.00389
       7 -> 30        -0.00657
       7 -> 32         0.00083
       7 -> 34        -0.00013
       7 -> 36         0.00118
       7 -> 39        -0.00010
       7 -> 41        -0.00015
       7 -> 43         0.00048
       7 -> 45        -0.00088
       7 -> 48         0.00335
       7 -> 50         0.00113
       7 -> 54        -0.00066
       8 -> 27         0.00012
       8 -> 46         0.00408
       3 <-  9        -0.00709
       3 <- 13        -0.00068
       3 <- 18        -0.00240
       3 <- 23        -0.00035
       3 <- 28        -0.00073
       3 <- 31        -0.00075
       3 <- 37         0.00012
       3 <- 47        -0.00033
       3 <- 52         0.00068
       4 <-  9         0.00192
       4 <- 13         0.00016
       4 <- 18         0.00127
       4 <- 28         0.00145
       4 <- 31        -0.00076
       4 <- 44        -0.00027
       4 <- 47        -0.00025
       5 <- 27        -0.00127
       5 <- 38         0.00077
       5 <- 46         0.00035
       6 <-  9        -0.05181
       6 <- 13         0.00231
       6 <- 18        -0.00592
       6 <- 23         0.00052
       6 <- 28        -0.00419
       6 <- 31        -0.00108
       6 <- 37        -0.00059
       6 <- 47         0.00270
       6 <- 52        -0.00037
       7 <- 10        -0.05944
       7 <- 11        -0.00897
       7 <- 14         0.01238
       7 <- 15         0.00701
       7 <- 17         0.00351
       7 <- 20         0.00125
       7 <- 21        -0.00313
       7 <- 24         0.00350
       7 <- 26         0.00178
       7 <- 30         0.00231
       7 <- 32         0.00016
       7 <- 34         0.00050
       7 <- 36         0.00057
       7 <- 39        -0.00053
       7 <- 41         0.00023
       7 <- 43         0.00027
       7 <- 45        -0.00059
       7 <- 48         0.00309
       7 <- 50         0.00132
       7 <- 54         0.00055
       8 <- 27         0.00050
       8 <- 46         0.00377

 Excited State   5:      Singlet-B1     4.0851 eV  303.50 nm  f=0.0063  <S**2>=0.000
       3 ->  9         0.00116
       3 -> 13        -0.00010
       3 -> 18        -0.00107
       3 -> 23         0.00010
       3 -> 28        -0.00210
       3 -> 31        -0.00115
       3 -> 44        -0.00011
       3 -> 47        -0.00328
       3 -> 52        -0.00033
       4 ->  9        -0.02973
       4 -> 13         0.00596
       4 -> 18         0.00072
       4 -> 23         0.00471
       4 -> 28         0.00070
       4 -> 31         0.00061
       4 -> 37         0.00035
       4 -> 44        -0.00040
       4 -> 47         0.00094
       4 -> 52         0.00020
       5 -> 27        -0.00598
       5 -> 38        -0.00367
       6 ->  9        -0.39638
       6 -> 13         0.00626
       6 -> 18        -0.00243
       6 -> 23         0.00425
       6 -> 28         0.00203
       6 -> 31        -0.00422
       6 -> 37         0.00266
       6 -> 44         0.00115
       6 -> 47        -0.00118
       6 -> 52        -0.00099
       7 -> 10         0.58251
       7 -> 11         0.03568
       7 -> 14        -0.03626
       7 -> 15        -0.02373
       7 -> 17        -0.00669
       7 -> 20        -0.00214
       7 -> 21         0.00230
       7 -> 24        -0.00780
       7 -> 26        -0.00441
       7 -> 30        -0.00664
       7 -> 32        -0.00057
       7 -> 34        -0.00344
       7 -> 36        -0.00141
       7 -> 39         0.00062
       7 -> 43         0.00037
       7 -> 45        -0.00075
       7 -> 54        -0.00163
       8 -> 27         0.00050
       8 -> 38         0.00018
       3 <-  9         0.00075
       3 <- 13         0.00085
       3 <- 18        -0.00017
       3 <- 23         0.00066
       3 <- 28        -0.00153
       3 <- 37        -0.00029
       3 <- 44        -0.00020
       3 <- 47        -0.00339
       4 <-  9        -0.01476
       4 <- 13         0.00294
       4 <- 23         0.00296
       4 <- 28         0.00057
       4 <- 31         0.00040
       4 <- 37         0.00035
       4 <- 44        -0.00054
       4 <- 47         0.00055
       4 <- 52         0.00015
       5 <- 27        -0.00436
       5 <- 38        -0.00309
       6 <-  9        -0.02077
       6 <- 13        -0.00075
       6 <- 18        -0.00237
       6 <- 23         0.00058
       6 <- 28         0.00067
       6 <- 31        -0.00475
       6 <- 37         0.00254
       6 <- 44         0.00094
       6 <- 47        -0.00048
       6 <- 52        -0.00127
       7 <- 10        -0.00741
       7 <- 11        -0.00054
       7 <- 14        -0.00090
       7 <- 15        -0.00603
       7 <- 20        -0.00496
       7 <- 21        -0.00042
       7 <- 24        -0.00306
       7 <- 26        -0.00048
       7 <- 30        -0.00042
       7 <- 32         0.00115
       7 <- 34        -0.00213
       7 <- 36        -0.00242
       7 <- 43         0.00043

 The electronic state is 1-A1.
 Alpha  occ. eigenvalues --  -19.17786 -10.34132  -0.88712  -0.71716  -0.49345
 Alpha  occ. eigenvalues --   -0.38333  -0.30341  -0.28634
 Alpha virt. eigenvalues --   -0.17612  -0.08660  -0.00171   0.04037   0.06087
 Alpha virt. eigenvalues --    0.06246   0.11635   0.13122   0.18665   0.20932
 Alpha virt. eigenvalues --    0.23918   0.30423   0.38488   0.39350   0.50525

 Mulliken charges:
               1
     1  C   -0.103753
     2  H    0.193687
     3  H    0.193687
     4  O   -0.283622
 Sum of Mulliken charges =   0.00000

 Dipole moment (field-independent basis, Debye):
    X=             -0.0000    Y=              0.0000    Z=             -4.2612  Tot=              4.2612
 Quadrupole moment (field-independent basis, Debye-Ang):
   XX=            -13.0817   YY=            -12.0717   ZZ=            -10.4892
   XY=              0.0000   XZ=              0.0000   YZ=              0.0000

 Normal termination of Gaussian 16 at Fri Sep 17 10:53:12 2021.
