 Gaussian 16, Revision C.01,
 Gaussian 16:  ES64L-G16RevC.01  3-Jul-2019

 ---------------------------------------
 #P wB97XD/6-311+G* NoSymm #P Field=X-58
 ---------------------------------------

 -------
 TitleMe
 -------
 Symbolic Z-matrix:
 Charge =  1 Multiplicity = 1

                          Input orientation:
 ---------------------------------------------------------------------
 Center     Atomic      Atomic             Coordinates (Angstroms)
 Number     Number       Type             X           Y           Z
 ---------------------------------------------------------------------
      1          6           0        0.519300    1.233000   -0.031900
      2          6           0        1.944500    1.269200   -0.036700
      3          6           0        2.620400    0.092800   -0.025000
      4          6           0       -0.196000    0.030100    0.001000
      5          1           0       -0.020700    2.174200   -0.043400
      6          1           0        2.482800    2.208900   -0.036100
      7          1           0       -1.277700    0.039900    0.011700
      8          7           0        4.092100    0.095900    0.036600
      9          8           0        4.639300   -1.021700    0.144600
     10          8           0        4.664900    1.198400   -0.023300
     11          6           0        0.494300   -1.167100    0.021000
     12          1           0       -0.032500   -2.114900    0.054500
     13          6           0        1.962900   -1.216500   -0.021100
     14          1           0        2.443600   -1.963100    0.615100
     15         35           0        2.173000   -1.949100   -1.906200
 ---------------------------------------------------------------------

 SCF Done:  E(RwB97XD) =  -3010.54013789     A.U. after   22 cycles

 Alpha  occ. eigenvalues -- -483.29054 -62.84069 -56.63769 -56.63192 -56.63179
 Alpha  occ. eigenvalues --  -19.42574 -19.42552 -14.82075 -10.57072 -10.55869
 Alpha  occ. eigenvalues --  -10.55603 -10.55312 -10.51387 -10.51086  -8.99868
 Alpha  occ. eigenvalues --   -6.82564  -6.80674  -6.80634  -2.92464  -2.91969
 Alpha  occ. eigenvalues --   -2.91937  -2.90425  -2.90424  -1.46279  -1.29197
 Alpha  occ. eigenvalues --   -1.20410  -1.10922  -1.10271  -1.02647  -0.97934
 Alpha  occ. eigenvalues --   -0.93448  -0.88512  -0.82462  -0.78338  -0.77681
 Alpha  occ. eigenvalues --   -0.77082  -0.75848  -0.73600  -0.72652  -0.69985
 Alpha  occ. eigenvalues --   -0.66899  -0.65658  -0.61523  -0.57707  -0.54118
 Alpha  occ. eigenvalues --   -0.53818  -0.53266  -0.52206  -0.51740
 Alpha virt. eigenvalues --   -0.28077  -0.17736  -0.13459  -0.10663  -0.08520
 Alpha virt. eigenvalues --   -0.05785  -0.04810  -0.03463  -0.03060  -0.01934
 Alpha virt. eigenvalues --   -0.00883  -0.00061   0.00524   0.01347   0.02549

 Mulliken charges:
               1
     1  C   -0.104001
     2  C    0.177018
     3  C   -0.041866
     4  C   -0.330462
     5  H    0.330308
     6  H    0.357540
     7  H    0.302164
     8  N   -0.241649
     9  O    0.110833
    10  O    0.097664
    11  C   -0.229628
    12  H    0.342156
    13  C   -0.385027
    14  H    0.418488
    15  Br   0.196463
 Sum of Mulliken charges =   1.00000

 Dipole moment (field-independent basis, Debye):
    X=              4.4359    Y=             -0.9919    Z=             -0.8351  Tot=              4.6215
 Quadrupole moment (field-independent basis, Debye-Ang):
   XX=            -61.4498   YY=            -51.0406   ZZ=            -61.9920
   XY=             -3.3709   XZ=             -3.0229   YZ=              2.6587

 Normal termination of Gaussian 16 at Thu May  2 14:21:20 2024.
