 Gaussian 16, Revision A.03,
 Gaussian 16:  ES64L-G16RevA.03 25-Dec-2016

 --------------------------------------------------------------------
 #p B3LYP/6-311+G** #p TD=(singlets,nstates=30)IOp(6/8=3) IOp(9/40=4)
 --------------------------------------------------------------------

 ------------------------------
 Scan Step 18, Bond Length 0.59
 ------------------------------
 Symbolic Z-matrix:
 Charge =  0 Multiplicity = 1

                         Standard orientation:
 ---------------------------------------------------------------------
 Center     Atomic      Atomic             Coordinates (Angstroms)
 Number     Number       Type             X           Y           Z
 ---------------------------------------------------------------------
      1          6           0        0.000000    0.000000   -0.221081
      2          1           0        0.000000    0.937260   -0.812431
      3          1           0       -0.000000   -0.937260   -0.812431
      4          8           0        0.000000    0.000000    0.368919
 ---------------------------------------------------------------------

 SCF Done:  E(RB3LYP) =  -111.359589592     A.U. after   10 cycles

 Excitation energies and oscillator strengths:

 Excited State   1:      Singlet-B2     4.4859 eV  276.38 nm  f=0.1419  <S**2>=0.000
       3 -> 11         0.00075
       3 -> 15         0.00099
       3 -> 19         0.00075
       3 -> 22         0.00084
       3 -> 25         0.00122
       3 -> 29         0.00013
       3 -> 31        -0.00028
       3 -> 40        -0.00040
       3 -> 43         0.00024
       3 -> 54         0.00016
       4 ->  9        -0.00258
       4 -> 12         0.00200
       4 -> 13         0.00306
       4 -> 16         0.00131
       4 -> 18         0.00203
       4 -> 20         0.00210
       4 -> 21         0.00156
       4 -> 24         0.00123
       4 -> 26        -0.00075
       4 -> 30         0.00134
       4 -> 32         0.00118
       4 -> 33        -0.00018
       4 -> 38        -0.00055
       4 -> 42         0.00045
       4 -> 44        -0.00026
       4 -> 47         0.00071
       4 -> 49        -0.00011
       4 -> 53         0.00016
       5 -> 28         0.00207
       5 -> 35         0.00093
       5 -> 45         0.00071
       6 -> 11        -0.00686
       6 -> 15         0.00295
       6 -> 19        -0.00078
       6 -> 22        -0.00013
       6 -> 25         0.00420
       6 -> 29         0.00086
       6 -> 31        -0.00067
       6 -> 40        -0.00015
       6 -> 43         0.00016
       6 -> 46         0.00030
       7 -> 11         0.00894
       7 -> 15         0.00429
       7 -> 19         0.00373
       7 -> 22         0.00052
       7 -> 25         0.00145
       7 -> 29        -0.00113
       7 -> 31         0.00101
       7 -> 37        -0.00064
       7 -> 43        -0.00035
       7 -> 46         0.00044
       7 -> 50         0.00042
       7 -> 54        -0.00013
       8 ->  9         0.70457
       8 -> 12        -0.00376
       8 -> 13         0.05952
       8 -> 16        -0.00516
       8 -> 18        -0.02326
       8 -> 20         0.00562
       8 -> 21         0.01118
       8 -> 24        -0.00038
       8 -> 26        -0.00087
       8 -> 30        -0.00345
       8 -> 32        -0.00204
       8 -> 33        -0.00043
       8 -> 38        -0.00103
       8 -> 39        -0.00015
       8 -> 42         0.00075
       8 -> 44         0.00048
       8 -> 47        -0.00061
       8 -> 49         0.00026
       3 <- 11         0.00037
       3 <- 15         0.00063
       3 <- 19         0.00047
       3 <- 22         0.00071
       3 <- 25         0.00093
       3 <- 31        -0.00029
       3 <- 40        -0.00040
       3 <- 43         0.00024
       3 <- 54         0.00017
       4 <-  9        -0.00103
       4 <- 12        -0.00016
       4 <- 13         0.00251
       4 <- 16         0.00148
       4 <- 18         0.00021
       4 <- 20         0.00135
       4 <- 21         0.00129
       4 <- 24         0.00080
       4 <- 26        -0.00130
       4 <- 30         0.00103
       4 <- 32         0.00053
       4 <- 38        -0.00036
       4 <- 39         0.00014
       4 <- 42         0.00036
       4 <- 44        -0.00021
       4 <- 47         0.00065
       5 <- 28         0.00177
       5 <- 35         0.00077
       5 <- 45         0.00060
       6 <- 11        -0.00200
       6 <- 15         0.00294
       6 <- 19        -0.00014
       6 <- 22         0.00040
       6 <- 25         0.00321
       6 <- 29         0.00043
       6 <- 31        -0.00060
       6 <- 37         0.00011
       6 <- 40        -0.00014
       6 <- 43         0.00013
       6 <- 46         0.00027
       7 <- 11         0.00220
       7 <- 15         0.00195
       7 <- 19         0.00086
       7 <- 22         0.00021
       7 <- 25         0.00072
       7 <- 29        -0.00173
       7 <- 31         0.00086
       7 <- 37        -0.00040
       7 <- 43        -0.00023
       7 <- 46         0.00047
       7 <- 50         0.00050
       8 <-  9        -0.01219
       8 <- 12        -0.00697
       8 <- 13         0.02443
       8 <- 16         0.00747
       8 <- 18         0.00042
       8 <- 20         0.00122
       8 <- 21         0.00591
       8 <- 24         0.00283
       8 <- 26        -0.00064
       8 <- 30        -0.00234
       8 <- 32        -0.00166
       8 <- 33        -0.00093
       8 <- 38        -0.00100
       8 <- 39        -0.00019
       8 <- 42         0.00068
       8 <- 44         0.00019
       8 <- 47        -0.00054
       8 <- 49         0.00016
 This state for optimization and/or second-order correction.
 Total Energy, E(TD-HF/TD-DFT) =  -111.194734479
 Copying the excited state density for this state as the 1-particle RhoCI density.

 Excited State   2:      Singlet-A2     4.8625 eV  254.98 nm  f=0.0000  <S**2>=0.000
       3 -> 28        -0.00191
       3 -> 35        -0.00103
       3 -> 45        -0.00032
       4 -> 10        -0.00077
       4 -> 14        -0.00055
       4 -> 17         0.00247
       4 -> 23        -0.00080
       4 -> 27        -0.00198
       4 -> 34         0.00023
       4 -> 36        -0.00110
       4 -> 48        -0.00015
       4 -> 52        -0.00021
       5 -> 11         0.00020
       5 -> 15        -0.00020
       5 -> 19         0.00032
       5 -> 22        -0.00071
       5 -> 25         0.00024
       5 -> 29         0.00033
       5 -> 37        -0.00031
       5 -> 40         0.00014
       5 -> 43        -0.00036
       5 -> 46        -0.00028
       5 -> 50         0.00017
       6 -> 28        -0.00313
       6 -> 35         0.00064
       6 -> 45         0.00014
       7 -> 28         0.00159
       7 -> 35        -0.00030
       7 -> 45        -0.00030
       8 -> 10         0.70663
       8 -> 14        -0.00723
       8 -> 17        -0.02594
       8 -> 23        -0.00366
       8 -> 27         0.00033
       8 -> 34         0.00342
       8 -> 36        -0.00155
       8 -> 41         0.00053
       8 -> 48         0.00015
       8 -> 52         0.00029
       3 <- 28        -0.00160
       3 <- 35        -0.00089
       3 <- 45        -0.00031
       4 <- 10        -0.00020
       4 <- 14         0.00036
       4 <- 17         0.00081
       4 <- 23        -0.00014
       4 <- 27        -0.00047
       4 <- 34         0.00065
       4 <- 36        -0.00066
       4 <- 41        -0.00013
       5 <- 11         0.00047
       5 <- 15        -0.00047
       5 <- 19         0.00110
       5 <- 22        -0.00089
       5 <- 25         0.00076
       5 <- 29         0.00121
       5 <- 31         0.00013
       5 <- 37        -0.00058
       5 <- 40         0.00010
       5 <- 43        -0.00040
       5 <- 46        -0.00030
       5 <- 54        -0.00019
       6 <- 28        -0.00304
       6 <- 35         0.00077
       6 <- 45         0.00012
       7 <- 28         0.00161
       7 <- 35        -0.00042
       7 <- 45        -0.00033
       8 <- 10         0.00269
       8 <- 14         0.00276
       8 <- 17         0.00730
       8 <- 23        -0.00016
       8 <- 27        -0.00076
       8 <- 34         0.00325
       8 <- 36        -0.00124
       8 <- 41         0.00030
       8 <- 52         0.00012

 Excited State   3:      Singlet-B2     5.5473 eV  223.50 nm  f=0.0379  <S**2>=0.000
       3 -> 11        -0.00022
       3 -> 15         0.00041
       3 -> 19        -0.00043
       3 -> 22         0.00027
       3 -> 25         0.00014
       3 -> 29        -0.00019
       3 -> 31         0.00013
       3 -> 37        -0.00016
       3 -> 40         0.00018
       3 -> 43        -0.00018
       3 -> 54        -0.00019
       4 ->  9         0.00098
       4 -> 12         0.00018
       4 -> 13         0.00092
       4 -> 16         0.00181
       4 -> 18        -0.00088
       4 -> 20        -0.00058
       4 -> 21         0.00097
       4 -> 24         0.00089
       4 -> 26         0.00023
       4 -> 30        -0.00207
       4 -> 32        -0.00017
       4 -> 38         0.00041
       4 -> 39        -0.00091
       4 -> 42        -0.00030
       4 -> 47        -0.00041
       5 -> 28        -0.00100
       5 -> 35        -0.00113
       5 -> 45        -0.00060
       6 -> 11        -0.00085
       6 -> 15         0.00380
       6 -> 19        -0.00201
       6 -> 22        -0.00022
       6 -> 25         0.00156
       6 -> 29         0.00212
       6 -> 31         0.00048
       6 -> 37         0.00052
       6 -> 40         0.00041
       6 -> 43         0.00028
       6 -> 46        -0.00025
       6 -> 50        -0.00022
       6 -> 54         0.00015
       7 -> 11        -0.00122
       7 -> 15        -0.00412
       7 -> 19        -0.00103
       7 -> 25        -0.00300
       7 -> 29        -0.00111
       7 -> 31        -0.00047
       7 -> 37         0.00051
       7 -> 40         0.00011
       7 -> 46        -0.00056
       7 -> 50        -0.00026
       7 -> 54         0.00016
       8 ->  9         0.00119
       8 -> 12         0.70547
       8 -> 13         0.03940
       8 -> 16         0.02554
       8 -> 18         0.00418
       8 -> 20         0.01564
       8 -> 21         0.00543
       8 -> 24        -0.00099
       8 -> 26         0.00202
       8 -> 30        -0.00301
       8 -> 32         0.00051
       8 -> 33        -0.00017
       8 -> 38        -0.00074
       8 -> 39         0.00136
       8 -> 42         0.00092
       8 -> 44        -0.00016
       8 -> 47         0.00025
       8 -> 53         0.00014
       3 <- 15         0.00035
       3 <- 19        -0.00016
       3 <- 22         0.00013
       3 <- 25         0.00024
       3 <- 31         0.00014
       3 <- 37        -0.00019
       3 <- 40         0.00015
       3 <- 43        -0.00017
       3 <- 54        -0.00023
       4 <-  9        -0.00104
       4 <- 12        -0.00020
       4 <- 13         0.00103
       4 <- 16         0.00065
       4 <- 18         0.00051
       4 <- 20        -0.00038
       4 <- 21         0.00067
       4 <- 24         0.00095
       4 <- 26         0.00035
       4 <- 30        -0.00141
       4 <- 33        -0.00053
       4 <- 38         0.00027
       4 <- 39        -0.00066
       4 <- 42        -0.00032
       4 <- 47        -0.00038
       5 <- 28        -0.00063
       5 <- 35        -0.00099
       5 <- 45        -0.00054
       6 <- 11        -0.00069
       6 <- 15         0.00078
       6 <- 19         0.00013
       6 <- 22        -0.00056
       6 <- 25         0.00148
       6 <- 29         0.00165
       6 <- 31         0.00066
       6 <- 37         0.00050
       6 <- 40         0.00033
       6 <- 43         0.00021
       6 <- 46        -0.00021
       6 <- 50        -0.00016
       6 <- 54         0.00012
       7 <- 11         0.00031
       7 <- 15        -0.00137
       7 <- 19        -0.00054
       7 <- 25        -0.00184
       7 <- 29        -0.00030
       7 <- 31        -0.00037
       7 <- 37         0.00018
       7 <- 46        -0.00050
       7 <- 50        -0.00034
       8 <-  9        -0.00639
       8 <- 12         0.00073
       8 <- 13         0.01242
       8 <- 16         0.00482
       8 <- 18        -0.00153
       8 <- 20        -0.00325
       8 <- 21         0.00324
       8 <- 24         0.00058
       8 <- 30        -0.00241
       8 <- 32         0.00052
       8 <- 33        -0.00020
       8 <- 38        -0.00058
       8 <- 39         0.00125
       8 <- 42         0.00079
       8 <- 44        -0.00011
       8 <- 47         0.00021

 Excited State   4:      Singlet-A1     5.7734 eV  214.75 nm  f=0.0009  <S**2>=0.000
       3 ->  9         0.00152
       3 -> 12        -0.00036
       3 -> 13         0.00018
       3 -> 16        -0.00096
       3 -> 18        -0.00175
       3 -> 20        -0.00015
       3 -> 21         0.00099
       3 -> 24        -0.00101
       3 -> 26        -0.00036
       3 -> 30         0.00065
       3 -> 32        -0.00074
       3 -> 33         0.00071
       3 -> 38         0.00049
       3 -> 39         0.00033
       3 -> 44        -0.00018
       3 -> 51        -0.00015
       3 -> 53        -0.00012
       4 -> 11        -0.00557
       4 -> 15        -0.00513
       4 -> 19        -0.00478
       4 -> 22        -0.00271
       4 -> 25        -0.00321
       4 -> 29        -0.00054
       4 -> 37        -0.00091
       4 -> 40        -0.00014
       4 -> 43         0.00019
       4 -> 46        -0.00012
       5 -> 10        -0.00242
       5 -> 14        -0.00396
       5 -> 17         0.00095
       5 -> 23         0.00369
       5 -> 27        -0.00042
       5 -> 34        -0.00073
       5 -> 36        -0.00057
       5 -> 48         0.00012
       6 ->  9         0.01104
       6 -> 12         0.00710
       6 -> 13        -0.00336
       6 -> 16        -0.00584
       6 -> 18        -0.00627
       6 -> 20         0.00386
       6 -> 21         0.00241
       6 -> 24        -0.00521
       6 -> 26         0.00160
       6 -> 30        -0.00041
       6 -> 32         0.00279
       6 -> 33         0.00162
       6 -> 38         0.00164
       6 -> 39        -0.00109
       6 -> 42        -0.00028
       6 -> 44         0.00084
       6 -> 47         0.00018
       6 -> 49        -0.00039
       6 -> 51        -0.00013
       7 ->  9         0.00923
       7 -> 12        -0.01212
       7 -> 13        -0.00050
       7 -> 16         0.00613
       7 -> 18        -0.00878
       7 -> 20        -0.00348
       7 -> 21        -0.00188
       7 -> 24         0.00042
       7 -> 26        -0.00394
       7 -> 30        -0.00095
       7 -> 32        -0.00145
       7 -> 33         0.00063
       7 -> 38        -0.00099
       7 -> 39         0.00041
       7 -> 42         0.00017
       7 -> 44        -0.00029
       7 -> 51         0.00013
       7 -> 53         0.00011
       8 -> 11         0.70439
       8 -> 15         0.05641
       8 -> 19        -0.02268
       8 -> 22        -0.00131
       8 -> 25         0.00961
       8 -> 29        -0.00281
       8 -> 31         0.00220
       8 -> 37        -0.00357
       8 -> 40        -0.00069
       8 -> 43         0.00189
       8 -> 46        -0.00112
       8 -> 50         0.00024
       3 <-  9         0.00093
       3 <- 12        -0.00015
       3 <- 13         0.00016
       3 <- 16        -0.00064
       3 <- 18        -0.00114
       3 <- 21         0.00072
       3 <- 24        -0.00076
       3 <- 26        -0.00029
       3 <- 30         0.00053
       3 <- 32        -0.00053
       3 <- 33         0.00058
       3 <- 38         0.00040
       3 <- 39         0.00027
       3 <- 44        -0.00015
       3 <- 47         0.00011
       3 <- 51        -0.00014
       3 <- 53        -0.00010
       4 <- 11        -0.00249
       4 <- 15        -0.00221
       4 <- 19        -0.00286
       4 <- 22        -0.00190
       4 <- 25        -0.00185
       4 <- 29        -0.00041
       4 <- 37        -0.00077
       4 <- 40        -0.00014
       4 <- 43         0.00019
       5 <- 10        -0.00146
       5 <- 14        -0.00247
       5 <- 17         0.00062
       5 <- 23         0.00267
       5 <- 27        -0.00030
       5 <- 34        -0.00062
       5 <- 36        -0.00049
       5 <- 48         0.00011
       6 <-  9         0.00821
       6 <- 12         0.00362
       6 <- 13        -0.00282
       6 <- 16        -0.00438
       6 <- 18        -0.00331
       6 <- 20         0.00201
       6 <- 21         0.00252
       6 <- 24        -0.00357
       6 <- 26         0.00112
       6 <- 32         0.00209
       6 <- 33         0.00115
       6 <- 38         0.00155
       6 <- 39        -0.00079
       6 <- 42        -0.00026
       6 <- 44         0.00080
       6 <- 47         0.00010
       6 <- 49        -0.00034
       6 <- 51        -0.00013
       7 <-  9         0.00075
       7 <- 12        -0.00492
       7 <- 13         0.00080
       7 <- 16         0.00407
       7 <- 18        -0.00423
       7 <- 20        -0.00152
       7 <- 21        -0.00163
       7 <- 24         0.00040
       7 <- 26        -0.00271
       7 <- 30        -0.00084
       7 <- 32        -0.00111
       7 <- 33         0.00048
       7 <- 38        -0.00086
       7 <- 39         0.00019
       7 <- 44        -0.00029
       7 <- 51         0.00011
       7 <- 53         0.00010
       8 <- 11        -0.01373
       8 <- 15         0.00515
       8 <- 19        -0.01673
       8 <- 22        -0.00454
       8 <- 25         0.00517
       8 <- 29        -0.00222
       8 <- 31         0.00201
       8 <- 37        -0.00288
       8 <- 40        -0.00035
       8 <- 43         0.00154
       8 <- 46        -0.00104
       8 <- 50         0.00024

 Excited State   5:      Singlet-A2     8.4358 eV  146.97 nm  f=0.0000  <S**2>=0.000
       3 -> 28         0.00216
       3 -> 35         0.00122
       3 -> 45         0.00034
       4 -> 10        -0.00076
       4 -> 14        -0.00483
       4 -> 17        -0.00175
       4 -> 23         0.00278
       4 -> 27         0.00036
       4 -> 34         0.00043
       4 -> 36         0.00178
       4 -> 41        -0.00025
       4 -> 52         0.00016
       5 -> 19        -0.00043
       5 -> 22         0.00095
       5 -> 25        -0.00069
       5 -> 29        -0.00016
       5 -> 37         0.00034
       5 -> 40        -0.00017
       5 -> 43         0.00049
       5 -> 46         0.00031
       5 -> 50        -0.00011
       6 -> 28         0.00232
       6 -> 35        -0.00063
       7 -> 28        -0.00138
       7 -> 35         0.00021
       7 -> 45         0.00027
       8 -> 10         0.00978
       8 -> 14         0.70299
       8 -> 17         0.07357
       8 -> 23        -0.01672
       8 -> 27        -0.00160
       8 -> 34        -0.00255
       8 -> 36         0.00253
       8 -> 41        -0.00025
       8 -> 52        -0.00028
       3 <- 28         0.00153
       3 <- 35         0.00098
       3 <- 45         0.00036
       4 <- 10         0.00029
       4 <- 14        -0.00036
       4 <- 17        -0.00064
       4 <- 23         0.00022
       4 <- 27         0.00031
       4 <- 34        -0.00051
       4 <- 36         0.00070
       4 <- 41         0.00015
       5 <- 11         0.00043
       5 <- 19        -0.00010
       5 <- 22         0.00104
       5 <- 25        -0.00116
       5 <- 29        -0.00024
       5 <- 31        -0.00039
       5 <- 37         0.00078
       5 <- 43         0.00051
       5 <- 54         0.00016
       6 <- 28         0.00239
       6 <- 35        -0.00060
       6 <- 45        -0.00015
       7 <- 28        -0.00114
       8 <- 10         0.00337
       8 <- 14        -0.00068
       8 <- 17        -0.00467
       8 <- 23         0.00082
       8 <- 27         0.00036
       8 <- 34        -0.00280
       8 <- 36         0.00120
       8 <- 41        -0.00024
       8 <- 52        -0.00012

 The electronic state is 1-A1.
 Alpha  occ. eigenvalues --  -19.29246 -10.46483  -1.25268  -0.89705  -0.87093
 Alpha  occ. eigenvalues --   -0.58036  -0.51740  -0.19621
 Alpha virt. eigenvalues --    0.00189   0.02517   0.04426   0.04708   0.14160
 Alpha virt. eigenvalues --    0.16254   0.17570   0.18112   0.21973   0.22021
 Alpha virt. eigenvalues --    0.28561   0.36646   0.50641   0.57495   0.61538

 Mulliken charges:
               1
     1  C    0.195767
     2  H   -0.129433
     3  H   -0.129433
     4  O    0.063099
 Sum of Mulliken charges =  -0.00000

 Dipole moment (field-independent basis, Debye):
    X=              0.0000    Y=             -0.0000    Z=              1.6160  Tot=              1.6160
 Quadrupole moment (field-independent basis, Debye-Ang):
   XX=            -10.0399   YY=            -14.2421   ZZ=            -13.7271
   XY=             -0.0000   XZ=             -0.0000   YZ=             -0.0000

 Normal termination of Gaussian 16 at Fri Sep 17 10:52:16 2021.
