 Gaussian 16, Revision A.03,
 Gaussian 16:  ES64L-G16RevA.03 25-Dec-2016

 --------------------------------------------------------------------
 #p B3LYP/6-311+G** #p TD=(singlets,nstates=30)IOp(6/8=3) IOp(9/40=4)
 --------------------------------------------------------------------

 --------------------------------
 Scan Step 211, Bond Length 1.555
 --------------------------------
 Symbolic Z-matrix:
 Charge =  0 Multiplicity = 1

                         Standard orientation:
 ---------------------------------------------------------------------
 Center     Atomic      Atomic             Coordinates (Angstroms)
 Number     Number       Type             X           Y           Z
 ---------------------------------------------------------------------
      1          6           0        0.000000   -0.000000   -0.703581
      2          1           0        0.000000    0.937260   -1.294931
      3          1           0       -0.000000   -0.937260   -1.294931
      4          8           0        0.000000    0.000000    0.851419
 ---------------------------------------------------------------------

 SCF Done:  E(RB3LYP) =  -114.444731867     A.U. after   10 cycles

 Excitation energies and oscillator strengths:

 Excited State   1:      Singlet-A2     2.1576 eV  574.65 nm  f=0.0000  <S**2>=0.000
       3 -> 27         0.00130
       3 -> 38         0.00099
       3 -> 46         0.00325
       4 -> 27         0.00079
       4 -> 38        -0.00016
       4 -> 46        -0.00134
       5 ->  9         0.00895
       5 -> 13         0.00079
       5 -> 18         0.00317
       5 -> 23         0.00160
       5 -> 28         0.00279
       5 -> 31        -0.00025
       5 -> 37         0.00156
       5 -> 44         0.00036
       5 -> 52         0.00038
       6 -> 27        -0.00062
       6 -> 38        -0.00080
       6 -> 46         0.00141
       7 -> 12        -0.00085
       7 -> 16         0.00459
       7 -> 19        -0.00392
       7 -> 22        -0.00067
       7 -> 25         0.00102
       7 -> 30        -0.00146
       7 -> 33         0.00038
       7 -> 49         0.00013
       7 -> 50         0.00018
       7 -> 53         0.00045
       8 ->  9         0.70818
       8 -> 13        -0.01502
       8 -> 18         0.02176
       8 -> 23        -0.00408
       8 -> 28         0.01107
       8 -> 31         0.00083
       8 -> 37         0.00065
       8 -> 48        -0.00031
       8 -> 52         0.00194
       3 <- 27         0.00064
       3 <- 38         0.00071
       3 <- 46         0.00330
       4 <- 27         0.00135
       4 <- 38         0.00023
       4 <- 46        -0.00108
       5 <-  9        -0.00034
       5 <- 13        -0.00056
       5 <- 18        -0.00074
       5 <- 23         0.00030
       5 <- 28        -0.00052
       5 <- 31         0.00039
       5 <- 37         0.00086
       5 <- 44         0.00012
       5 <- 52         0.00010
       6 <- 38        -0.00066
       6 <- 46         0.00109
       7 <- 12         0.00043
       7 <- 16        -0.00985
       7 <- 19         0.00336
       7 <- 22         0.00707
       7 <- 25         0.00049
       7 <- 30         0.00515
       7 <- 33        -0.00059
       7 <- 36         0.00100
       7 <- 40         0.00056
       7 <- 42         0.00013
       7 <- 49        -0.00035
       7 <- 50         0.00011
       7 <- 53         0.00145
       8 <-  9        -0.04768
       8 <- 13         0.00068
       8 <- 18        -0.00635
       8 <- 23         0.00026
       8 <- 28        -0.00226
       8 <- 31        -0.00060
       8 <- 37        -0.00053
       8 <- 52         0.00052
 This state for optimization and/or second-order correction.
 Total Energy, E(TD-HF/TD-DFT) =  -114.365442737
 Copying the excited state density for this state as the 1-particle RhoCI density.

 Excited State   2:      Singlet-A1     5.4994 eV  225.45 nm  f=0.0877  <S**2>=0.000
       3 -> 10         0.01258
       3 -> 11        -0.01609
       3 -> 14        -0.01291
       3 -> 15         0.01082
       3 -> 17        -0.00362
       3 -> 20        -0.00364
       3 -> 21        -0.00180
       3 -> 24         0.00308
       3 -> 26         0.00472
       3 -> 29        -0.00094
       3 -> 32         0.00278
       3 -> 34         0.00298
       3 -> 35        -0.00060
       3 -> 39         0.00093
       3 -> 43         0.00043
       3 -> 45        -0.00034
       3 -> 47         0.00219
       3 -> 51         0.00088
       3 -> 54         0.00023
       4 -> 10         0.01554
       4 -> 11         0.01125
       4 -> 14        -0.00824
       4 -> 15        -0.00927
       4 -> 17         0.00323
       4 -> 20         0.00621
       4 -> 21         0.00039
       4 -> 24        -0.00549
       4 -> 26         0.00538
       4 -> 29         0.00115
       4 -> 32        -0.00128
       4 -> 34        -0.00207
       4 -> 35         0.00023
       4 -> 39        -0.00014
       4 -> 41         0.00014
       4 -> 43        -0.00038
       4 -> 45        -0.00065
       4 -> 47        -0.00142
       4 -> 51        -0.00030
       5 -> 12         0.01959
       5 -> 16         0.01410
       5 -> 19         0.00155
       5 -> 22         0.00698
       5 -> 25         0.00925
       5 -> 30        -0.00063
       5 -> 33        -0.00320
       5 -> 36         0.00267
       5 -> 40         0.00155
       5 -> 42         0.00062
       5 -> 49         0.00052
       5 -> 50        -0.00063
       5 -> 53        -0.00017
       6 -> 10        -0.10266
       6 -> 11         0.11164
       6 -> 14         0.09178
       6 -> 15        -0.09083
       6 -> 17        -0.02052
       6 -> 20        -0.01489
       6 -> 21         0.01643
       6 -> 24        -0.01602
       6 -> 26        -0.00794
       6 -> 29        -0.00867
       6 -> 32         0.00043
       6 -> 34         0.00163
       6 -> 35        -0.00106
       6 -> 39         0.00071
       6 -> 41        -0.00051
       6 -> 43         0.00075
       6 -> 45         0.00066
       6 -> 47         0.00145
       6 -> 51         0.00084
       6 -> 54        -0.00058
       7 ->  9         0.68531
       7 -> 13         0.00401
       7 -> 18        -0.02048
       7 -> 23         0.00115
       7 -> 28        -0.00218
       7 -> 31        -0.00285
       7 -> 37         0.00073
       7 -> 44        -0.00106
       7 -> 48         0.00048
       7 -> 52         0.00104
       8 -> 12        -0.00637
       8 -> 16         0.08043
       8 -> 19        -0.02534
       8 -> 22        -0.03071
       8 -> 25         0.00100
       8 -> 30        -0.01296
       8 -> 33         0.00280
       8 -> 36        -0.00348
       8 -> 40        -0.00163
       8 -> 42        -0.00034
       8 -> 49         0.00064
       8 -> 50         0.00026
       8 -> 53        -0.00077
       3 <- 10         0.00807
       3 <- 11        -0.01089
       3 <- 14        -0.00935
       3 <- 15         0.00732
       3 <- 17        -0.00183
       3 <- 20        -0.00251
       3 <- 21        -0.00197
       3 <- 24         0.00200
       3 <- 26         0.00290
       3 <- 29        -0.00054
       3 <- 32         0.00255
       3 <- 34         0.00197
       3 <- 35        -0.00055
       3 <- 39         0.00079
       3 <- 41         0.00010
       3 <- 43         0.00051
       3 <- 45        -0.00015
       3 <- 47         0.00234
       3 <- 51         0.00086
       3 <- 54         0.00032
       4 <- 10         0.00762
       4 <- 11         0.00683
       4 <- 14        -0.00403
       4 <- 15        -0.00544
       4 <- 17         0.00156
       4 <- 20         0.00485
       4 <- 21         0.00031
       4 <- 24        -0.00363
       4 <- 26         0.00414
       4 <- 29         0.00030
       4 <- 32        -0.00161
       4 <- 34        -0.00181
       4 <- 35         0.00045
       4 <- 39        -0.00020
       4 <- 43        -0.00038
       4 <- 45        -0.00083
       4 <- 47        -0.00102
       4 <- 51        -0.00013
       5 <- 12         0.00810
       5 <- 16         0.00678
       5 <- 19         0.00104
       5 <- 22         0.00415
       5 <- 25         0.00606
       5 <- 30        -0.00030
       5 <- 33        -0.00243
       5 <- 36         0.00215
       5 <- 40         0.00133
       5 <- 42         0.00050
       5 <- 49         0.00046
       5 <- 50        -0.00057
       5 <- 53        -0.00015
       6 <- 10        -0.02846
       6 <- 11         0.03308
       6 <- 14         0.03418
       6 <- 15        -0.03676
       6 <- 17        -0.00938
       6 <- 20        -0.00859
       6 <- 21         0.00915
       6 <- 24        -0.00949
       6 <- 26        -0.00467
       6 <- 29        -0.00581
       6 <- 32         0.00090
       6 <- 34         0.00195
       6 <- 35        -0.00100
       6 <- 39         0.00081
       6 <- 41        -0.00035
       6 <- 43         0.00065
       6 <- 45         0.00068
       6 <- 47         0.00096
       6 <- 51         0.00066
       6 <- 54        -0.00047
       7 <-  9        -0.12055
       7 <- 13         0.00848
       7 <- 18        -0.01426
       7 <- 23         0.00427
       7 <- 28        -0.00439
       7 <- 31        -0.00123
       7 <- 37         0.00020
       7 <- 44        -0.00059
       7 <- 48        -0.00011
       7 <- 52         0.00090
       8 <- 12        -0.00124
       8 <- 16         0.02568
       8 <- 19        -0.00997
       8 <- 22        -0.01577
       8 <- 25         0.00029
       8 <- 30        -0.00909
       8 <- 33         0.00204
       8 <- 36        -0.00261
       8 <- 40        -0.00130
       8 <- 42        -0.00027
       8 <- 49         0.00044
       8 <- 50         0.00021
       8 <- 53        -0.00070

 Excited State   3:      Singlet-B1     5.7453 eV  215.80 nm  f=0.0015  <S**2>=0.000
       3 ->  9        -0.03007
       3 -> 13         0.00203
       3 -> 18        -0.00500
       3 -> 23         0.00202
       3 -> 28        -0.00110
       3 -> 31        -0.00049
       3 -> 44         0.00027
       3 -> 48         0.00090
       3 -> 52         0.00100
       4 ->  9         0.01421
       4 -> 13        -0.00270
       4 -> 18         0.00035
       4 -> 23        -0.00245
       4 -> 28         0.00021
       4 -> 31        -0.00163
       4 -> 37        -0.00043
       4 -> 44         0.00012
       4 -> 48        -0.00120
       4 -> 52        -0.00065
       5 -> 27        -0.00034
       5 -> 38         0.00200
       5 -> 46         0.00111
       6 ->  9         0.70579
       6 -> 13        -0.02136
       6 -> 18         0.01756
       6 -> 23        -0.01120
       6 -> 28         0.00464
       6 -> 31         0.00348
       6 -> 37        -0.00228
       6 -> 44        -0.00302
       6 -> 48         0.00435
       6 -> 52         0.00154
       7 -> 10        -0.02106
       7 -> 11         0.02061
       7 -> 14         0.01348
       7 -> 15        -0.00806
       7 -> 17        -0.00947
       7 -> 20         0.00267
       7 -> 21        -0.00022
       7 -> 24        -0.00029
       7 -> 26        -0.00124
       7 -> 29        -0.00406
       7 -> 32        -0.00078
       7 -> 34         0.00044
       7 -> 35         0.00184
       7 -> 39         0.00013
       7 -> 41        -0.00072
       7 -> 43         0.00060
       7 -> 45        -0.00109
       7 -> 47         0.00433
       7 -> 51         0.00117
       7 -> 54         0.00047
       8 -> 27         0.00072
       8 -> 38         0.00018
       8 -> 46         0.00561
       3 <-  9        -0.01000
       3 <- 13        -0.00049
       3 <- 18        -0.00301
       3 <- 23        -0.00047
       3 <- 28        -0.00072
       3 <- 31        -0.00063
       3 <- 44        -0.00027
       3 <- 48         0.00109
       3 <- 52         0.00080
       4 <-  9         0.00668
       4 <- 13        -0.00018
       4 <- 18         0.00207
       4 <- 23        -0.00052
       4 <- 28         0.00176
       4 <- 31        -0.00113
       4 <- 37        -0.00019
       4 <- 44         0.00013
       4 <- 48        -0.00104
       4 <- 52        -0.00037
       5 <- 27        -0.00085
       5 <- 38         0.00161
       5 <- 46         0.00099
       6 <-  9        -0.02417
       6 <- 13         0.00173
       6 <- 18        -0.00315
       6 <- 23        -0.00027
       6 <- 28        -0.00325
       6 <- 31         0.00147
       6 <- 37        -0.00202
       6 <- 44        -0.00171
       6 <- 48         0.00389
       6 <- 52         0.00054
       7 <- 10         0.01019
       7 <- 11        -0.01165
       7 <- 14        -0.01242
       7 <- 15         0.01509
       7 <- 17         0.00109
       7 <- 20         0.00537
       7 <- 21        -0.00470
       7 <- 24         0.00463
       7 <- 26         0.00189
       7 <- 29         0.00092
       7 <- 32        -0.00040
       7 <- 34         0.00016
       7 <- 35         0.00286
       7 <- 39         0.00041
       7 <- 41        -0.00035
       7 <- 43         0.00048
       7 <- 45        -0.00116
       7 <- 47         0.00392
       7 <- 51         0.00099
       7 <- 54         0.00109
       8 <- 27         0.00114
       8 <- 38         0.00035
       8 <- 46         0.00519

 Excited State   4:      Singlet-B2     6.4763 eV  191.44 nm  f=0.0180  <S**2>=0.000
       3 -> 12         0.00166
       3 -> 16        -0.00163
       3 -> 19         0.00407
       3 -> 22        -0.00034
       3 -> 30         0.00302
       3 -> 33         0.00036
       3 -> 36        -0.00201
       3 -> 40        -0.00158
       3 -> 42        -0.00016
       3 -> 49         0.00216
       3 -> 50        -0.00021
       3 -> 53        -0.00026
       4 -> 12        -0.00052
       4 -> 16         0.00289
       4 -> 19         0.00035
       4 -> 22        -0.00342
       4 -> 25         0.00250
       4 -> 30        -0.00129
       4 -> 33         0.00044
       4 -> 36        -0.00047
       4 -> 40         0.00050
       4 -> 49        -0.00030
       5 -> 10         0.00180
       5 -> 11        -0.00526
       5 -> 14        -0.01445
       5 -> 15        -0.00075
       5 -> 17        -0.00132
       5 -> 20        -0.00173
       5 -> 21        -0.00669
       5 -> 24        -0.00188
       5 -> 26         0.00209
       5 -> 29         0.00192
       5 -> 32         0.00095
       5 -> 34         0.00133
       5 -> 35         0.00063
       5 -> 39         0.00088
       5 -> 41        -0.00081
       5 -> 45        -0.00026
       5 -> 47         0.00080
       5 -> 51        -0.00048
       5 -> 54         0.00022
       6 -> 12        -0.00346
       6 -> 16         0.00131
       6 -> 19        -0.00238
       6 -> 22        -0.00023
       6 -> 25         0.00075
       6 -> 30         0.00052
       6 -> 33        -0.00045
       6 -> 36         0.00217
       6 -> 40         0.00165
       6 -> 42         0.00025
       6 -> 49        -0.00137
       6 -> 53         0.00029
       7 -> 27         0.00057
       7 -> 38        -0.00098
       7 -> 46        -0.00324
       8 -> 10         0.63304
       8 -> 11        -0.28514
       8 -> 14        -0.10988
       8 -> 15         0.07523
       8 -> 17         0.00977
       8 -> 20         0.00431
       8 -> 21        -0.00493
       8 -> 24         0.00542
       8 -> 26         0.00547
       8 -> 29         0.00837
       8 -> 32         0.00216
       8 -> 34         0.00145
       8 -> 35         0.00067
       8 -> 39         0.00048
       8 -> 41        -0.00042
       8 -> 43         0.00059
       8 -> 45        -0.00211
       8 -> 47         0.00349
       8 -> 51        -0.00199
       8 -> 54         0.00126
       3 <- 12         0.00056
       3 <- 16        -0.00035
       3 <- 19         0.00191
       3 <- 22        -0.00083
       3 <- 25        -0.00015
       3 <- 30         0.00120
       3 <- 33         0.00032
       3 <- 36        -0.00160
       3 <- 40        -0.00143
       3 <- 42        -0.00015
       3 <- 49         0.00223
       3 <- 50        -0.00018
       3 <- 53        -0.00074
       4 <- 12         0.00039
       4 <- 16         0.00245
       4 <- 19         0.00052
       4 <- 22        -0.00280
       4 <- 25         0.00154
       4 <- 30        -0.00106
       4 <- 33         0.00053
       4 <- 36        -0.00066
       4 <- 40         0.00015
       4 <- 42        -0.00015
       4 <- 49        -0.00023
       5 <- 10         0.00113
       5 <- 11         0.00146
       5 <- 14        -0.00290
       5 <- 15        -0.00359
       5 <- 17        -0.00025
       5 <- 20        -0.00035
       5 <- 21        -0.00204
       5 <- 24        -0.00278
       5 <- 26         0.00076
       5 <- 29         0.00049
       5 <- 32        -0.00033
       5 <- 34         0.00043
       5 <- 39         0.00027
       5 <- 41        -0.00078
       5 <- 43        -0.00014
       5 <- 45        -0.00054
       5 <- 47         0.00058
       5 <- 51        -0.00025
       6 <- 12        -0.00019
       6 <- 16        -0.00436
       6 <- 19         0.00198
       6 <- 22         0.00309
       6 <- 25         0.00035
       6 <- 30         0.00381
       6 <- 33        -0.00068
       6 <- 36         0.00215
       6 <- 40         0.00161
       6 <- 42         0.00030
       6 <- 49        -0.00142
       6 <- 53         0.00084
       7 <- 27         0.00057
       7 <- 38        -0.00076
       7 <- 46        -0.00265
       8 <- 10        -0.00844
       8 <- 11         0.01025
       8 <- 14         0.01026
       8 <- 15        -0.00595
       8 <- 17        -0.00021
       8 <- 20         0.00190
       8 <- 21         0.00234
       8 <- 24        -0.00088
       8 <- 26        -0.00200
       8 <- 29         0.00081
       8 <- 32        -0.00176
       8 <- 34        -0.00132
       8 <- 39        -0.00127
       8 <- 41        -0.00059
       8 <- 43        -0.00010
       8 <- 45        -0.00252
       8 <- 47         0.00241
       8 <- 51        -0.00117
       8 <- 54         0.00030

 Excited State   5:      Singlet-B2     7.1042 eV  174.52 nm  f=0.0041  <S**2>=0.000
       3 -> 12         0.00131
       3 -> 16         0.00172
       3 -> 19        -0.00126
       3 -> 22        -0.00040
       3 -> 25         0.00097
       3 -> 30        -0.00273
       3 -> 36         0.00071
       3 -> 40         0.00063
       3 -> 49        -0.00091
       4 -> 12        -0.00144
       4 -> 16         0.00032
       4 -> 19         0.00088
       4 -> 22        -0.00054
       4 -> 25         0.00037
       4 -> 30         0.00146
       4 -> 33        -0.00024
       4 -> 36         0.00044
       4 -> 50        -0.00012
       5 -> 10        -0.00816
       5 -> 11        -0.00087
       5 -> 14         0.00036
       5 -> 15         0.00600
       5 -> 17         0.00137
       5 -> 20         0.00221
       5 -> 21         0.00085
       5 -> 24        -0.00019
       5 -> 26        -0.00061
       5 -> 29        -0.00066
       5 -> 32        -0.00159
       5 -> 34         0.00014
       5 -> 35        -0.00046
       5 -> 39        -0.00069
       5 -> 43        -0.00035
       5 -> 45         0.00039
       5 -> 47        -0.00048
       5 -> 51         0.00034
       6 -> 12        -0.00093
       6 -> 16        -0.00023
       6 -> 19         0.00067
       6 -> 22        -0.00107
       6 -> 30        -0.00094
       6 -> 36        -0.00040
       6 -> 40        -0.00082
       6 -> 42        -0.00023
       6 -> 49         0.00142
       6 -> 50        -0.00012
       6 -> 53        -0.00013
       7 -> 27        -0.00068
       7 -> 46         0.00213
       8 -> 10         0.29694
       8 -> 11         0.63943
       8 -> 14         0.01988
       8 -> 15        -0.04699
       8 -> 17        -0.00626
       8 -> 20         0.01538
       8 -> 21         0.00418
       8 -> 24        -0.00394
       8 -> 26         0.00095
       8 -> 29        -0.00369
       8 -> 32        -0.00059
       8 -> 34        -0.00087

 The electronic state is 1-A1.
 Alpha  occ. eigenvalues --  -19.17038 -10.32264  -0.93965  -0.69191  -0.48821
 Alpha  occ. eigenvalues --   -0.42141  -0.33704  -0.28995
 Alpha virt. eigenvalues --   -0.13828  -0.00748   0.01777   0.04103   0.06140
 Alpha virt. eigenvalues --    0.09920   0.13772   0.14747   0.18951   0.21487
 Alpha virt. eigenvalues --    0.23937   0.30108   0.39384   0.41567   0.50965

 Mulliken charges:
               1
     1  C   -0.052378
     2  H    0.174658
     3  H    0.174658
     4  O   -0.296939
 Sum of Mulliken charges =   0.00000

 Dipole moment (field-independent basis, Debye):
    X=             -0.0000    Y=             -0.0000    Z=             -3.6539  Tot=              3.6539
 Quadrupole moment (field-independent basis, Debye-Ang):
   XX=            -12.6472   YY=            -11.8568   ZZ=            -11.4461
   XY=              0.0000   XZ=              0.0000   YZ=              0.0000

 Normal termination of Gaussian 16 at Fri Sep 17 10:52:58 2021.
