 Gaussian 16, Revision A.03,
 Gaussian 16:  ES64L-G16RevA.03 25-Dec-2016

 --------------------------------------------------------------------
 #p B3LYP/6-311+G** #p TD=(singlets,nstates=30)IOp(6/8=3) IOp(9/40=4)
 --------------------------------------------------------------------

 -------------------------------
 Scan Step 75, Bond Length 0.875
 -------------------------------
 Symbolic Z-matrix:
 Charge =  0 Multiplicity = 1

                         Standard orientation:
 ---------------------------------------------------------------------
 Center     Atomic      Atomic             Coordinates (Angstroms)
 Number     Number       Type             X           Y           Z
 ---------------------------------------------------------------------
      1          6           0        0.000000    0.000000   -0.363581
      2          1           0        0.000000    0.937260   -0.954931
      3          1           0       -0.000000   -0.937260   -0.954931
      4          8           0        0.000000   -0.000000    0.511419
 ---------------------------------------------------------------------

 SCF Done:  E(RB3LYP) =  -114.166643871     A.U. after    9 cycles

 Excitation energies and oscillator strengths:

 Excited State   1:      Singlet-A2     5.5444 eV  223.62 nm  f=0.0000  <S**2>=0.000
       3 -> 27         0.00278
       3 -> 35         0.00215
       3 -> 46         0.00113
       4 -> 10         0.00703
       4 -> 13         0.00853
       4 -> 17         0.00597
       4 -> 22        -0.00351
       4 -> 28         0.00297
       4 -> 32         0.00169
       4 -> 37         0.00336
       4 -> 43         0.00049
       4 -> 52         0.00067
       5 -> 27         0.00355
       5 -> 35        -0.00069
       5 -> 46        -0.00063
       6 -> 12        -0.00055
       6 -> 16        -0.00087
       6 -> 18        -0.00045
       6 -> 23         0.00170
       6 -> 24         0.00040
       6 -> 29        -0.00034
       6 -> 33         0.00024
       6 -> 36         0.00052
       6 -> 42         0.00050
       6 -> 47         0.00064
       6 -> 50        -0.00018
       6 -> 53         0.00026
       7 -> 27         0.00101
       7 -> 35        -0.00023
       7 -> 46         0.00109
       8 -> 10         0.69627
       8 -> 13         0.11920
       8 -> 17         0.03047
       8 -> 22        -0.00662
       8 -> 28         0.00489
       8 -> 32         0.00340
       8 -> 37        -0.00238
       8 -> 43        -0.00018
       8 -> 52         0.00087
       3 <- 27         0.00207
       3 <- 35         0.00184
       3 <- 46         0.00116
       4 <- 10         0.00025
       4 <- 13         0.00115
       4 <- 17         0.00013
       4 <- 22         0.00019
       4 <- 32        -0.00106
       4 <- 37         0.00155
       4 <- 43         0.00043
       4 <- 52         0.00017
       5 <- 27         0.00397
       5 <- 35        -0.00050
       5 <- 46        -0.00062
       6 <- 12        -0.00091
       6 <- 16         0.00162
       6 <- 18        -0.00305
       6 <- 23         0.00425
       6 <- 24        -0.00167
       6 <- 29         0.00165
       6 <- 33        -0.00083
       6 <- 36         0.00184
       6 <- 40        -0.00013
       6 <- 42         0.00083
       6 <- 47         0.00050
       6 <- 53         0.00068
       7 <- 27         0.00108
       7 <- 35        -0.00030
       7 <- 46         0.00088
       8 <- 10        -0.00751
       8 <- 13        -0.00862
       8 <- 17        -0.00431
       8 <- 22         0.00044
       8 <- 28        -0.00039
       8 <- 32         0.00286
       8 <- 37        -0.00224
       8 <- 52         0.00027
 This state for optimization and/or second-order correction.
 Total Energy, E(TD-HF/TD-DFT) =  -113.962890351
 Copying the excited state density for this state as the 1-particle RhoCI density.

 Excited State   2:      Singlet-B2     5.8320 eV  212.59 nm  f=0.0887  <S**2>=0.000
       3 -> 12         0.00088
       3 -> 16         0.00026
       3 -> 18         0.00100
       3 -> 24         0.00113
       3 -> 29        -0.00019
       3 -> 42         0.00015
       3 -> 50        -0.00015
       4 ->  9         0.00173
       4 -> 11         0.00649
       4 -> 14         0.00520
       4 -> 15         0.00161
       4 -> 19         0.00373
       4 -> 20         0.00126
       4 -> 21         0.00278
       4 -> 25         0.00125
       4 -> 26        -0.00114
       4 -> 30        -0.00215
       4 -> 31         0.00031
       4 -> 34         0.00037
       4 -> 38        -0.00080
       4 -> 39         0.00013
       4 -> 41         0.00043
       4 -> 44         0.00042
       4 -> 45        -0.00058
       4 -> 48         0.00038
       5 -> 12        -0.00640
       5 -> 16         0.00123
       5 -> 18         0.00124
       5 -> 23        -0.00243
       5 -> 24         0.00409
       5 -> 29        -0.00061
       5 -> 33        -0.00103
       5 -> 36         0.00088
       5 -> 40        -0.00016
       5 -> 42         0.00044
       6 -> 27         0.00107
       6 -> 35         0.00027
       6 -> 46         0.00086
       7 -> 12         0.00249
       7 -> 16         0.00320
       7 -> 18         0.00366
       7 -> 23        -0.00211
       7 -> 24         0.00246
       7 -> 29         0.00010
       7 -> 36        -0.00022
       7 -> 42        -0.00037
       7 -> 47         0.00040
       7 -> 50         0.00049
       8 ->  9         0.70625
       8 -> 11         0.01306
       8 -> 14        -0.02111
       8 -> 15         0.01143
       8 -> 19         0.02035
       8 -> 20        -0.00779
       8 -> 21        -0.00797
       8 -> 25         0.00067
       8 -> 26        -0.00052
       8 -> 31         0.00289
       8 -> 34         0.00151
       8 -> 38         0.00087
       8 -> 39        -0.00053
       8 -> 41        -0.00041
       8 -> 44        -0.00028
       8 -> 45        -0.00107
       8 -> 48         0.00034
       8 -> 54        -0.00014
       3 <- 12         0.00029
       3 <- 18         0.00060
       3 <- 24         0.00083
       3 <- 29        -0.00018
       3 <- 36        -0.00010
       3 <- 42         0.00012
       3 <- 53         0.00010
       4 <-  9         0.00204
       4 <- 11        -0.00011
       4 <- 14         0.00411
       4 <- 15         0.00175
       4 <- 19         0.00094
       4 <- 20         0.00044
       4 <- 21         0.00174
       4 <- 25         0.00164
       4 <- 26        -0.00125
       4 <- 30        -0.00079
       4 <- 31        -0.00016
       4 <- 34         0.00015
       4 <- 38        -0.00052
       4 <- 39         0.00016
       4 <- 41         0.00043
       4 <- 44         0.00029
       4 <- 45        -0.00052
       4 <- 48         0.00033
       5 <- 12        -0.00014
       5 <- 16         0.00112
       5 <- 18         0.00234
       5 <- 23        -0.00143
       5 <- 24         0.00314
       5 <- 29        -0.00049
       5 <- 33        -0.00077
       5 <- 36         0.00067
       5 <- 40        -0.00019
       5 <- 42         0.00020
       6 <- 27         0.00083
       6 <- 35         0.00021
       6 <- 46         0.00073
       7 <- 12         0.00068
       7 <- 16         0.00204
       7 <- 18         0.00126
       7 <- 23        -0.00086
       7 <- 24         0.00115
       7 <- 29         0.00073
       7 <- 42        -0.00032
       7 <- 47         0.00038
       7 <- 50         0.00055
       8 <-  9        -0.00456
       8 <- 11         0.00225
       8 <- 14        -0.01331
       8 <- 15        -0.00225
       8 <- 19        -0.00111
       8 <- 20         0.00024
       8 <- 21        -0.00426
       8 <- 25        -0.00312
       8 <- 26        -0.00065
       8 <- 30         0.00049
       8 <- 31         0.00154
       8 <- 34         0.00154
       8 <- 38         0.00086
       8 <- 39        -0.00044
       8 <- 41        -0.00027
       8 <- 44        -0.00031
       8 <- 45        -0.00078
       8 <- 48         0.00031

 Excited State   3:      Singlet-B2     6.6260 eV  187.12 nm  f=0.0228  <S**2>=0.000
       3 -> 12         0.00011
       3 -> 16        -0.00065
       3 -> 23        -0.00019
       3 -> 24        -0.00044
       3 -> 29        -0.00092
       3 -> 33        -0.00014
       3 -> 36         0.00029
       3 -> 42         0.00030
       3 -> 47        -0.00019
       3 -> 50        -0.00021
       3 -> 53         0.00010
       4 ->  9         0.00485
       4 -> 14        -0.00284
       4 -> 15        -0.00450
       4 -> 19         0.00317
       4 -> 20        -0.00061
       4 -> 21        -0.00139
       4 -> 25        -0.00094
       4 -> 26        -0.00121
       4 -> 30         0.00073
       4 -> 31         0.00217
       4 -> 34         0.00043
       4 -> 39         0.00079
       4 -> 41         0.00067
       4 -> 44        -0.00010
       4 -> 45        -0.00061
       4 -> 48         0.00042
       4 -> 51         0.00021
       5 -> 12        -0.00264
       5 -> 16        -0.00447
       5 -> 18        -0.00148
       5 -> 23         0.00137
       5 -> 24        -0.00372
       5 -> 29         0.00124
       5 -> 33        -0.00055
       5 -> 36         0.00011
       5 -> 40         0.00026
       5 -> 47        -0.00013
       5 -> 50        -0.00011
       6 -> 27         0.00087
       6 -> 35         0.00134
       6 -> 46         0.00104
       7 -> 12         0.00291
       7 -> 16         0.00014
       7 -> 18         0.00241
       7 -> 23        -0.00129
       7 -> 24         0.00043
       7 -> 33         0.00024
       7 -> 36        -0.00118
       7 -> 40         0.00031
       7 -> 42        -0.00064
       7 -> 47         0.00066
       7 -> 50         0.00058
       7 -> 53        -0.00017
       8 ->  9        -0.01338
       8 -> 11         0.70594
       8 -> 14         0.01811
       8 -> 15         0.02379
       8 -> 19         0.01679
       8 -> 20         0.01513
       8 -> 21         0.00310
       8 -> 25        -0.00039
       8 -> 26         0.00043
       8 -> 30        -0.00177
       8 -> 31        -0.00050
       8 -> 34        -0.00038
       8 -> 38         0.00014
       8 -> 39         0.00078
       8 -> 41         0.00124
       8 -> 44        -0.00012
       8 -> 45        -0.00069
       8 -> 48         0.00059
       8 -> 51         0.00011
       8 -> 54        -0.00016
       3 <- 12        -0.00022
       3 <- 16        -0.00060
       3 <- 18        -0.00022
       3 <- 24        -0.00049
       3 <- 29        -0.00061
       3 <- 33        -0.00017
       3 <- 36         0.00031
       3 <- 42         0.00026
       3 <- 47        -0.00015
       3 <- 50        -0.00011
       3 <- 53         0.00021
       4 <-  9        -0.00136
       4 <- 11        -0.00023
       4 <- 14        -0.00180
       4 <- 15        -0.00058
       4 <- 19        -0.00064
       4 <- 20         0.00030
       4 <- 21        -0.00102
       4 <- 25        -0.00093
       4 <- 26        -0.00094
       4 <- 30         0.00087
       4 <- 31         0.00085
       4 <- 34         0.00096
       4 <- 39         0.00058
       4 <- 41         0.00067
       4 <- 45        -0.00063
       4 <- 48         0.00029
       4 <- 51         0.00020
       5 <- 12        -0.00024
       5 <- 16        -0.00082
       5 <- 18        -0.00111
       5 <- 23         0.00126
       5 <- 24        -0.00185
       5 <- 29         0.00055
       5 <- 33        -0.00057
       5 <- 36        -0.00020
       5 <- 40         0.00026
       5 <- 50        -0.00019
       6 <- 27         0.00041
       6 <- 35         0.00111
       6 <- 46         0.00090
       7 <- 12         0.00037
       7 <- 16         0.00040
       7 <- 18         0.00021
       7 <- 23        -0.00024
       7 <- 29         0.00038
       7 <- 36        -0.00082
       7 <- 40         0.00024
       7 <- 42        -0.00045
       7 <- 47         0.00058
       7 <- 50         0.00054
       8 <-  9         0.00210
       8 <- 11         0.00134
       8 <- 14         0.00687
       8 <- 15         0.00166
       8 <- 19        -0.00190
       8 <- 20        -0.00207
       8 <- 21         0.00275
       8 <- 25         0.00044
       8 <- 26        -0.00078
       8 <- 30        -0.00122
       8 <- 31        -0.00112
       8 <- 38         0.00031
       8 <- 39         0.00054
       8 <- 41         0.00105
       8 <- 45        -0.00059
       8 <- 48         0.00038
       8 <- 51         0.00013

 Excited State   4:      Singlet-A1     6.7634 eV  183.32 nm  f=0.0400  <S**2>=0.000
       3 ->  9         0.00130
       3 -> 11         0.00080
       3 -> 15         0.00059
       3 -> 19         0.00132
       3 -> 20        -0.00031
       3 -> 21        -0.00032
       3 -> 25         0.00027
       3 -> 30        -0.00104
       3 -> 31        -0.00022
       3 -> 34        -0.00022
       3 -> 38        -0.00034
       3 -> 39        -0.00026
       3 -> 41        -0.00012
       3 -> 48        -0.00014
       3 -> 51        -0.00028
       3 -> 54         0.00020
       4 -> 12         0.00744
       4 -> 16         0.00801
       4 -> 18         0.00679
       4 -> 23         0.00087
       4 -> 24         0.00407
       4 -> 29         0.00066
       4 -> 33        -0.00016
       4 -> 36         0.00096
       4 -> 42        -0.00024
       4 -> 50        -0.00036
       4 -> 53        -0.00013
       5 ->  9         0.00565
       5 -> 11        -0.01063
       5 -> 14         0.00624
       5 -> 15         0.00221
       5 -> 19         0.00118
       5 -> 20        -0.00674
       5 -> 21         0.00196
       5 -> 25         0.00682
       5 -> 26        -0.00090
       5 -> 30         0.00083
       5 -> 31        -0.00076
       5 -> 34        -0.00106
       5 -> 38        -0.00032
       5 -> 39         0.00091
       5 -> 41         0.00013
       5 -> 44         0.00013
       5 -> 45        -0.00032
       5 -> 48        -0.00029
       6 -> 10         0.00724
       6 -> 13        -0.00319
       6 -> 17         0.00512
       6 -> 22         0.00401
       6 -> 28         0.00074
       6 -> 32         0.00090
       6 -> 37         0.00054
       6 -> 43         0.00047
       6 -> 49        -0.00037
       7 ->  9         0.01303
       7 -> 11         0.00536
       7 -> 14         0.00267
       7 -> 15        -0.00107
       7 -> 19         0.00804
       7 -> 20        -0.00273
       7 -> 21         0.00085
       7 -> 25         0.00192
       7 -> 30        -0.00027
       7 -> 31         0.00066
       7 -> 34        -0.00096
       7 -> 39         0.00024
       7 -> 48        -0.00021
       7 -> 51         0.00043
       8 -> 12         0.70543
       8 -> 16         0.04282
       8 -> 18        -0.00303
       8 -> 23         0.00323
       8 -> 24         0.00164
       8 -> 29         0.00343
       8 -> 33         0.00156
       8 -> 36        -0.00258
       8 -> 40         0.00013
       8 -> 42         0.00145
       8 -> 47        -0.00047
       8 -> 53        -0.00011
       3 <-  9         0.00057
       3 <- 11         0.00031
       3 <- 15         0.00029
       3 <- 19         0.00074
       3 <- 20        -0.00012
       3 <- 21        -0.00011
       3 <- 25         0.00031
       3 <- 30        -0.00062
       3 <- 31        -0.00019
       3 <- 34        -0.00017
       3 <- 38        -0.00025
       3 <- 39        -0.00022
       3 <- 41        -0.00013
       3 <- 48        -0.00016
       3 <- 51        -0.00024
       3 <- 54         0.00018
       4 <- 12         0.00263
       4 <- 16         0.00245
       4 <- 18         0.00337
       4 <- 23         0.00085
       4 <- 24         0.00219
       4 <- 29         0.00023
       4 <- 33        -0.00028
       4 <- 36         0.00083
       4 <- 42        -0.00021
       4 <- 50        -0.00029
       4 <- 53        -0.00012
       5 <-  9         0.00588
       5 <- 11        -0.00388
       5 <- 14         0.00469
       5 <- 15         0.00210
       5 <- 19         0.00086
       5 <- 20        -0.00380
       5 <- 21         0.00054
       5 <- 25         0.00418
       5 <- 26        -0.00040
       5 <- 30         0.00017
       5 <- 31        -0.00098
       5 <- 34        -0.00089
       5 <- 38        -0.00042
       5 <- 39         0.00075
       5 <- 44         0.00020
       5 <- 45        -0.00029
       5 <- 48        -0.00024
       6 <- 10         0.00268
       6 <- 13        -0.00132
       6 <- 17         0.00240
       6 <- 22         0.00242
       6 <- 28         0.00046
       6 <- 32         0.00069
       6 <- 37         0.00044
       6 <- 43         0.00040
       6 <- 49        -0.00032
       7 <-  9         0.00454
       7 <- 11         0.00133
       7 <- 14         0.00129
       7 <- 15        -0.00038
       7 <- 19         0.00350
       7 <- 20        -0.00162
       7 <- 21         0.00025
       7 <- 25         0.00116
       7 <- 30        -0.00033
       7 <- 31         0.00040
       7 <- 34        -0.00066
       7 <- 38        -0.00014
       7 <- 39         0.00030
       7 <- 45        -0.00012
       7 <- 48        -0.00010
       7 <- 51         0.00039
       8 <- 12        -0.00389
       8 <- 16         0.00549
       8 <- 18        -0.01104
       8 <- 23        -0.00103
       8 <- 24        -0.00191
       8 <- 29         0.00178
       8 <- 33         0.00120
       8 <- 36        -0.00184
       8 <- 42         0.00117
       8 <- 47        -0.00054
       8 <- 53        -0.00013

 Excited State   5:      Singlet-A2     7.5964 eV  163.22 nm  f=0.0000  <S**2>=0.000
       3 -> 27         0.00187
       3 -> 35         0.00152
       3 -> 46         0.00073
       4 -> 10         0.00786
       4 -> 13         0.00854
       4 -> 17        -0.00191
       4 -> 22        -0.00162
       4 -> 28         0.00038
       4 -> 32         0.00223
       4 -> 37         0.00262
       4 -> 43         0.00032
       4 -> 49        -0.00010
       4 -> 52         0.00043
       5 -> 27         0.00114
       5 -> 35        -0.00077
       5 -> 46        -0.00025
       6 -> 12         0.00017
       6 -> 16        -0.00196
       6 -> 18        -0.00039
       6 -> 23         0.00139
       6 -> 24         0.00016
       6 -> 29        -0.00038
       6 -> 36         0.00040
       6 -> 42         0.00040
       6 -> 47         0.00039
       6 -> 53         0.00018
       7 -> 27         0.00029
       7 -> 35        -0.00020
       7 -> 46         0.00078
       8 -> 10        -0.11990
       8 -> 13         0.69635
       8 -> 17         0.00850
       8 -> 22        -0.02348
       8 -> 28         0.00214
       8 -> 32         0.00172
       8 -> 37        -0.00127
       8 -> 43        -0.00017
       8 -> 49        -0.00015
       8 -> 52         0.00048
       3 <- 27         0.00115
       3 <- 35         0.00124
       3 <- 46         0.00083
       4 <- 10         0.00032
       4 <- 13         0.00036
       4 <- 17        -0.00047
       4 <- 22         0.00010
       4 <- 32        -0.00033
       4 <- 37         0.00087
       4 <- 43         0.00025
       4 <- 52         0.00014
       5 <- 27         0.00171
       5 <- 35        -0.00011
       5 <- 46        -0.00030
       6 <- 12         0.00041
       6 <- 16        -0.00045
       6 <- 18        -0.00082
       6 <- 23         0.00267
       6 <- 24        -0.00062
       6 <- 29         0.00012
       6 <- 33        -0.00074
       6 <- 36         0.00139
       6 <- 42         0.00076
       6 <- 47         0.00018
       6 <- 53         0.00040
       7 <- 27         0.00052
       7 <- 35        -0.00027
       7 <- 46         0.00041
       8 <- 10        -0.00703
       8 <- 13        -0.00174
       8 <- 17        -0.00112
       8 <- 22         0.00058
       8 <- 28        -0.00028
       8 <- 32         0.00130
       8 <- 37        -0.00112
       8 <- 52         0.00019

 Excited State   6:      Singlet-B2     9.8665 eV  125.66 nm  f=0.2552  <S**2>=0.000

 The electronic state is 1-A1.
 Alpha  occ. eigenvalues --  -19.13894 -10.23638  -1.27935  -0.61979  -0.59337
 Alpha  occ. eigenvalues --   -0.57254  -0.52382  -0.23896
 Alpha virt. eigenvalues --    0.01393   0.01764   0.04416   0.04425   0.09359
 Alpha virt. eigenvalues --    0.14245   0.17727   0.20308   0.21855   0.23473
 Alpha virt. eigenvalues --    0.25966   0.36397   0.50204   0.52931   0.53966

 Mulliken charges:
               1
     1  C    0.230285
     2  H   -0.005469
     3  H   -0.005469
     4  O   -0.219347
 Sum of Mulliken charges =   0.00000

 Dipole moment (field-independent basis, Debye):
    X=              0.0000    Y=              0.0000    Z=             -0.4171  Tot=              0.4171
 Quadrupole moment (field-independent basis, Debye-Ang):
   XX=            -10.7437   YY=            -12.4145   ZZ=            -13.2488
   XY=             -0.0000   XZ=             -0.0000   YZ=             -0.0000

 Normal termination of Gaussian 16 at Fri Sep 17 10:52:31 2021.
