 Gaussian 16, Revision C.01,
 Gaussian 16:  ES64L-G16RevC.01  3-Jul-2019

 ---------------------------------------
 #P wB97XD/6-311+G* NoSymm #P Field=X-29
 ---------------------------------------

 -------
 TitleMe
 -------
 Symbolic Z-matrix:
 Charge =  1 Multiplicity = 1

                          Input orientation:
 ---------------------------------------------------------------------
 Center     Atomic      Atomic             Coordinates (Angstroms)
 Number     Number       Type             X           Y           Z
 ---------------------------------------------------------------------
      1          6           0        0.519300    1.233000   -0.031900
      2          6           0        1.944500    1.269200   -0.036700
      3          6           0        2.620400    0.092800   -0.025000
      4          6           0       -0.196000    0.030100    0.001000
      5          1           0       -0.020700    2.174200   -0.043400
      6          1           0        2.482800    2.208900   -0.036100
      7          1           0       -1.277700    0.039900    0.011700
      8          7           0        4.092100    0.095900    0.036600
      9          8           0        4.639300   -1.021700    0.144600
     10          8           0        4.664900    1.198400   -0.023300
     11          6           0        0.494300   -1.167100    0.021000
     12          1           0       -0.032500   -2.114900    0.054500
     13          6           0        1.962900   -1.216500   -0.021100
     14          1           0        2.443600   -1.963100    0.615100
     15         35           0        2.173000   -1.949100   -1.906200
 ---------------------------------------------------------------------

 SCF Done:  E(RwB97XD) =  -3010.53554977     A.U. after   20 cycles

 Alpha  occ. eigenvalues -- -483.30036 -62.85053 -56.64751 -56.64177 -56.64165
 Alpha  occ. eigenvalues --  -19.44362 -19.44358 -14.83832 -10.58092 -10.56887
 Alpha  occ. eigenvalues --  -10.56395 -10.56086 -10.52175 -10.52012  -9.00855
 Alpha  occ. eigenvalues --   -6.83546  -6.81662  -6.81626  -2.93447  -2.92953
 Alpha  occ. eigenvalues --   -2.92924  -2.91417  -2.91416  -1.48064  -1.31003
 Alpha  occ. eigenvalues --   -1.21359  -1.11830  -1.11298  -1.03647  -0.99066
 Alpha  occ. eigenvalues --   -0.94342  -0.89487  -0.83612  -0.79506  -0.78913
 Alpha  occ. eigenvalues --   -0.78517  -0.76873  -0.74630  -0.74322  -0.70930
 Alpha  occ. eigenvalues --   -0.67672  -0.66569  -0.62371  -0.58703  -0.55576
 Alpha  occ. eigenvalues --   -0.55167  -0.54778  -0.54033  -0.53206
 Alpha virt. eigenvalues --   -0.29019  -0.18987  -0.14483  -0.11833  -0.08306
 Alpha virt. eigenvalues --   -0.05762  -0.05133  -0.03901  -0.03608  -0.02542
 Alpha virt. eigenvalues --   -0.01543  -0.00646  -0.00300   0.00467   0.01640

 Mulliken charges:
               1
     1  C   -0.106585
     2  C    0.180622
     3  C   -0.058564
     4  C   -0.332585
     5  H    0.337891
     6  H    0.353875
     7  H    0.316559
     8  N   -0.240890
     9  O    0.099597
    10  O    0.083736
    11  C   -0.215523
    12  H    0.349427
    13  C   -0.372141
    14  H    0.414852
    15  Br   0.189731
 Sum of Mulliken charges =   1.00000

 Dipole moment (field-independent basis, Debye):
    X=              3.6074    Y=             -0.9487    Z=             -0.7927  Tot=              3.8134
 Quadrupole moment (field-independent basis, Debye-Ang):
   XX=            -64.6432   YY=            -51.0886   ZZ=            -62.0762
   XY=             -3.1725   XZ=             -2.7918   YZ=              2.5579

 Normal termination of Gaussian 16 at Thu May  2 14:19:25 2024.
