 Gaussian 16, Revision A.03,
 Gaussian 16:  ES64L-G16RevA.03 25-Dec-2016

 --------------------------------------------------------------------
 #p B3LYP/6-311+G** #p TD=(singlets,nstates=30)IOp(6/8=3) IOp(9/40=4)
 --------------------------------------------------------------------

 ------------------------------
 Scan Step 160, Bond Length 1.3
 ------------------------------
 Symbolic Z-matrix:
 Charge =  0 Multiplicity = 1

                         Standard orientation:
 ---------------------------------------------------------------------
 Center     Atomic      Atomic             Coordinates (Angstroms)
 Number     Number       Type             X           Y           Z
 ---------------------------------------------------------------------
      1          6           0        0.000000    0.000000   -0.576081
      2          1           0        0.000000    0.937260   -1.167431
      3          1           0       -0.000000   -0.937260   -1.167431
      4          8           0        0.000000   -0.000000    0.723919
 ---------------------------------------------------------------------

 SCF Done:  E(RB3LYP) =  -114.529421347     A.U. after    9 cycles

 Excitation energies and oscillator strengths:

 Excited State   1:      Singlet-A2     3.3962 eV  365.06 nm  f=0.0000  <S**2>=0.000
       3 -> 27         0.00216
       3 -> 38         0.00180
       3 -> 45         0.00275
       4 -> 27         0.00154
       4 -> 38        -0.00044
       4 -> 45        -0.00138
       5 ->  9         0.01889
       5 -> 13        -0.00149
       5 -> 17         0.00507
       5 -> 23         0.00061
       5 -> 29         0.00428
       5 -> 31        -0.00156
       5 -> 37         0.00292
       5 -> 44         0.00055
       5 -> 48         0.00014
       5 -> 52         0.00068
       6 -> 27        -0.00033
       6 -> 38        -0.00088
       6 -> 45         0.00175
       7 -> 12        -0.00063
       7 -> 15         0.00336
       7 -> 18        -0.00313
       7 -> 22         0.00028
       7 -> 25         0.00139
       7 -> 30        -0.00104
       7 -> 33         0.00045
       7 -> 35         0.00017
       7 -> 40         0.00016
       7 -> 42        -0.00012
       7 -> 49         0.00024
       7 -> 50         0.00031
       7 -> 53         0.00048
       8 ->  9         0.70629
       8 -> 13        -0.03236
       8 -> 17         0.02257
       8 -> 23        -0.00871
       8 -> 29         0.01003
       8 -> 31        -0.00160
       8 -> 37         0.00028
       8 -> 48        -0.00027
       8 -> 52         0.00180
       3 <- 27         0.00133
       3 <- 38         0.00146
       3 <- 45         0.00284
       4 <- 27         0.00232
       4 <- 38         0.00012
       4 <- 45        -0.00115
       5 <-  9        -0.00055
       5 <- 13        -0.00077
       5 <- 17        -0.00101
       5 <- 23         0.00049
       5 <- 29        -0.00071
       5 <- 31         0.00073
       5 <- 37         0.00145
       5 <- 44         0.00021
       5 <- 48         0.00014
       5 <- 52         0.00018
       6 <- 27         0.00027
       6 <- 38        -0.00077
       6 <- 45         0.00137
       7 <- 12        -0.00058
       7 <- 15        -0.00807
       7 <- 18         0.00107
       7 <- 22         0.00747
       7 <- 30         0.00397
       7 <- 33        -0.00119
       7 <- 35         0.00212
       7 <- 40         0.00090
       7 <- 50         0.00021
       7 <- 53         0.00135
       8 <-  9        -0.02894
       8 <- 13         0.00227
       8 <- 17        -0.00481
       8 <- 23         0.00074
       8 <- 29        -0.00131
       8 <- 31        -0.00061
       8 <- 37        -0.00116
       8 <- 52         0.00051
 This state for optimization and/or second-order correction.
 Total Energy, E(TD-HF/TD-DFT) =  -114.404612315
 Copying the excited state density for this state as the 1-particle RhoCI density.

 Excited State   2:      Singlet-B2     6.9406 eV  178.64 nm  f=0.0195  <S**2>=0.000
       3 -> 12         0.00166
       3 -> 15         0.00065
       3 -> 18         0.00129
       3 -> 22        -0.00034
       3 -> 25         0.00121
       3 -> 33         0.00025
       3 -> 35        -0.00051
       3 -> 40        -0.00021
       3 -> 49         0.00014
       4 -> 12        -0.00251
       4 -> 15         0.00204
       4 -> 18         0.00184
       4 -> 22        -0.00322
       4 -> 25         0.00309
       4 -> 30         0.00034
       4 -> 33        -0.00031
       4 -> 35         0.00044
       4 -> 40         0.00043
       4 -> 42        -0.00013
       5 -> 10        -0.00820
       5 -> 11        -0.00696
       5 -> 14         0.00710
       5 -> 16        -0.00064
       5 -> 19        -0.00263
       5 -> 20         0.00270
       5 -> 21         0.00577
       5 -> 24        -0.00061
       5 -> 26         0.00210
       5 -> 28         0.00099
       5 -> 32        -0.00106
       5 -> 34        -0.00099
       5 -> 36        -0.00018
       5 -> 39        -0.00023
       5 -> 41        -0.00049
       5 -> 43        -0.00047
       5 -> 46        -0.00020
       5 -> 54         0.00012
       6 -> 12        -0.00080
       6 -> 15         0.00141
       6 -> 18         0.00121
       6 -> 22        -0.00224
       6 -> 25         0.00095
       6 -> 30        -0.00052
       6 -> 33        -0.00028
       6 -> 35         0.00060
       6 -> 42        -0.00016
       6 -> 49         0.00043
       6 -> 50        -0.00021
       7 -> 38        -0.00068
       7 -> 45         0.00018
       8 -> 10         0.70263
       8 -> 11        -0.07340
       8 -> 14         0.01991
       8 -> 16        -0.00393
       8 -> 19         0.00080
       8 -> 20         0.01755
       8 -> 21        -0.00232
       8 -> 26         0.00296
       8 -> 28         0.00108
       8 -> 32         0.00095
       8 -> 34         0.00072
       8 -> 36         0.00029
       8 -> 39         0.00031
       8 -> 41        -0.00024
       8 -> 43         0.00059
       8 -> 46        -0.00035
       8 -> 47         0.00016
       8 -> 51        -0.00016
       8 -> 54         0.00022
       3 <- 12         0.00037
       3 <- 15         0.00051
       3 <- 18         0.00048
       3 <- 22        -0.00052
       3 <- 25         0.00066
       3 <- 30        -0.00011
       3 <- 33         0.00021
       3 <- 35        -0.00046
       3 <- 40        -0.00022
       3 <- 49         0.00019
       4 <- 12         0.00077
       4 <- 15         0.00197
       4 <- 18         0.00175
       4 <- 22        -0.00202
       4 <- 25         0.00209
       4 <- 30         0.00024
       4 <- 33        -0.00014
       4 <- 35         0.00019
       4 <- 40         0.00011
       4 <- 42        -0.00022
       4 <- 50        -0.00014
       5 <- 10         0.00226
       5 <- 11        -0.00023
       5 <- 14         0.00461
       5 <- 16        -0.00053
       5 <- 19        -0.00038
       5 <- 20         0.00074
       5 <- 21         0.00169
       5 <- 24        -0.00214
       5 <- 26         0.00142
       5 <- 28         0.00011
       5 <- 32        -0.00079
       5 <- 34        -0.00088
       5 <- 36        -0.00024
       5 <- 39        -0.00013
       5 <- 41        -0.00030
       5 <- 43        -0.00037
       5 <- 46        -0.00018
       6 <- 15        -0.00027
       6 <- 18         0.00096
       6 <- 22        -0.00044
       6 <- 25         0.00032
       6 <- 30         0.00037
       6 <- 33        -0.00033
       6 <- 35         0.00064
       6 <- 42        -0.00014
       6 <- 49         0.00034
       6 <- 50        -0.00023
       6 <- 53         0.00017
       7 <- 38        -0.00050
       7 <- 45         0.00018
       8 <- 10        -0.00143
       8 <- 11        -0.00063
       8 <- 14        -0.00428
       8 <- 16        -0.00057
       8 <- 19         0.00041
       8 <- 20        -0.00071
       8 <- 21        -0.00145
       8 <- 24         0.00177
       8 <- 26        -0.00087
       8 <- 28        -0.00041
       8 <- 32         0.00090
       8 <- 36         0.00031
       8 <- 39         0.00019
       8 <- 43         0.00036
       8 <- 46        -0.00018

 Excited State   3:      Singlet-B2     7.6768 eV  161.51 nm  f=0.0281  <S**2>=0.000
       3 -> 12        -0.00035
       3 -> 15        -0.00106
       3 -> 18         0.00120
       3 -> 22         0.00052
       3 -> 30         0.00263
       3 -> 33         0.00016
       3 -> 35        -0.00068
       3 -> 40        -0.00058
       3 -> 49         0.00066
       3 -> 50        -0.00018
       4 -> 12         0.00237
       4 -> 15         0.00050
       4 -> 18         0.00169
       4 -> 22        -0.00149
       4 -> 25         0.00272
       4 -> 30        -0.00145
       4 -> 33         0.00048
       4 -> 35        -0.00059
       4 -> 49         0.00022
       5 -> 10        -0.00504
       5 -> 11        -0.00016
       5 -> 14         0.01020
       5 -> 16        -0.00667
       5 -> 19        -0.00013
       5 -> 20        -0.00469
       5 -> 21         0.00276
       5 -> 24        -0.00074
       5 -> 26         0.00170
       5 -> 28         0.00153
       5 -> 34        -0.00078
       5 -> 36        -0.00044
       5 -> 39         0.00048
       5 -> 41        -0.00065
       5 -> 43         0.00021
       5 -> 46         0.00092
       5 -> 51        -0.00043
       6 -> 12        -0.00275
       6 -> 15        -0.00132
       6 -> 18        -0.00072
       6 -> 22         0.00105
       6 -> 25         0.00017
       6 -> 30         0.00121
       6 -> 33        -0.00055
       6 -> 35         0.00149
       6 -> 40         0.00116
       6 -> 49        -0.00134
       6 -> 50         0.00027
       6 -> 53         0.00012
       7 -> 27         0.00029
       7 -> 38        -0.00080
       7 -> 45        -0.00211
       8 -> 10         0.07337
       8 -> 11         0.70213
       8 -> 14         0.00023
       8 -> 16         0.00847
       8 -> 19        -0.03706
       8 -> 20        -0.00291
       8 -> 21        -0.00264
       8 -> 24         0.00069
       8 -> 26        -0.00044
       8 -> 28         0.00244
       8 -> 32         0.00010
       8 -> 34        -0.00021
       8 -> 36        -0.00028
       8 -> 39        -0.00027
       8 -> 41        -0.00106
       8 -> 43         0.00040
       8 -> 46         0.00251
       8 -> 51        -0.00115
       3 <- 12         0.00034
       3 <- 15        -0.00034
       3 <- 18         0.00105
       3 <- 25         0.00019
       3 <- 30         0.00139
       3 <- 33         0.00027
       3 <- 35        -0.00069
       3 <- 40        -0.00053
       3 <- 49         0.00060
       3 <- 50        -0.00012
       3 <- 53        -0.00035
       4 <- 12         0.00028
       4 <- 15         0.00088
       4 <- 18         0.00035
       4 <- 22        -0.00118
       4 <- 25         0.00117
       4 <- 30        -0.00078
       4 <- 33         0.00046
       4 <- 35        -0.00032
       4 <- 49         0.00017
       5 <- 10         0.00116
       5 <- 11        -0.00142
       5 <- 14         0.00276
       5 <- 16        -0.00043
       5 <- 19         0.00158
       5 <- 20        -0.00034
       5 <- 21         0.00086
       5 <- 24        -0.00142
       5 <- 26         0.00015
       5 <- 28         0.00063
       5 <- 32        -0.00082
       5 <- 34         0.00012
       5 <- 36         0.00012
       5 <- 39         0.00012
       5 <- 41        -0.00069
       5 <- 43         0.00011
       5 <- 46         0.00088
       5 <- 47        -0.00010
       5 <- 51        -0.00030
       6 <- 12        -0.00026
       6 <- 15        -0.00118
       6 <- 18         0.00043
       6 <- 22         0.00099
       6 <- 25        -0.00015
       6 <- 30         0.00126
       6 <- 33        -0.00049
       6 <- 35         0.00133
       6 <- 40         0.00094
       6 <- 49        -0.00109
       6 <- 50         0.00020
       7 <- 27         0.00040
       7 <- 38        -0.00063
       7 <- 45        -0.00176
       8 <- 10        -0.00089
       8 <- 11        -0.00216
       8 <- 14        -0.00364
       8 <- 16         0.00039
       8 <- 19         0.00562
       8 <- 20         0.00056
       8 <- 21        -0.00192
       8 <- 24        -0.00050
       8 <- 26        -0.00165
       8 <- 28         0.00067
       8 <- 32        -0.00134
       8 <- 34         0.00169
       8 <- 39        -0.00077
       8 <- 41        -0.00100
       8 <- 43         0.00018
       8 <- 46         0.00202
       8 <- 47        -0.00029
       8 <- 51        -0.00075

 Excited State   4:      Singlet-A1     7.9605 eV  155.75 nm  f=0.0300  <S**2>=0.000
       3 -> 10         0.00251
       3 -> 11         0.00050
       3 -> 14         0.00176
       3 -> 16        -0.00010
       3 -> 19        -0.00371
       3 -> 20         0.00226
       3 -> 21         0.00141
       3 -> 24         0.00120
       3 -> 26         0.00179
       3 -> 28         0.00088
       3 -> 32         0.00034
       3 -> 34        -0.00110
       3 -> 36        -0.00024
       3 -> 39         0.00016
       3 -> 41        -0.00017
       3 -> 43         0.00012
       3 -> 46         0.00031
       3 -> 47        -0.00026
       3 -> 51        -0.00013
       3 -> 54        -0.00014
       4 -> 10         0.00624
       4 -> 11         0.00310
       4 -> 14         0.00511
       4 -> 16         0.00080
       4 -> 19         0.00081
       4 -> 20         0.00319
       4 -> 21        -0.00083
       4 -> 24        -0.00698
       4 -> 26         0.00262
       4 -> 28        -0.00019
       4 -> 32        -0.00066
       4 -> 34         0.00049
       4 -> 36         0.00014
       4 -> 43         0.00016
       4 -> 46        -0.00023
       4 -> 47        -0.00014
       4 -> 51        -0.00012
       5 -> 12         0.00685
       5 -> 15         0.00554
       5 -> 18         0.00858
       5 -> 22        -0.00273
       5 -> 25         0.00618
       5 -> 30        -0.00058
       5 -> 33        -0.00038
       5 -> 35         0.00078
       5 -> 40         0.00017
       5 -> 50         0.00011
       5 -> 53        -0.00013
       6 -> 10         0.00823
       6 -> 11        -0.00461
       6 -> 14         0.00298
       6 -> 16        -0.00245
       6 -> 19         0.00622
       6 -> 20        -0.00150
       6 -> 21        -0.00365
       6 -> 24        -0.00642
       6 -> 26        -0.00139
       6 -> 28        -0.00305
       6 -> 32        -0.00019
       6 -> 34        -0.00036
       6 -> 36         0.00014
       6 -> 39         0.00025
       6 -> 43         0.00018
       6 -> 47         0.00080
       6 -> 51         0.00023
       6 -> 54        -0.00013
       7 ->  9         0.07155
       7 -> 13         0.01438
       7 -> 17        -0.00180
       7 -> 23         0.00546
       7 -> 29        -0.00131
       7 -> 31        -0.00107
       7 -> 37         0.00057
       7 -> 44         0.00055
       7 -> 48        -0.00027
       8 -> 12         0.70236
       8 -> 15         0.01336
       8 -> 18         0.02735
       8 -> 22        -0.00110
       8 -> 25         0.00539
       8 -> 30        -0.00201
       8 -> 33         0.00206
       8 -> 35        -0.00241
       8 -> 40         0.00012
       8 -> 49        -0.00044
       8 -> 50         0.00025
       8 -> 53        -0.00031
       3 <- 10         0.00080
       3 <- 11         0.00091
       3 <- 14         0.00095
       3 <- 16         0.00016
       3 <- 19        -0.00219
       3 <- 20         0.00100
       3 <- 21         0.00100
       3 <- 24         0.00049
       3 <- 26         0.00123
       3 <- 28         0.00059
       3 <- 32         0.00043
       3 <- 34        -0.00074
       3 <- 36        -0.00015
       3 <- 39         0.00013
       3 <- 43         0.00011
       3 <- 46         0.00039
       3 <- 47        -0.00018
       3 <- 51        -0.00010
       3 <- 54        -0.00013
       4 <- 10         0.00431
       4 <- 11         0.00036
       4 <- 14         0.00345
       4 <- 19         0.00031
       4 <- 20         0.00182
       4 <- 21        -0.00061
       4 <- 24        -0.00377
       4 <- 26         0.00160
       4 <- 32        -0.00089
       4 <- 41        -0.00015
       4 <- 43         0.00013
       4 <- 46        -0.00014
       4 <- 47        -0.00012
       5 <- 12         0.00313
       5 <- 15         0.00370
       5 <- 18         0.00313
       5 <- 22        -0.00108
       5 <- 25         0.00336
       5 <- 30        -0.00029
       5 <- 33        -0.00046
       5 <- 35         0.00069
       5 <- 53        -0.00011
       6 <- 10         0.00199
       6 <- 11        -0.00047
       6 <- 14         0.00120
       6 <- 16        -0.00084
       6 <- 19         0.00200
       6 <- 20        -0.00057
       6 <- 21        -0.00188
       6 <- 24        -0.00312
       6 <- 26        -0.00063
       6 <- 28        -0.00196
       6 <- 32        -0.00028
       6 <- 34        -0.00034
       6 <- 39         0.00013
       6 <- 43         0.00011
       6 <- 46        -0.00017
       6 <- 47         0.00065
       6 <- 51         0.00024
       6 <- 54        -0.00011
       7 <-  9        -0.00769
       7 <- 13         0.00316
       7 <- 17        -0.00132
       7 <- 23         0.00294
       7 <- 29        -0.00111
       7 <- 31        -0.00065
       7 <- 37         0.00042
       7 <- 44         0.00048
       7 <- 48        -0.00027
       8 <- 12        -0.00017
       8 <- 15        -0.00168
       8 <- 18        -0.00185
       8 <- 22        -0.00110
       8 <- 25        -0.00104
       8 <- 30        -0.00181
       8 <- 33         0.00083
       8 <- 35        -0.00096
       8 <- 40         0.00026
       8 <- 49        -0.00044
       8 <- 50         0.00015
       8 <- 53        -0.00031

 Excited State   5:      Singlet-B1     8.0198 eV  154.60 nm  f=0.0013  <S**2>=0.000
       3 ->  9        -0.03352
       3 -> 13         0.00456
       3 -> 17        -0.00682
       3 -> 23         0.00373
       3 -> 29        -0.00238
       3 -> 31        -0.00033
       3 -> 44         0.00061
       3 -> 48         0.00025
       3 -> 52         0.00113
       4 ->  9         0.01672
       4 -> 13        -0.00275
       4 -> 17         0.00092
       4 -> 23        -0.00249
       4 -> 31        -0.00238
       4 -> 37        -0.00042
       4 -> 48        -0.00159
       4 -> 52        -0.00095
       5 -> 27        -0.00163
       5 -> 38         0.00207
       5 -> 45         0.00264
       6 ->  9         0.70523
       6 -> 13        -0.03263
       6 -> 17         0.02212
       6 -> 23        -0.01235
       6 -> 29         0.00753
       6 -> 31         0.00382
       6 -> 37        -0.00262
       6 -> 44        -0.00352
       6 -> 48         0.00545
       6 -> 52         0.00193
       7 -> 10         0.00233
       7 -> 11         0.00655
       7 -> 16        -0.01226
       7 -> 19        -0.00311
       7 -> 20         0.00231
       7 -> 21         0.00343
       7 -> 24         0.00240
       7 -> 26         0.00183
       7 -> 28        -0.00473
       7 -> 32        -0.00129
       7 -> 34         0.00011
       7 -> 36        -0.00155
       7 -> 39         0.00027
       7 -> 41        -0.00199
       7 -> 43         0.00100
       7 -> 46         0.00488
       7 -> 47         0.00237
       7 -> 51         0.00110
       7 -> 54         0.00055
       8 -> 27         0.00270
       8 -> 38         0.00091
       8 -> 45         0.00678
       3 <-  9        -0.01048
       3 <- 13         0.00064
       3 <- 17        -0.00336
       3 <- 23         0.00041
       3 <- 29        -0.00145
       3 <- 31        -0.00022
       3 <- 37        -0.00015
       3 <- 44        -0.00013
       3 <- 48         0.00053
       3 <- 52         0.00091
       4 <-  9         0.00552
       4 <- 17         0.00249
       4 <- 23        -0.00030
       4 <- 29         0.00225

 The electronic state is 1-A1.
 Alpha  occ. eigenvalues --  -19.15731 -10.29396  -1.02797  -0.66007  -0.49582
 Alpha  occ. eigenvalues --   -0.45215  -0.38629  -0.28701
 Alpha virt. eigenvalues --   -0.08888   0.00475   0.03645   0.04206   0.06312
 Alpha virt. eigenvalues --    0.12456   0.16792   0.18769   0.21885   0.23510
 Alpha virt. eigenvalues --    0.24867   0.30909   0.42947   0.44817   0.50926

 Mulliken charges:
               1
     1  C   -0.002873
     2  H    0.135017
     3  H    0.135017
     4  O   -0.267161
 Sum of Mulliken charges =  -0.00000

 Dipole moment (field-independent basis, Debye):
    X=             -0.0000    Y=              0.0000    Z=             -2.8957  Tot=              2.8957
 Quadrupole moment (field-independent basis, Debye-Ang):
   XX=            -12.0355   YY=            -11.7327   ZZ=            -12.1767
   XY=              0.0000   XZ=              0.0000   YZ=             -0.0000

 Normal termination of Gaussian 16 at Fri Sep 17 10:52:48 2021.
