 Gaussian 16, Revision A.03,
 Gaussian 16:  ES64L-G16RevA.03 25-Dec-2016

 --------------------------------------------------------------------
 #p B3LYP/6-311+G** #p TD=(singlets,nstates=30)IOp(6/8=3) IOp(9/40=4)
 --------------------------------------------------------------------

 ---------------------------------------------
 Scan Step 280, Bond Length 1.9000000000000001
 ---------------------------------------------
 Symbolic Z-matrix:
 Charge =  0 Multiplicity = 1

                         Standard orientation:
 ---------------------------------------------------------------------
 Center     Atomic      Atomic             Coordinates (Angstroms)
 Number     Number       Type             X           Y           Z
 ---------------------------------------------------------------------
      1          6           0        0.000000   -0.000000   -0.876081
      2          1           0        0.000000    0.937260   -1.467431
      3          1           0       -0.000000   -0.937260   -1.467431
      4          8           0        0.000000    0.000000    1.023919
 ---------------------------------------------------------------------

 SCF Done:  E(RB3LYP) =  -114.324930797     A.U. after   12 cycles

 Excitation energies and oscillator strengths:

 Excited State   1:      Singlet-A2     1.1465 eV 1081.41 nm  f=0.0000  <S**2>=0.000
       3 -> 27         0.00063
       3 -> 38         0.00037
       3 -> 47         0.00331
       4 -> 27         0.00032
       4 -> 47        -0.00086
       5 ->  9         0.00068
       5 -> 13         0.00107
       5 -> 18         0.00146
       5 -> 23         0.00126
       5 -> 28         0.00108
       5 -> 37         0.00063
       5 -> 44         0.00018
       5 -> 52         0.00015
       6 -> 27        -0.00054
       6 -> 38        -0.00051
       6 -> 47         0.00084
       7 -> 12        -0.00138
       7 -> 16         0.00537
       7 -> 19        -0.00485
       7 -> 22        -0.00114
       7 -> 25        -0.00048
       7 -> 29        -0.00200
       7 -> 33         0.00026
       7 -> 49         0.00013
       7 -> 53         0.00036
       8 ->  9         0.71158
       8 -> 13        -0.00565
       8 -> 18         0.02050
       8 -> 23        -0.00055
       8 -> 28         0.00997
       8 -> 31         0.00161
       8 -> 37         0.00046
       8 -> 46        -0.00028
       8 -> 52         0.00182
       3 <- 27         0.00014
       3 <- 38         0.00016
       3 <- 47         0.00333
       4 <- 27         0.00062
       4 <- 38         0.00017
       4 <- 47        -0.00066
       5 <-  9         0.00052
       5 <- 13        -0.00029
       5 <- 18        -0.00031
       5 <- 23         0.00014
       5 <- 28        -0.00024
       5 <- 31         0.00020
       5 <- 37         0.00037
       6 <- 38        -0.00038
       6 <- 47         0.00061
       7 <- 12         0.00209
       7 <- 16        -0.01051
       7 <- 19         0.00600
       7 <- 22         0.00533
       7 <- 25        -0.00064
       7 <- 29         0.00565
       7 <- 33        -0.00034
       7 <- 49        -0.00047
       7 <- 53         0.00144
       8 <-  9        -0.08179
       8 <- 13        -0.00063
       8 <- 18        -0.00794
       8 <- 23        -0.00042
       8 <- 28        -0.00280
       8 <- 31        -0.00085
       8 <- 37        -0.00016
       8 <- 46         0.00013
       8 <- 52         0.00042
 This state for optimization and/or second-order correction.
 Total Energy, E(TD-HF/TD-DFT) =  -114.282797542
 Copying the excited state density for this state as the 1-particle RhoCI density.

 Excited State   2:      Singlet-A1     3.0090 eV  412.04 nm  f=0.0239  <S**2>=0.000
       3 -> 10        -0.01268
       3 -> 11        -0.00230
       3 -> 14         0.00044
       3 -> 15         0.00015
       3 -> 17        -0.00292
       3 -> 20        -0.00327
       3 -> 21         0.00063
       3 -> 24         0.00021
       3 -> 26         0.00088
       3 -> 32         0.00266
       3 -> 34         0.00096
       3 -> 36        -0.00090
       3 -> 39        -0.00033
       3 -> 43         0.00047
       3 -> 45        -0.00118
       3 -> 48         0.00231
       3 -> 50         0.00163
       3 -> 54        -0.00012
       4 -> 10        -0.00047
       4 -> 11         0.00939
       4 -> 14         0.00144
       4 -> 15        -0.00715
       4 -> 17         0.00199
       4 -> 20         0.00162
       4 -> 21         0.00021
       4 -> 24        -0.00361
       4 -> 26         0.00285
       4 -> 30         0.00012
       4 -> 32        -0.00108
       4 -> 34        -0.00067
       4 -> 39        -0.00026
       4 -> 43        -0.00042
       4 -> 45         0.00075
       4 -> 48        -0.00069
       4 -> 50        -0.00024
       4 -> 54         0.00014
       5 -> 12         0.00827
       5 -> 16         0.00155
       5 -> 19         0.00102
       5 -> 22         0.00636
       5 -> 25        -0.00386
       5 -> 29         0.00033
       5 -> 33        -0.00227
       5 -> 35         0.00270
       5 -> 40        -0.00089
       5 -> 42        -0.00099
       5 -> 51        -0.00089
       6 -> 10         0.26077
       6 -> 11         0.03038
       6 -> 14        -0.03319
       6 -> 15        -0.01935
       6 -> 17        -0.01468
       6 -> 20        -0.00045
       6 -> 21         0.00416
       6 -> 24        -0.00683
       6 -> 26        -0.00253
       6 -> 30        -0.00261
       6 -> 32         0.00467
       6 -> 34         0.00136
       6 -> 36         0.00068
       6 -> 39        -0.00148
       6 -> 43         0.00078
       6 -> 45        -0.00094
       6 -> 48         0.00071
       6 -> 50         0.00047
       6 -> 54        -0.00099
       7 ->  9         0.67385
       7 -> 13        -0.00780
       7 -> 18        -0.00885
       7 -> 23        -0.00296
       7 -> 28         0.00162
       7 -> 31        -0.00329
       7 -> 37         0.00135
       7 -> 44        -0.00095
       7 -> 52         0.00105
       8 -> 12        -0.00711
       8 -> 16         0.03115
       8 -> 19        -0.01708
       8 -> 22        -0.01025
       8 -> 29        -0.00716
       8 -> 33         0.00081
       8 -> 35        -0.00049
       8 -> 40         0.00016
       8 -> 42         0.00018
       8 -> 51         0.00013
       8 -> 53        -0.00048
       3 <- 10        -0.01037
       3 <- 11        -0.00222
       3 <- 14         0.00035
       3 <- 15        -0.00029
       3 <- 17        -0.00172
       3 <- 20        -0.00294
       3 <- 21         0.00019
       3 <- 24        -0.00023
       3 <- 30         0.00026
       3 <- 32         0.00226
       3 <- 34         0.00049
       3 <- 36        -0.00096
       3 <- 39        -0.00026
       3 <- 43         0.00050
       3 <- 45        -0.00129
       3 <- 48         0.00231
       3 <- 50         0.00164
       4 <- 10         0.00083
       4 <- 11         0.00716
       4 <- 14         0.00127
       4 <- 15        -0.00509
       4 <- 17         0.00125
       4 <- 20         0.00221
       4 <- 24        -0.00283
       4 <- 26         0.00259
       4 <- 30        -0.00040
       4 <- 32        -0.00106
       4 <- 34        -0.00057
       4 <- 36         0.00028
       4 <- 39        -0.00030
       4 <- 43        -0.00037
       4 <- 45         0.00067
       4 <- 48        -0.00041
       4 <- 50        -0.00011
       4 <- 54         0.00011
       5 <- 12         0.00529
       5 <- 16         0.00112
       5 <- 19         0.00086
       5 <- 22         0.00474
       5 <- 25        -0.00311
       5 <- 29         0.00034
       5 <- 33        -0.00193
       5 <- 35         0.00237
       5 <- 40        -0.00082
       5 <- 42        -0.00089
       5 <- 51        -0.00084
       6 <- 10         0.09134
       6 <- 11         0.01352
       6 <- 14        -0.01704
       6 <- 15        -0.01093
       6 <- 17        -0.00931
       6 <- 20        -0.00161
       6 <- 21         0.00308
       6 <- 24        -0.00462
       6 <- 26        -0.00117
       6 <- 30        -0.00143
       6 <- 32         0.00438
       6 <- 34         0.00152
       6 <- 36         0.00019
       6 <- 39        -0.00133
       6 <- 43         0.00066
       6 <- 45        -0.00068
       6 <- 48         0.00040
       6 <- 50         0.00033
       6 <- 54        -0.00092
       7 <-  9        -0.13015
       7 <- 13         0.00249
       7 <- 18        -0.01062
       7 <- 23         0.00026
       7 <- 28        -0.00128
       7 <- 31        -0.00158
       7 <- 37         0.00065
       7 <- 44        -0.00083
       7 <- 46        -0.00045
       7 <- 52         0.00098
       8 <- 12        -0.00327
       8 <- 16         0.01686
       8 <- 19        -0.01052
       8 <- 22        -0.00710
       8 <- 25         0.00013
       8 <- 29        -0.00588
       8 <- 33         0.00066
       8 <- 35        -0.00037
       8 <- 40         0.00012
       8 <- 42         0.00014
       8 <- 49        -0.00013
       8 <- 51         0.00011
       8 <- 53        -0.00045

 Excited State   3:      Singlet-B2     3.1447 eV  394.26 nm  f=0.0017  <S**2>=0.000
       3 -> 12        -0.00110
       3 -> 16         0.00103
       3 -> 19        -0.00360
       3 -> 22         0.00111
       3 -> 25        -0.00088
       3 -> 29        -0.00235
       3 -> 33         0.00030
       3 -> 35         0.00118
       3 -> 40        -0.00115
       3 -> 42        -0.00040
       3 -> 49        -0.00399
       3 -> 51         0.00015
       3 -> 53         0.00025
       4 -> 12         0.00034
       4 -> 16        -0.00127
       4 -> 19         0.00031
       4 -> 22         0.00156
       4 -> 25         0.00050
       4 -> 29         0.00075
       4 -> 33        -0.00029
       4 -> 35         0.00040
       4 -> 40         0.00023
       4 -> 49         0.00073
       5 -> 10         0.00933
       5 -> 11         0.00099
       5 -> 14        -0.00259
       5 -> 15         0.00274
       5 -> 17        -0.00053
       5 -> 20         0.00187
       5 -> 21         0.00260
       5 -> 24         0.00131
       5 -> 26        -0.00034
       5 -> 30        -0.00210
       5 -> 32        -0.00086
       5 -> 34        -0.00016
       5 -> 39         0.00057
       5 -> 41         0.00036
       5 -> 48        -0.00032
       5 -> 50         0.00021
       5 -> 54        -0.00017
       6 -> 12         0.00239
       6 -> 16        -0.00284
       6 -> 19         0.00426
       6 -> 22        -0.00067
       6 -> 25         0.00115
       6 -> 29         0.00033
       6 -> 33        -0.00019
       6 -> 35        -0.00109
       6 -> 40         0.00068
       6 -> 42         0.00058
       6 -> 49         0.00107
       6 -> 53        -0.00045
       7 -> 27        -0.00048
       7 -> 38         0.00028
       7 -> 47         0.00281
       8 -> 10         0.70531
       8 -> 11         0.04786
       8 -> 14        -0.04555
       8 -> 15        -0.01917
       8 -> 17        -0.01646
       8 -> 20         0.00612
       8 -> 21         0.00522
       8 -> 24        -0.00530
       8 -> 26        -0.00398
       8 -> 30        -0.01348
       8 -> 32         0.00053
       8 -> 34        -0.00101
       8 -> 36         0.00168
       8 -> 39         0.00036
       8 -> 41        -0.00017
       8 -> 45        -0.00077
       8 -> 48        -0.00345
       8 -> 50         0.00122
       8 -> 54        -0.00249
       3 <- 12        -0.00038
       3 <- 16         0.00038
       3 <- 19        -0.00181
       3 <- 22         0.00090
       3 <- 25        -0.00079
       3 <- 29        -0.00096
       3 <- 33         0.00029
       3 <- 35         0.00075
       3 <- 40        -0.00099
       3 <- 42        -0.00024
       3 <- 49        -0.00404
       3 <- 51         0.00015
       3 <- 53         0.00068
       4 <- 12         0.00012
       4 <- 16        -0.00157
       4 <- 19         0.00019
       4 <- 22         0.00193
       4 <- 25         0.00025
       4 <- 29         0.00103
       4 <- 33        -0.00030
       4 <- 35         0.00058
       4 <- 49         0.00051
       5 <- 10        -0.00095
       5 <- 11        -0.00052
       5 <- 14        -0.00040
       5 <- 15         0.00221
       5 <- 17         0.00019
       5 <- 20         0.00076
       5 <- 21         0.00149
       5 <- 24         0.00145
       5 <- 30        -0.00046
       5 <- 32        -0.00024
       5 <- 39         0.00028
       5 <- 41         0.00039
       5 <- 45        -0.00019
       5 <- 48        -0.00034
       5 <- 50         0.00011
       6 <- 12        -0.00098
       6 <- 16         0.00810
       6 <- 19        -0.00457
       6 <- 22        -0.00521
       6 <- 25         0.00132
       6 <- 29        -0.00621
       6 <- 33         0.00017
       6 <- 35        -0.00088
       6 <- 40         0.00066
       6 <- 42         0.00057
       6 <- 49         0.00159
       6 <- 53        -0.00144
       7 <- 27        -0.00049
       7 <- 38         0.00023
       7 <- 47         0.00244
       8 <- 10        -0.05130
       8 <- 11        -0.00706
       8 <- 14         0.00702
       8 <- 15         0.00220
       8 <- 17         0.00244
       8 <- 20        -0.00348
       8 <- 21        -0.00110
       8 <- 24         0.00144
       8 <- 26         0.00101
       8 <- 30         0.00248
       8 <- 32         0.00237
       8 <- 34         0.00078
       8 <- 36        -0.00088
       8 <- 39        -0.00090
       8 <- 41         0.00017
       8 <- 43         0.00034
       8 <- 45        -0.00146
       8 <- 48        -0.00289
       8 <- 50         0.00111
       8 <- 54        -0.00066

 Excited State   4:      Singlet-B1     3.3994 eV  364.73 nm  f=0.0000  <S**2>=0.000
       3 ->  9        -0.02030
       3 -> 13         0.00065
       3 -> 18        -0.00359
       3 -> 23         0.00114
       3 -> 28        -0.00130
       3 -> 31        -0.00102
       3 -> 37         0.00018
       3 -> 44         0.00029
       3 -> 46        -0.00072
       3 -> 52         0.00057
       4 ->  9        -0.00030
       4 -> 13        -0.00020
       4 -> 18         0.00023
       4 -> 23        -0.00025
       4 -> 28         0.00066
       4 -> 31        -0.00095
       4 -> 37        -0.00012
       4 -> 46        -0.00011
       4 -> 52        -0.00019
       5 -> 27        -0.00142
       5 -> 38         0.00056
       5 -> 47         0.00036
       6 ->  9         0.55023
       6 -> 13        -0.01426
       6 -> 18         0.01259
       6 -> 23        -0.00870
       6 -> 28         0.00379
       6 -> 31         0.00100
       6 -> 37        -0.00067
       6 -> 44        -0.00120
       6 -> 46         0.00269
       6 -> 52         0.00057
       7 -> 10         0.44871
       7 -> 11         0.03214
       7 -> 14        -0.03177
       7 -> 15        -0.01394
       7 -> 17        -0.01208
       7 -> 20         0.00423
       7 -> 21         0.00244
       7 -> 24        -0.00515
       7 -> 26        -0.00412
       7 -> 30        -0.00713
       7 -> 32         0.00110
       7 -> 34        -0.00036
       7 -> 36         0.00110
       7 -> 41        -0.00014
       7 -> 43         0.00048
       7 -> 45        -0.00096
       7 -> 48         0.00323
       7 -> 50         0.00107
       7 -> 54        -0.00082
       8 -> 27         0.00013
       8 -> 47         0.00392
       3 <-  9        -0.00674
       3 <- 13        -0.00062
       3 <- 18        -0.00233
       3 <- 23        -0.00028
       3 <- 28        -0.00080
       3 <- 31        -0.00073
       3 <- 37         0.00010
       3 <- 46        -0.00066
       3 <- 52         0.00066
       4 <-  9         0.00079
       4 <- 13         0.00035
       4 <- 18         0.00121
       4 <- 23         0.00010
       4 <- 28         0.00144
       4 <- 31        -0.00071
       4 <- 44        -0.00030
       4 <- 46        -0.00017
       5 <- 27        -0.00150
       5 <- 38         0.00054
       5 <- 47         0.00033
       6 <-  9        -0.05554
       6 <- 13         0.00233
       6 <- 18        -0.00624
       6 <- 23         0.00063
       6 <- 28        -0.00421
       6 <- 31        -0.00146
       6 <- 37        -0.00037
       6 <- 46         0.00255
       6 <- 52        -0.00050
       7 <- 10        -0.06308
       7 <- 11        -0.00882
       7 <- 14         0.01196
       7 <- 15         0.00647
       7 <- 17         0.00363
       7 <- 20         0.00071
       7 <- 21        -0.00302
       7 <- 24         0.00324
       7 <- 26         0.00174
       7 <- 30         0.00236
       7 <- 32         0.00011
       7 <- 34         0.00034
       7 <- 36         0.00031
       7 <- 39        -0.00049
       7 <- 41         0.00024
       7 <- 43         0.00026
       7 <- 45        -0.00066
       7 <- 48         0.00297
       7 <- 50         0.00129
       7 <- 54         0.00045
       8 <- 27         0.00048
       8 <- 47         0.00361

 Excited State   5:      Singlet-B1     3.9292 eV  315.55 nm  f=0.0060  <S**2>=0.000
       3 ->  9         0.00308
       3 -> 13        -0.00018
       3 -> 18        -0.00075
       3 -> 28        -0.00194
       3 -> 31        -0.00104
       3 -> 44        -0.00020
       3 -> 46        -0.00328
       3 -> 52        -0.00037
       4 ->  9        -0.02939
       4 -> 13         0.00592
       4 -> 18         0.00066
       4 -> 23         0.00470
       4 -> 28         0.00057
       4 -> 31         0.00070
       4 -> 37         0.00036
       4 -> 44        -0.00039
       4 -> 46         0.00094
       4 -> 52         0.00021
       5 -> 27        -0.00582
       5 -> 38        -0.00373
       6 ->  9        -0.44686
       6 -> 13         0.00759
       6 -> 18        -0.00331
       6 -> 23         0.00506
       6 -> 28         0.00175
       6 -> 31        -0.00431
       6 -> 37         0.00274
       6 -> 44         0.00125
       6 -> 46        -0.00143
       6 -> 52        -0.00103
       7 -> 10         0.54533
       7 -> 11         0.03044
       7 -> 14        -0.03129
       7 -> 15        -0.02169
       7 -> 17        -0.00579
       7 -> 20        -0.00217
       7 -> 21         0.00194
       7 -> 24        -0.00722
       7 -> 26        -0.00392
       7 -> 30        -0.00624
       7 -> 32        -0.00034
       7 -> 34        -0.00334
       7 -> 36        -0.00143
       7 -> 39         0.00062
       7 -> 43         0.00032
       7 -> 45        -0.00066
       7 -> 48        -0.00037
       7 -> 50        -0.00021
       7 -> 54        -0.00159
       8 -> 27         0.00046
       8 -> 38         0.00017
       8 -> 47        -0.00042
       3 <-  9         0.00129
       3 <- 13         0.00090
       3 <- 23         0.00067
       3 <- 28        -0.00144
       3 <- 31         0.00012
       3 <- 37        -0.00030
       3 <- 44        -0.00026
       3 <- 46        -0.00338
       4 <-  9        -0.01503
       4 <- 13         0.00296
       4 <- 18        -0.00019
       4 <- 23         0.00299
       4 <- 28         0.00041
       4 <- 31         0.00049
       4 <- 37         0.00034
       4 <- 44        -0.00051
       4 <- 46         0.00057
       4 <- 52         0.00015
       5 <- 27        -0.00425
       5 <- 38        -0.00316
       6 <-  9        -0.01717
       6 <- 13        -0.00098
       6 <- 18        -0.00190
       6 <- 23         0.00053
       6 <- 28         0.00100
       6 <- 31        -0.00472
       6 <- 37         0.00261
       6 <- 44         0.00095
       6 <- 46        -0.00072
       6 <- 52        -0.00123
       7 <- 10        -0.00249
       7 <- 11         0.00028
       7 <- 14        -0.00201
       7 <- 15        -0.00664
       7 <- 17        -0.00023
       7 <- 20        -0.00502
       7 <- 21        -0.00017
       7 <- 24        -0.00336
       7 <- 26        -0.00067
       7 <- 30        -0.00056
       7 <- 32         0.00114
       7 <- 34        -0.00215
       7 <- 36        -0.00242

 The electronic state is 1-A1.
 Alpha  occ. eigenvalues --  -19.17800 -10.34200  -0.88526  -0.71823  -0.49387
 Alpha  occ. eigenvalues --   -0.38111  -0.30199  -0.28606
 Alpha virt. eigenvalues --   -0.17777  -0.09180  -0.00215   0.04034   0.06085
 Alpha virt. eigenvalues --    0.06189   0.11586   0.13048   0.18639   0.20902
 Alpha virt. eigenvalues --    0.23904   0.30424   0.38479   0.39265   0.50486

 Mulliken charges:
               1
     1  C   -0.105944
     2  H    0.194140
     3  H    0.194140
     4  O   -0.282336
 Sum of Mulliken charges =  -0.00000

 Dipole moment (field-independent basis, Debye):
    X=             -0.0000    Y=              0.0000    Z=             -4.2929  Tot=              4.2929
 Quadrupole moment (field-independent basis, Debye-Ang):
   XX=            -13.0960   YY=            -12.0838   ZZ=            -10.4311
   XY=              0.0000   XZ=              0.0000   YZ=              0.0000

 Normal termination of Gaussian 16 at Fri Sep 17 10:53:13 2021.
