 Gaussian 16, Revision C.01,
 Gaussian 16:  ES64L-G16RevC.01  3-Jul-2019

 ---------------------------------------
 #P wB97XD/6-311+G* NoSymm #P Field=Y-97
 ---------------------------------------

 -------
 TitleMe
 -------
 Symbolic Z-matrix:
 Charge =  1 Multiplicity = 1

                          Input orientation:
 ---------------------------------------------------------------------
 Center     Atomic      Atomic             Coordinates (Angstroms)
 Number     Number       Type             X           Y           Z
 ---------------------------------------------------------------------
      1          6           0        0.519300    1.233000   -0.031900
      2          6           0        1.944500    1.269200   -0.036700
      3          6           0        2.620400    0.092800   -0.025000
      4          6           0       -0.196000    0.030100    0.001000
      5          1           0       -0.020700    2.174200   -0.043400
      6          1           0        2.482800    2.208900   -0.036100
      7          1           0       -1.277700    0.039900    0.011700
      8          7           0        4.092100    0.095900    0.036600
      9          8           0        4.639300   -1.021700    0.144600
     10          8           0        4.664900    1.198400   -0.023300
     11          6           0        0.494300   -1.167100    0.021000
     12          1           0       -0.032500   -2.114900    0.054500
     13          6           0        1.962900   -1.216500   -0.021100
     14          1           0        2.443600   -1.963100    0.615100
     15         35           0        2.173000   -1.949100   -1.906200
 ---------------------------------------------------------------------

 SCF Done:  E(RwB97XD) =  -3010.53388035     A.U. after   21 cycles

 Alpha  occ. eigenvalues -- -483.32574 -62.87613 -56.67287 -56.66742 -56.66738
 Alpha  occ. eigenvalues --  -19.46389 -19.46204 -14.85718 -10.59403 -10.59320
 Alpha  occ. eigenvalues --  -10.57955 -10.57051 -10.53167 -10.53141  -9.03431
 Alpha  occ. eigenvalues --   -6.86056  -6.84265  -6.84252  -2.95973  -2.95497
 Alpha  occ. eigenvalues --   -2.95485  -2.94052  -2.94051  -1.49979  -1.32936
 Alpha  occ. eigenvalues --   -1.22954  -1.13411  -1.12877  -1.05664  -1.00771
 Alpha  occ. eigenvalues --   -0.95795  -0.90889  -0.85251  -0.81125  -0.80544
 Alpha  occ. eigenvalues --   -0.80181  -0.78330  -0.76278  -0.75960  -0.72584
 Alpha  occ. eigenvalues --   -0.68879  -0.67709  -0.63777  -0.60686  -0.58061
 Alpha  occ. eigenvalues --   -0.57549  -0.56933  -0.55957  -0.55349
 Alpha virt. eigenvalues --   -0.30655  -0.20498  -0.16772  -0.13470  -0.11648
 Alpha virt. eigenvalues --   -0.08150  -0.07529  -0.06290  -0.04680  -0.03739
 Alpha virt. eigenvalues --   -0.03468  -0.02953  -0.02513  -0.02102  -0.01236

 Mulliken charges:
               1
     1  C   -0.115254
     2  C    0.195202
     3  C   -0.058571
     4  C   -0.308913
     5  H    0.384580
     6  H    0.385976
     7  H    0.333546
     8  N   -0.236533
     9  O    0.035320
    10  O    0.125839
    11  C   -0.209035
    12  H    0.320683
    13  C   -0.352232
    14  H    0.387459
    15  Br   0.111931
 Sum of Mulliken charges =   1.00000

 Dipole moment (field-independent basis, Debye):
    X=              2.6375    Y=              1.9420    Z=             -0.3678  Tot=              3.2959
 Quadrupole moment (field-independent basis, Debye-Ang):
   XX=            -67.9984   YY=            -52.7361   ZZ=            -63.2269
   XY=              2.9631   XZ=             -1.7261   YZ=              0.9533

 Normal termination of Gaussian 16 at Thu May  2 14:20:39 2024.
