 Gaussian 16, Revision C.01,
 Gaussian 16:  ES64L-G16RevC.01  3-Jul-2019

 ----------------------------------------
 #P wB97XD/6-311+G* NoSymm #P Field=X+233
 ----------------------------------------

 -------
 TitleMe
 -------
 Symbolic Z-matrix:
 Charge =  1 Multiplicity = 1

                          Input orientation:
 ---------------------------------------------------------------------
 Center     Atomic      Atomic             Coordinates (Angstroms)
 Number     Number       Type             X           Y           Z
 ---------------------------------------------------------------------
      1          6           0        0.519300    1.233000   -0.031900
      2          6           0        1.944500    1.269200   -0.036700
      3          6           0        2.620400    0.092800   -0.025000
      4          6           0       -0.196000    0.030100    0.001000
      5          1           0       -0.020700    2.174200   -0.043400
      6          1           0        2.482800    2.208900   -0.036100
      7          1           0       -1.277700    0.039900    0.011700
      8          7           0        4.092100    0.095900    0.036600
      9          8           0        4.639300   -1.021700    0.144600
     10          8           0        4.664900    1.198400   -0.023300
     11          6           0        0.494300   -1.167100    0.021000
     12          1           0       -0.032500   -2.114900    0.054500
     13          6           0        1.962900   -1.216500   -0.021100
     14          1           0        2.443600   -1.963100    0.615100
     15         35           0        2.173000   -1.949100   -1.906200
 ---------------------------------------------------------------------

 SCF Done:  E(RwB97XD) =  -3010.53692059     A.U. after   19 cycles

 Alpha  occ. eigenvalues -- -483.39409 -62.94444 -56.74121 -56.73574 -56.73565
 Alpha  occ. eigenvalues --  -19.60811 -19.60678 -14.99784 -10.67759 -10.66459
 Alpha  occ. eigenvalues --  -10.63910 -10.63004 -10.62780 -10.58138  -9.10260
 Alpha  occ. eigenvalues --   -6.92894  -6.91096  -6.91068  -3.02809  -3.02334
 Alpha  occ. eigenvalues --   -3.02311  -3.00872  -3.00871  -1.64352  -1.47456
 Alpha  occ. eigenvalues --   -1.30757  -1.21487  -1.20375  -1.13151  -1.09473
 Alpha  occ. eigenvalues --   -1.02806  -0.99713  -0.96500  -0.94233  -0.92739
 Alpha  occ. eigenvalues --   -0.88843  -0.86397  -0.84460  -0.83744  -0.79695
 Alpha  occ. eigenvalues --   -0.74545  -0.74198  -0.72087  -0.71997  -0.70767
 Alpha  occ. eigenvalues --   -0.70566  -0.67460  -0.64784  -0.62937
 Alpha virt. eigenvalues --   -0.38469  -0.32018  -0.23975  -0.21568  -0.20942
 Alpha virt. eigenvalues --   -0.17807  -0.16363  -0.15807  -0.14326  -0.11697
 Alpha virt. eigenvalues --   -0.11468  -0.10545  -0.10344  -0.08769  -0.07814

 Mulliken charges:
               1
     1  C   -0.144084
     2  C    0.165135
     3  C   -0.185747
     4  C   -0.292936
     5  H    0.402678
     6  H    0.323192
     7  H    0.432456
     8  N   -0.237911
     9  O   -0.003391
    10  O   -0.043549
    11  C   -0.141727
    12  H    0.413335
    13  C   -0.213813
    14  H    0.383773
    15  Br   0.142590
 Sum of Mulliken charges =   1.00000

 Dipole moment (field-independent basis, Debye):
    X=             -3.9360    Y=             -0.5889    Z=             -0.4481  Tot=              4.0049
 Quadrupole moment (field-independent basis, Debye-Ang):
   XX=            -95.1886   YY=            -51.6614   ZZ=            -62.9312
   XY=             -1.2696   XZ=             -0.7568   YZ=              1.7366

 Normal termination of Gaussian 16 at Thu May  2 14:17:58 2024.
