 Gaussian 16, Revision C.01,
 Gaussian 16:  ES64L-G16RevC.01  3-Jul-2019

 ----------------------------------------
 #P wB97XD/6-311+G* NoSymm #P Field=Z+184
 ----------------------------------------

 -------
 TitleMe
 -------
 Symbolic Z-matrix:
 Charge =  1 Multiplicity = 1

                          Input orientation:
 ---------------------------------------------------------------------
 Center     Atomic      Atomic             Coordinates (Angstroms)
 Number     Number       Type             X           Y           Z
 ---------------------------------------------------------------------
      1          6           0        0.519300    1.233000   -0.031900
      2          6           0        1.944500    1.269200   -0.036700
      3          6           0        2.620400    0.092800   -0.025000
      4          6           0       -0.196000    0.030100    0.001000
      5          1           0       -0.020700    2.174200   -0.043400
      6          1           0        2.482800    2.208900   -0.036100
      7          1           0       -1.277700    0.039900    0.011700
      8          7           0        4.092100    0.095900    0.036600
      9          8           0        4.639300   -1.021700    0.144600
     10          8           0        4.664900    1.198400   -0.023300
     11          6           0        0.494300   -1.167100    0.021000
     12          1           0       -0.032500   -2.114900    0.054500
     13          6           0        1.962900   -1.216500   -0.021100
     14          1           0        2.443600   -1.963100    0.615100
     15         35           0        2.173000   -1.949100   -1.906200
 ---------------------------------------------------------------------

 SCF Done:  E(RwB97XD) =  -3010.54937598     A.U. after   21 cycles

 Alpha  occ. eigenvalues -- -483.28288 -62.83254 -56.63004 -56.62364 -56.62342
 Alpha  occ. eigenvalues --  -19.45795 -19.45788 -14.85164 -10.58116 -10.56349
 Alpha  occ. eigenvalues --  -10.56125 -10.55587 -10.52327 -10.51746  -8.99018
 Alpha  occ. eigenvalues --   -6.81845  -6.79761  -6.79695  -2.91712  -2.91176
 Alpha  occ. eigenvalues --   -2.91123  -2.89457  -2.89456  -1.49459  -1.32435
 Alpha  occ. eigenvalues --   -1.21169  -1.11749  -1.10895  -1.02731  -0.98870
 Alpha  occ. eigenvalues --   -0.94094  -0.89511  -0.84239  -0.80143  -0.79429
 Alpha  occ. eigenvalues --   -0.79187  -0.76928  -0.75562  -0.74491  -0.70407
 Alpha  occ. eigenvalues --   -0.67403  -0.66469  -0.61504  -0.58253  -0.56927
 Alpha  occ. eigenvalues --   -0.56159  -0.55469  -0.52638  -0.51718
 Alpha virt. eigenvalues --   -0.28598  -0.19692  -0.13943  -0.12550  -0.11155
 Alpha virt. eigenvalues --   -0.08521  -0.08245  -0.05989  -0.04556  -0.03948
 Alpha virt. eigenvalues --   -0.02254  -0.01043   0.00367   0.00905   0.01407

 Mulliken charges:
               1
     1  C   -0.158831
     2  C    0.239650
     3  C   -0.031860
     4  C   -0.337572
     5  H    0.343925
     6  H    0.349030
     7  H    0.327588
     8  N   -0.280281
     9  O    0.088618
    10  O    0.070259
    11  C   -0.246943
    12  H    0.352168
    13  C   -0.430847
    14  H    0.351790
    15  Br   0.363306
 Sum of Mulliken charges =   1.00000

 Dipole moment (field-independent basis, Debye):
    X=              3.0709    Y=             -1.6700    Z=             -4.0931  Tot=              5.3827
 Quadrupole moment (field-independent basis, Debye-Ang):
   XX=            -67.8909   YY=            -49.9759   ZZ=            -58.2022
   XY=             -4.5289   XZ=             -9.4466   YZ=              5.7074

 Normal termination of Gaussian 16 at Thu May  2 14:21:07 2024.
