 Gaussian 16, Revision C.01,
 Gaussian 16:  ES64L-G16RevC.01  3-Jul-2019

 ---------------------------------------
 #P wB97XD/6-311+G* NoSymm #P Field=X-87
 ---------------------------------------

 -------
 TitleMe
 -------
 Symbolic Z-matrix:
 Charge =  1 Multiplicity = 1

                          Input orientation:
 ---------------------------------------------------------------------
 Center     Atomic      Atomic             Coordinates (Angstroms)
 Number     Number       Type             X           Y           Z
 ---------------------------------------------------------------------
      1          6           0        0.519300    1.233000   -0.031900
      2          6           0        1.944500    1.269200   -0.036700
      3          6           0        2.620400    0.092800   -0.025000
      4          6           0       -0.196000    0.030100    0.001000
      5          1           0       -0.020700    2.174200   -0.043400
      6          1           0        2.482800    2.208900   -0.036100
      7          1           0       -1.277700    0.039900    0.011700
      8          7           0        4.092100    0.095900    0.036600
      9          8           0        4.639300   -1.021700    0.144600
     10          8           0        4.664900    1.198400   -0.023300
     11          6           0        0.494300   -1.167100    0.021000
     12          1           0       -0.032500   -2.114900    0.054500
     13          6           0        1.962900   -1.216500   -0.021100
     14          1           0        2.443600   -1.963100    0.615100
     15         35           0        2.173000   -1.949100   -1.906200
 ---------------------------------------------------------------------

 SCF Done:  E(RwB97XD) =  -3010.54567363     A.U. after   23 cycles

 Alpha  occ. eigenvalues -- -483.28082 -62.83093 -56.62795 -56.62217 -56.62202
 Alpha  occ. eigenvalues --  -19.40796 -19.40754 -14.80326 -10.56060 -10.54862
 Alpha  occ. eigenvalues --  -10.54811 -10.54535 -10.50769 -10.50014  -8.98890
 Alpha  occ. eigenvalues --   -6.81591  -6.79694  -6.79650  -2.91489  -2.90994
 Alpha  occ. eigenvalues --   -2.90958  -2.89441  -2.89440  -1.44503  -1.27399
 Alpha  occ. eigenvalues --   -1.19477  -1.10024  -1.09259  -1.01658  -0.96808
 Alpha  occ. eigenvalues --   -0.92559  -0.87548  -0.81413  -0.77302  -0.76350
 Alpha  occ. eigenvalues --   -0.75783  -0.74666  -0.72622  -0.70918  -0.69017
 Alpha  occ. eigenvalues --   -0.66108  -0.64735  -0.60685  -0.56715  -0.53052
 Alpha  occ. eigenvalues --   -0.52416  -0.51651  -0.50376  -0.50066
 Alpha virt. eigenvalues --   -0.27146  -0.16549  -0.12458  -0.09484  -0.08968
 Alpha virt. eigenvalues --   -0.06005  -0.04578  -0.03214  -0.02551  -0.01335
 Alpha virt. eigenvalues --   -0.00308   0.00443   0.01208   0.02121   0.03380

 Mulliken charges:
               1
     1  C   -0.101754
     2  C    0.172417
     3  C   -0.024698
     4  C   -0.326844
     5  H    0.322634
     6  H    0.361233
     7  H    0.287429
     8  N   -0.242279
     9  O    0.122073
    10  O    0.111612
    11  C   -0.245106
    12  H    0.334848
    13  C   -0.397157
    14  H    0.422131
    15  Br   0.203461
 Sum of Mulliken charges =   1.00000

 Dipole moment (field-independent basis, Debye):
    X=              5.2687    Y=             -1.0350    Z=             -0.8778  Tot=              5.4407
 Quadrupole moment (field-independent basis, Debye-Ang):
   XX=            -58.2649   YY=            -50.9968   ZZ=            -61.9117
   XY=             -3.5652   XZ=             -3.2544   YZ=              2.7602

 Normal termination of Gaussian 16 at Thu May  2 14:22:41 2024.
