 Gaussian 16, Revision C.01,
 Gaussian 16:  ES64L-G16RevC.01  3-Jul-2019

 ---------------------------------------
 #P wB97XD/6-311+G* NoSymm #P Field=Z-97
 ---------------------------------------

 -------
 TitleMe
 -------
 Symbolic Z-matrix:
 Charge =  1 Multiplicity = 1

                          Input orientation:
 ---------------------------------------------------------------------
 Center     Atomic      Atomic             Coordinates (Angstroms)
 Number     Number       Type             X           Y           Z
 ---------------------------------------------------------------------
      1          6           0        0.519300    1.233000   -0.031900
      2          6           0        1.944500    1.269200   -0.036700
      3          6           0        2.620400    0.092800   -0.025000
      4          6           0       -0.196000    0.030100    0.001000
      5          1           0       -0.020700    2.174200   -0.043400
      6          1           0        2.482800    2.208900   -0.036100
      7          1           0       -1.277700    0.039900    0.011700
      8          7           0        4.092100    0.095900    0.036600
      9          8           0        4.639300   -1.021700    0.144600
     10          8           0        4.664900    1.198400   -0.023300
     11          6           0        0.494300   -1.167100    0.021000
     12          1           0       -0.032500   -2.114900    0.054500
     13          6           0        1.962900   -1.216500   -0.021100
     14          1           0        2.443600   -1.963100    0.615100
     15         35           0        2.173000   -1.949100   -1.906200
 ---------------------------------------------------------------------

 SCF Done:  E(RwB97XD) =  -3010.53235720     A.U. after   19 cycles

 Alpha  occ. eigenvalues -- -483.32694 -62.87738 -56.67404 -56.66872 -56.66865
 Alpha  occ. eigenvalues --  -19.46448 -19.46414 -14.85884 -10.59711 -10.58875
 Alpha  occ. eigenvalues --  -10.57813 -10.57575 -10.53860 -10.53194  -9.03559
 Alpha  occ. eigenvalues --   -6.86166  -6.84408  -6.84387  -2.96087  -2.95621
 Alpha  occ. eigenvalues --   -2.95603  -2.94196  -2.94195  -1.50125  -1.33078
 Alpha  occ. eigenvalues --   -1.23023  -1.13599  -1.13000  -1.05849  -1.00886
 Alpha  occ. eigenvalues --   -0.95900  -0.91051  -0.85275  -0.81271  -0.80562
 Alpha  occ. eigenvalues --   -0.80359  -0.78350  -0.76479  -0.76063  -0.72776
 Alpha  occ. eigenvalues --   -0.69042  -0.68069  -0.64194  -0.60816  -0.58149
 Alpha  occ. eigenvalues --   -0.57605  -0.57034  -0.56157  -0.55561
 Alpha virt. eigenvalues --   -0.30809  -0.20740  -0.16893  -0.13477  -0.10747
 Alpha virt. eigenvalues --   -0.07999  -0.07221  -0.06507  -0.05418  -0.04128
 Alpha virt. eigenvalues --   -0.03884  -0.02371  -0.02172  -0.01857  -0.01038

 Mulliken charges:
               1
     1  C   -0.084354
     2  C    0.144169
     3  C   -0.088634
     4  C   -0.341944
     5  H    0.347936
     6  H    0.352865
     7  H    0.334368
     8  N   -0.221061
     9  O    0.089564
    10  O    0.071747
    11  C   -0.175107
    12  H    0.360499
    13  C   -0.320065
    14  H    0.442474
    15  Br   0.087544
 Sum of Mulliken charges =   1.00000

 Dipole moment (field-independent basis, Debye):
    X=              2.6485    Y=             -0.5230    Z=              0.9876  Tot=              2.8747
 Quadrupole moment (field-independent basis, Debye-Ang):
   XX=            -67.8190   YY=            -51.7594   ZZ=            -64.4783
   XY=             -2.2068   XZ=              1.0231   YZ=              0.7571

 Normal termination of Gaussian 16 at Thu May  2 14:19:09 2024.
