 Gaussian 16, Revision C.01,
 Gaussian 16:  ES64L-G16RevC.01  3-Jul-2019

 ---------------------------------------
 #P wB97XD/6-311+G* NoSymm #P Field=X+38
 ---------------------------------------

 -------
 TitleMe
 -------
 Symbolic Z-matrix:
 Charge =  1 Multiplicity = 1

                          Input orientation:
 ---------------------------------------------------------------------
 Center     Atomic      Atomic             Coordinates (Angstroms)
 Number     Number       Type             X           Y           Z
 ---------------------------------------------------------------------
      1          6           0        0.519300    1.233000   -0.031900
      2          6           0        1.944500    1.269200   -0.036700
      3          6           0        2.620400    0.092800   -0.025000
      4          6           0       -0.196000    0.030100    0.001000
      5          1           0       -0.020700    2.174200   -0.043400
      6          1           0        2.482800    2.208900   -0.036100
      7          1           0       -1.277700    0.039900    0.011700
      8          7           0        4.092100    0.095900    0.036600
      9          8           0        4.639300   -1.021700    0.144600
     10          8           0        4.664900    1.198400   -0.023300
     11          6           0        0.494300   -1.167100    0.021000
     12          1           0       -0.032500   -2.114900    0.054500
     13          6           0        1.962900   -1.216500   -0.021100
     14          1           0        2.443600   -1.963100    0.615100
     15         35           0        2.173000   -1.949100   -1.906200
 ---------------------------------------------------------------------

 SCF Done:  E(RwB97XD) =  -3010.52855275     A.U. after   19 cycles

 Alpha  occ. eigenvalues -- -483.32339 -62.87363 -56.67056 -56.66488 -56.66478
 Alpha  occ. eigenvalues --  -19.48559 -19.48523 -14.87914 -10.60482 -10.59267
 Alpha  occ. eigenvalues --  -10.58247 -10.57860 -10.54754 -10.53485  -9.03170
 Alpha  occ. eigenvalues --   -6.85848  -6.83982  -6.83953  -2.95753  -2.95261
 Alpha  occ. eigenvalues --   -2.95237  -2.93744  -2.93743  -1.52217  -1.35202
 Alpha  occ. eigenvalues --   -1.23613  -1.14002  -1.13695  -1.05994  -1.01700
 Alpha  occ. eigenvalues --   -0.96433  -0.91800  -0.86664  -0.82762  -0.81792
 Alpha  occ. eigenvalues --   -0.81568  -0.79034  -0.78166  -0.76789  -0.73096
 Alpha  occ. eigenvalues --   -0.69398  -0.68635  -0.64385  -0.61054  -0.59682
 Alpha  occ. eigenvalues --   -0.59026  -0.58302  -0.57458  -0.55919
 Alpha virt. eigenvalues --   -0.31246  -0.22106  -0.16886  -0.14404  -0.09341
 Alpha virt. eigenvalues --   -0.06840  -0.06087  -0.05601  -0.05255  -0.03934
 Alpha virt. eigenvalues --   -0.03301  -0.02858  -0.02377  -0.01703  -0.00764

 Mulliken charges:
               1
     1  C   -0.113856
     2  C    0.185155
     3  C   -0.095323
     4  C   -0.332108
     5  H    0.355068
     6  H    0.345545
     7  H    0.348549
     8  N   -0.238891
     9  O    0.073607
    10  O    0.051542
    11  C   -0.187894
    12  H    0.366066
    13  C   -0.339225
    14  H    0.406519
    15  Br   0.175245
 Sum of Mulliken charges =   1.00000

 Dipole moment (field-independent basis, Debye):
    X=              1.7027    Y=             -0.8494    Z=             -0.6969  Tot=              2.0264
 Quadrupole moment (field-independent basis, Debye-Ang):
   XX=            -72.0903   YY=            -51.2136   ZZ=            -62.2824
   XY=             -2.7007   XZ=             -2.2604   YZ=              2.3298

 Normal termination of Gaussian 16 at Thu May  2 14:18:35 2024.
