 Gaussian 16, Revision C.01,
 Gaussian 16:  ES64L-G16RevC.01  3-Jul-2019

 ---------------------------------------
 #P wB97XD/6-311+G* NoSymm #P Field=Y-48
 ---------------------------------------

 -------
 TitleMe
 -------
 Symbolic Z-matrix:
 Charge =  1 Multiplicity = 1

                          Input orientation:
 ---------------------------------------------------------------------
 Center     Atomic      Atomic             Coordinates (Angstroms)
 Number     Number       Type             X           Y           Z
 ---------------------------------------------------------------------
      1          6           0        0.519300    1.233000   -0.031900
      2          6           0        1.944500    1.269200   -0.036700
      3          6           0        2.620400    0.092800   -0.025000
      4          6           0       -0.196000    0.030100    0.001000
      5          1           0       -0.020700    2.174200   -0.043400
      6          1           0        2.482800    2.208900   -0.036100
      7          1           0       -1.277700    0.039900    0.011700
      8          7           0        4.092100    0.095900    0.036600
      9          8           0        4.639300   -1.021700    0.144600
     10          8           0        4.664900    1.198400   -0.023300
     11          6           0        0.494300   -1.167100    0.021000
     12          1           0       -0.032500   -2.114900    0.054500
     13          6           0        1.962900   -1.216500   -0.021100
     14          1           0        2.443600   -1.963100    0.615100
     15         35           0        2.173000   -1.949100   -1.906200
 ---------------------------------------------------------------------

 SCF Done:  E(RwB97XD) =  -3010.53152447     A.U. after   19 cycles

 Alpha  occ. eigenvalues -- -483.31773 -62.86803 -56.66488 -56.65930 -56.65922
 Alpha  occ. eigenvalues --  -19.46261 -19.46177 -14.85652 -10.59255 -10.58600
 Alpha  occ. eigenvalues --  -10.57567 -10.56944 -10.53217 -10.52873  -9.02615
 Alpha  occ. eigenvalues --   -6.85271  -6.83436  -6.83413  -2.95181  -2.94695
 Alpha  occ. eigenvalues --   -2.94676  -2.93208  -2.93207  -1.49910  -1.32868
 Alpha  occ. eigenvalues --   -1.22620  -1.13041  -1.12618  -1.05138  -1.00482
 Alpha  occ. eigenvalues --   -0.95507  -0.90671  -0.85035  -0.80961  -0.80285
 Alpha  occ. eigenvalues --   -0.80071  -0.78054  -0.76194  -0.75722  -0.72205
 Alpha  occ. eigenvalues --   -0.68654  -0.67602  -0.63495  -0.60160  -0.57471
 Alpha  occ. eigenvalues --   -0.57105  -0.56651  -0.55908  -0.54946
 Alpha virt. eigenvalues --   -0.30302  -0.20387  -0.16113  -0.13169  -0.09583
 Alpha virt. eigenvalues --   -0.06433  -0.05826  -0.05468  -0.04264  -0.03171
 Alpha virt. eigenvalues --   -0.02682  -0.02138  -0.01999  -0.01264  -0.00340

 Mulliken charges:
               1
     1  C   -0.112311
     2  C    0.187150
     3  C   -0.066458
     4  C   -0.320867
     5  H    0.365100
     6  H    0.368252
     7  H    0.331989
     8  N   -0.238233
     9  O    0.061917
    10  O    0.097503
    11  C   -0.207147
    12  H    0.339098
    13  C   -0.353334
    14  H    0.399536
    15  Br   0.147804
 Sum of Mulliken charges =   1.00000

 Dipole moment (field-independent basis, Debye):
    X=              2.7107    Y=              0.5026    Z=             -0.5601  Tot=              2.8132
 Quadrupole moment (field-independent basis, Debye-Ang):
   XX=            -67.9232   YY=            -51.8928   ZZ=            -62.6847
   XY=             -0.0344   XZ=             -2.1450   YZ=              1.7148

 Normal termination of Gaussian 16 at Thu May  2 14:18:28 2024.
