 Gaussian 16, Revision C.01,
 Gaussian 16:  ES64L-G16RevC.01  3-Jul-2019

 ----------------------------------------
 #P wB97XD/6-311+G* NoSymm #P Field=Y+233
 ----------------------------------------

 -------
 TitleMe
 -------
 Symbolic Z-matrix:
 Charge =  1 Multiplicity = 1

                          Input orientation:
 ---------------------------------------------------------------------
 Center     Atomic      Atomic             Coordinates (Angstroms)
 Number     Number       Type             X           Y           Z
 ---------------------------------------------------------------------
      1          6           0        0.519300    1.233000   -0.031900
      2          6           0        1.944500    1.269200   -0.036700
      3          6           0        2.620400    0.092800   -0.025000
      4          6           0       -0.196000    0.030100    0.001000
      5          1           0       -0.020700    2.174200   -0.043400
      6          1           0        2.482800    2.208900   -0.036100
      7          1           0       -1.277700    0.039900    0.011700
      8          7           0        4.092100    0.095900    0.036600
      9          8           0        4.639300   -1.021700    0.144600
     10          8           0        4.664900    1.198400   -0.023300
     11          6           0        0.494300   -1.167100    0.021000
     12          1           0       -0.032500   -2.114900    0.054500
     13          6           0        1.962900   -1.216500   -0.021100
     14          1           0        2.443600   -1.963100    0.615100
     15         35           0        2.173000   -1.949100   -1.906200
 ---------------------------------------------------------------------

 SCF Done:  E(RwB97XD) =  -3010.57165315     A.U. after   22 cycles

 Alpha  occ. eigenvalues -- -483.27951 -62.82911 -56.62655 -56.62026 -56.62002
 Alpha  occ. eigenvalues --  -19.46441 -19.46004 -14.85434 -10.58589 -10.56673
 Alpha  occ. eigenvalues --  -10.55382 -10.54874 -10.53800 -10.51972  -8.98669
 Alpha  occ. eigenvalues --   -6.81477  -6.79425  -6.79350  -2.91348  -2.90822
 Alpha  occ. eigenvalues --   -2.90762  -2.89121  -2.89120  -1.49807  -1.32787
 Alpha  occ. eigenvalues --   -1.21291  -1.12037  -1.10891  -1.02839  -0.98943
 Alpha  occ. eigenvalues --   -0.94159  -0.89795  -0.84674  -0.80456  -0.79844
 Alpha  occ. eigenvalues --   -0.79278  -0.77152  -0.75848  -0.74363  -0.70633
 Alpha  occ. eigenvalues --   -0.67332  -0.66470  -0.61983  -0.58260  -0.57373
 Alpha  occ. eigenvalues --   -0.56457  -0.55674  -0.52040  -0.51497
 Alpha virt. eigenvalues --   -0.28599  -0.20151  -0.18589  -0.14225  -0.13483
 Alpha virt. eigenvalues --   -0.12041  -0.08614  -0.08350  -0.06605  -0.04168
 Alpha virt. eigenvalues --   -0.04036  -0.02537  -0.01212  -0.00236  -0.00083

 Mulliken charges:
               1
     1  C   -0.102701
     2  C    0.231839
     3  C   -0.141145
     4  C   -0.401263
     5  H    0.240645
     6  H    0.253678
     7  H    0.326053
     8  N   -0.248460
     9  O    0.219332
    10  O   -0.061648
    11  C   -0.161694
    12  H    0.435008
    13  C   -0.419571
    14  H    0.465406
    15  Br   0.364521
 Sum of Mulliken charges =   1.00000

 Dipole moment (field-independent basis, Debye):
    X=              3.1386    Y=             -7.7915    Z=             -1.7274  Tot=              8.5756
 Quadrupole moment (field-independent basis, Debye-Ang):
   XX=            -67.5015   YY=            -48.3860   ZZ=            -59.7537
   XY=            -17.3712   XZ=             -4.6966   YZ=              6.1206

 Normal termination of Gaussian 16 at Thu May  2 14:22:21 2024.
