 Gaussian 16, Revision A.03,
 Gaussian 16:  ES64L-G16RevA.03 25-Dec-2016

 --------------------------------------------------------------------
 #p B3LYP/6-311+G** #p TD=(singlets,nstates=30)IOp(6/8=3) IOp(9/40=4)
 --------------------------------------------------------------------

 --------------------------------
 Scan Step 163, Bond Length 1.315
 --------------------------------
 Symbolic Z-matrix:
 Charge =  0 Multiplicity = 1

                         Standard orientation:
 ---------------------------------------------------------------------
 Center     Atomic      Atomic             Coordinates (Angstroms)
 Number     Number       Type             X           Y           Z
 ---------------------------------------------------------------------
      1          6           0        0.000000    0.000000   -0.583581
      2          1           0        0.000000    0.937260   -1.174931
      3          1           0       -0.000000   -0.937260   -1.174931
      4          8           0        0.000000   -0.000000    0.731419
 ---------------------------------------------------------------------

 SCF Done:  E(RB3LYP) =  -114.525884895     A.U. after    9 cycles

 Excitation energies and oscillator strengths:

 Excited State   1:      Singlet-A2     3.3128 eV  374.25 nm  f=0.0000  <S**2>=0.000
       3 -> 27         0.00210
       3 -> 38         0.00175
       3 -> 45         0.00279
       4 -> 27         0.00148
       4 -> 38        -0.00042
       4 -> 45        -0.00139
       5 ->  9         0.01839
       5 -> 13        -0.00125
       5 -> 17         0.00496
       5 -> 23         0.00073
       5 -> 29         0.00423
       5 -> 31        -0.00144
       5 -> 37         0.00283
       5 -> 44         0.00054
       5 -> 48         0.00013
       5 -> 52         0.00066
       6 -> 27        -0.00036
       6 -> 38        -0.00088
       6 -> 45         0.00174
       7 -> 12        -0.00063
       7 -> 15         0.00345
       7 -> 18        -0.00318
       7 -> 22         0.00021
       7 -> 25         0.00138
       7 -> 30        -0.00106
       7 -> 33         0.00045
       7 -> 35         0.00015
       7 -> 40         0.00015
       7 -> 42        -0.00012
       7 -> 49         0.00022
       7 -> 50         0.00031
       7 -> 53         0.00048
       8 ->  9         0.70641
       8 -> 13        -0.03083
       8 -> 17         0.02251
       8 -> 23        -0.00842
       8 -> 29         0.01017
       8 -> 31        -0.00142
       8 -> 37         0.00034
       8 -> 48        -0.00027
       8 -> 52         0.00181
       3 <- 27         0.00129
       3 <- 38         0.00141
       3 <- 45         0.00288
       4 <- 27         0.00225
       4 <- 38         0.00013
       4 <- 45        -0.00116
       5 <-  9        -0.00056
       5 <- 13        -0.00076
       5 <- 17        -0.00100
       5 <- 23         0.00048
       5 <- 29        -0.00071
       5 <- 31         0.00070
       5 <- 37         0.00141
       5 <- 44         0.00020
       5 <- 48         0.00013
       5 <- 52         0.00018
       6 <- 27         0.00025
       6 <- 38        -0.00077
       6 <- 45         0.00136
       7 <- 12        -0.00054
       7 <- 15        -0.00820
       7 <- 18         0.00120
       7 <- 22         0.00747
       7 <- 25         0.00013
       7 <- 30         0.00407
       7 <- 33        -0.00115
       7 <- 35         0.00206
       7 <- 40         0.00088
       7 <- 50         0.00021
       7 <- 53         0.00136
       8 <-  9        -0.02983
       8 <- 13         0.00215
       8 <- 17        -0.00489
       8 <- 23         0.00073
       8 <- 29        -0.00137
       8 <- 31        -0.00059
       8 <- 37        -0.00111
       8 <- 52         0.00051
 This state for optimization and/or second-order correction.
 Total Energy, E(TD-HF/TD-DFT) =  -114.404139993
 Copying the excited state density for this state as the 1-particle RhoCI density.

 Excited State   2:      Singlet-B2     6.9467 eV  178.48 nm  f=0.0181  <S**2>=0.000
       3 -> 12         0.00169
       3 -> 15         0.00062
       3 -> 18         0.00132
       3 -> 22        -0.00034
       3 -> 25         0.00119
       3 -> 33         0.00026
       3 -> 35        -0.00054
       3 -> 40        -0.00023
       3 -> 49         0.00017
       4 -> 12        -0.00240
       4 -> 15         0.00207
       4 -> 18         0.00180
       4 -> 22        -0.00320
       4 -> 25         0.00304
       4 -> 30         0.00034
       4 -> 33        -0.00028
       4 -> 35         0.00041
       4 -> 40         0.00043
       4 -> 42        -0.00013
       5 -> 10        -0.00836
       5 -> 11        -0.00657
       5 -> 14         0.00716
       5 -> 16        -0.00061
       5 -> 19        -0.00315
       5 -> 20         0.00259
       5 -> 21         0.00571
       5 -> 24        -0.00071
       5 -> 26         0.00204
       5 -> 28         0.00097
       5 -> 32        -0.00107
       5 -> 34        -0.00098
       5 -> 36        -0.00018
       5 -> 39        -0.00021
       5 -> 41        -0.00051
       5 -> 43        -0.00046
       5 -> 46        -0.00017
       5 -> 54         0.00013
       6 -> 12        -0.00095
       6 -> 15         0.00137
       6 -> 18         0.00106
       6 -> 22        -0.00217
       6 -> 25         0.00092
       6 -> 30        -0.00051
       6 -> 33        -0.00029
       6 -> 35         0.00065
       6 -> 42        -0.00016
       6 -> 49         0.00041
       6 -> 50        -0.00020
       7 -> 38        -0.00069
       7 -> 45         0.00012
       8 -> 10         0.70270
       8 -> 11        -0.07237
       8 -> 14         0.02106
       8 -> 16        -0.00348
       8 -> 19        -0.00146
       8 -> 20         0.01763
       8 -> 21        -0.00223
       8 -> 26         0.00305
       8 -> 28         0.00117
       8 -> 32         0.00093
       8 -> 34         0.00065
       8 -> 36         0.00027
       8 -> 39         0.00031
       8 -> 41        -0.00026
       8 -> 43         0.00059
       8 -> 46        -0.00029
       8 -> 47         0.00017
       8 -> 51        -0.00019
       8 -> 54         0.00023
       3 <- 12         0.00038
       3 <- 15         0.00050
       3 <- 18         0.00050
       3 <- 22        -0.00053
       3 <- 25         0.00064
       3 <- 30        -0.00010
       3 <- 33         0.00022
       3 <- 35        -0.00048
       3 <- 40        -0.00024
       3 <- 49         0.00022
       4 <- 12         0.00078
       4 <- 15         0.00197
       4 <- 18         0.00171
       4 <- 22        -0.00202
       4 <- 25         0.00205
       4 <- 30         0.00024
       4 <- 33        -0.00011
       4 <- 35         0.00017
       4 <- 40         0.00011
       4 <- 42        -0.00022
       4 <- 50        -0.00014
       5 <- 10         0.00223
       5 <- 11        -0.00023
       5 <- 14         0.00456
       5 <- 16        -0.00050
       5 <- 19        -0.00042
       5 <- 20         0.00069
       5 <- 21         0.00162
       5 <- 24        -0.00218
       5 <- 26         0.00139
       5 <- 28         0.00011
       5 <- 32        -0.00080
       5 <- 34        -0.00086
       5 <- 36        -0.00023
       5 <- 39        -0.00013
       5 <- 41        -0.00032
       5 <- 43        -0.00036
       5 <- 46        -0.00015
       6 <- 15        -0.00032
       6 <- 18         0.00092
       6 <- 22        -0.00038
       6 <- 25         0.00030
       6 <- 30         0.00040
       6 <- 33        -0.00034
       6 <- 35         0.00068
       6 <- 42        -0.00014
       6 <- 49         0.00032
       6 <- 50        -0.00022
       6 <- 53         0.00018
       7 <- 38        -0.00052
       7 <- 45         0.00014
       8 <- 10        -0.00139
       8 <- 11        -0.00068
       8 <- 14        -0.00412
       8 <- 16        -0.00060
       8 <- 19         0.00055
       8 <- 20        -0.00072
       8 <- 21        -0.00140
       8 <- 24         0.00167
       8 <- 26        -0.00089
       8 <- 28        -0.00038
       8 <- 32         0.00085
       8 <- 36         0.00031
       8 <- 39         0.00017
       8 <- 43         0.00035
       8 <- 46        -0.00013

 Excited State   3:      Singlet-B2     7.6698 eV  161.65 nm  f=0.0284  <S**2>=0.000
       3 -> 12        -0.00036
       3 -> 15        -0.00112
       3 -> 18         0.00127
       3 -> 22         0.00053
       3 -> 30         0.00272
       3 -> 33         0.00017
       3 -> 35        -0.00073
       3 -> 40        -0.00061
       3 -> 49         0.00070
       3 -> 50        -0.00017
       4 -> 12         0.00230
       4 -> 15         0.00057
       4 -> 18         0.00156
       4 -> 22        -0.00149
       4 -> 25         0.00266
       4 -> 30        -0.00148
       4 -> 33         0.00048
       4 -> 35        -0.00060
       4 -> 49         0.00022
       5 -> 10        -0.00455
       5 -> 11        -0.00011
       5 -> 14         0.01043
       5 -> 16        -0.00653
       5 -> 19         0.00016
       5 -> 20        -0.00459
       5 -> 21         0.00297
       5 -> 24        -0.00070
       5 -> 26         0.00178
       5 -> 28         0.00152
       5 -> 34        -0.00073
       5 -> 36        -0.00047
       5 -> 39         0.00051
       5 -> 41        -0.00064
       5 -> 43         0.00022
       5 -> 46         0.00092
       5 -> 47         0.00011
       5 -> 51        -0.00044
       6 -> 12        -0.00268
       6 -> 15        -0.00123
       6 -> 18        -0.00072
       6 -> 22         0.00101
       6 -> 25         0.00017
       6 -> 30         0.00123
       6 -> 33        -0.00055
       6 -> 35         0.00149
       6 -> 40         0.00119
       6 -> 49        -0.00137
       6 -> 50         0.00025
       6 -> 53         0.00013
       7 -> 27         0.00034
       7 -> 38        -0.00078
       7 -> 45        -0.00218
       8 -> 10         0.07221
       8 -> 11         0.70215
       8 -> 14         0.00158
       8 -> 16         0.00841
       8 -> 19        -0.03871
       8 -> 20        -0.00448
       8 -> 21        -0.00244
       8 -> 24         0.00094
       8 -> 26        -0.00028
       8 -> 28         0.00267
       8 -> 32         0.00010
       8 -> 34        -0.00022
       8 -> 36        -0.00033
       8 -> 39        -0.00027
       8 -> 41        -0.00102
       8 -> 43         0.00040
       8 -> 46         0.00262
       8 -> 51        -0.00119
       3 <- 12         0.00034
       3 <- 15        -0.00036
       3 <- 18         0.00108
       3 <- 25         0.00016
       3 <- 30         0.00143
       3 <- 33         0.00027
       3 <- 35        -0.00072
       3 <- 40        -0.00056
       3 <- 49         0.00064
       3 <- 50        -0.00011
       3 <- 53        -0.00036
       4 <- 12         0.00027
       4 <- 15         0.00090
       4 <- 18         0.00031
       4 <- 22        -0.00119
       4 <- 25         0.00116
       4 <- 30        -0.00081
       4 <- 33         0.00046
       4 <- 35        -0.00034
       4 <- 49         0.00016
       5 <- 10         0.00113
       5 <- 11        -0.00145
       5 <- 14         0.00276
       5 <- 16        -0.00043
       5 <- 19         0.00166
       5 <- 20        -0.00030
       5 <- 21         0.00089
       5 <- 24        -0.00143
       5 <- 26         0.00018
       5 <- 28         0.00062
       5 <- 32        -0.00078
       5 <- 34         0.00015
       5 <- 36         0.00011
       5 <- 39         0.00012
       5 <- 41        -0.00068
       5 <- 43         0.00012
       5 <- 46         0.00089
       5 <- 51        -0.00030
       6 <- 12        -0.00025
       6 <- 15        -0.00128
       6 <- 18         0.00048
       6 <- 22         0.00105
       6 <- 25        -0.00015
       6 <- 30         0.00135
       6 <- 33        -0.00050
       6 <- 35         0.00135
       6 <- 40         0.00097
       6 <- 49        -0.00113
       6 <- 50         0.00018
       6 <- 53         0.00011
       7 <- 27         0.00043
       7 <- 38        -0.00062
       7 <- 45        -0.00181
       8 <- 10        -0.00096
       8 <- 11        -0.00241
       8 <- 14        -0.00368
       8 <- 16         0.00037
       8 <- 19         0.00583
       8 <- 20         0.00087
       8 <- 21        -0.00190
       8 <- 24        -0.00053
       8 <- 26        -0.00165
       8 <- 28         0.00072
       8 <- 32        -0.00139
       8 <- 34         0.00174
       8 <- 39        -0.00080
       8 <- 41        -0.00099
       8 <- 43         0.00018
       8 <- 46         0.00212
       8 <- 47        -0.00028
       8 <- 51        -0.00078

 Excited State   4:      Singlet-B1     7.8657 eV  157.63 nm  f=0.0013  <S**2>=0.000
       3 ->  9        -0.03352
       3 -> 13         0.00435
       3 -> 17        -0.00672
       3 -> 23         0.00361
       3 -> 29        -0.00229
       3 -> 31        -0.00037
       3 -> 44         0.00059
       3 -> 48         0.00029
       3 -> 52         0.00112
       4 ->  9         0.01662
       4 -> 13        -0.00274
       4 -> 17         0.00089
       4 -> 23        -0.00249
       4 -> 29         0.00011
       4 -> 31        -0.00232
       4 -> 37        -0.00043
       4 -> 48        -0.00157
       4 -> 52        -0.00093
       5 -> 27        -0.00156
       5 -> 38         0.00205
       5 -> 45         0.00252
       6 ->  9         0.70534
       6 -> 13        -0.03156
       6 -> 17         0.02180
       6 -> 23        -0.01230
       6 -> 29         0.00731
       6 -> 31         0.00387
       6 -> 37        -0.00261
       6 -> 44        -0.00351
       6 -> 48         0.00539
       6 -> 52         0.00191
       7 -> 10         0.00188
       7 -> 11         0.00534
       7 -> 14        -0.00031
       7 -> 16        -0.01210
       7 -> 19        -0.00267
       7 -> 20         0.00214
       7 -> 21         0.00318
       7 -> 24         0.00215
       7 -> 26         0.00150
       7 -> 28        -0.00474
       7 -> 32        -0.00128
       7 -> 34         0.00015
       7 -> 36        -0.00156
       7 -> 39         0.00024
       7 -> 41        -0.00190
       7 -> 43         0.00098
       7 -> 46         0.00481
       7 -> 47         0.00241
       7 -> 51         0.00111
       7 -> 54         0.00056
       8 -> 27         0.00253
       8 -> 38         0.00085
       8 -> 45         0.00674
       3 <-  9        -0.01052
       3 <- 13         0.00055
       3 <- 17        -0.00336
       3 <- 23         0.00034
       3 <- 29        -0.00141
       3 <- 31        -0.00026
       3 <- 37        -0.00014
       3 <- 44        -0.00014
       3 <- 48         0.00057
       3 <- 52         0.00091
       4 <-  9         0.00563
       4 <- 17         0.00248
       4 <- 23        -0.00030
       4 <- 29         0.00225
       4 <- 31        -0.00217
       4 <- 37         0.00012
       4 <- 44         0.00020
       4 <- 48        -0.00135
       4 <- 52        -0.00051
       5 <- 27        -0.00165
       5 <- 38         0.00156
       5 <- 45         0.00223
       6 <-  9        -0.02158
       6 <- 13         0.00285
       6 <- 17        -0.00304
       6 <- 23         0.00046
       6 <- 29        -0.00223
       6 <- 31         0.00295
       6 <- 37        -0.00261
       6 <- 44        -0.00217
       6 <- 48         0.00472
       6 <- 52         0.00069
       7 <- 10         0.00193
       7 <- 11         0.00321
       7 <- 14         0.00102
       7 <- 16         0.00065
       7 <- 19        -0.00991
       7 <- 20         0.00819
       7 <- 21         0.00702
       7 <- 24         0.00647
       7 <- 26         0.00388
       7 <- 28         0.00061
       7 <- 32        -0.00119
       7 <- 34         0.00154
       7 <- 36        -0.00250
       7 <- 39         0.00047
       7 <- 41        -0.00132
       7 <- 43         0.00094
       7 <- 46         0.00432
       7 <- 47         0.00198
       7 <- 51         0.00078
       7 <- 54         0.00103
       8 <- 27         0.00234
       8 <- 38         0.00089
       8 <- 45         0.00595

 Excited State   5:      Singlet-A1     7.9692 eV  155.58 nm  f=0.0107  <S**2>=0.000
       3 -> 10         0.00327
       3 -> 11         0.00279
       3 -> 14         0.00287
       3 -> 16        -0.00033
       3 -> 19        -0.00767
       3 -> 20         0.00279
       3 -> 21         0.00251
       3 -> 24         0.00235
       3 -> 26         0.00328
       3 -> 28         0.00114
       3 -> 32         0.00087
       3 -> 34        -0.00171
       3 -> 36        -0.00058
       3 -> 39         0.00041
       3 -> 41        -0.00013
       3 -> 43         0.00024
       3 -> 46         0.00060
       3 -> 47        -0.00014
       3 -> 51        -0.00011
       4 -> 10         0.01077
       4 -> 11         0.00086
       4 -> 14         0.00763
       4 -> 16         0.00103
       4 -> 19         0.00230
       4 -> 20         0.00455
       4 -> 21        -0.00083
       4 -> 24        -0.00803
       4 -> 26         0.00358
       4 -> 32        -0.00085
       4 -> 34         0.00104
       4 -> 36         0.00027
       4 -> 43         0.00014
       4 -> 46        -0.00035
       4 -> 47        -0.00038
       4 -> 51        -0.00011
       5 -> 12         0.01218
       5 -> 15         0.01140
       5 -> 18         0.00852
       5 -> 22        -0.00270
       5 -> 25         0.00834
       5 -> 30        -0.00121
       5 -> 33        -0.00085
       5 -> 35         0.00094
       5 -> 40         0.00044
       5 -> 42         0.00011
       5 -> 53        -0.00018
       6 -> 10         0.00286
       6 -> 11        -0.01184
       6 -> 14         0.00030
       6 -> 16        -0.00755
       6 -> 19         0.01907
       6 -> 20        -0.00957
       6 -> 21        -0.00907
       6 -> 24        -0.01097
       6 -> 26        -0.00387
       6 -> 28        -0.00494
       6 -> 32        -0.00019
       6 -> 34        -0.00094
       6 -> 36         0.00057
       6 -> 39         0.00025
       6 -> 41        -0.00024
       6 -> 43         0.00022
       6 -> 46         0.00011
       6 -> 47         0.00105
       6 -> 51         0.00033
       6 -> 54        -0.00016
       7 ->  9         0.18007
       7 -> 13         0.01931
       7 -> 17        -0.00673
       7 -> 23         0.00666
       7 -> 29        -0.00225
       7 -> 31        -0.00121
       7 -> 37         0.00054
       7 -> 44         0.00040
       7 -> 48        -0.00017
       7 -> 52         0.00012
       8 -> 12         0.68123
       8 -> 15         0.03999
       8 -> 18         0.02200
       8 -> 22        -0.00985
       8 -> 25         0.00613
       8 -> 30        -0.00456
       8 -> 33         0.00306
       8 -> 35        -0.00362
       8 -> 40        -0.00041
       8 -> 49        -0.00034
       8 -> 50         0.00030
       8 -> 53        -0.00048
       3 <- 10         0.00117
       3 <- 11         0.00219
       3 <- 14         0.00169
       3 <- 16         0.00013
       3 <- 19        -0.00460
       3 <- 20         0.00139
       3 <- 21         0.00188
       3 <- 24         0.00130
       3 <- 26         0.00221
       3 <- 28         0.00078
       3 <- 32         0.00089
       3 <- 34        -0.00112
       3 <- 36        -0.00039
       3 <- 39         0.00031
       3 <- 43         0.00022
       3 <- 46         0.00069
       4 <- 10         0.00580
       4 <- 11        -0.00049
       4 <- 14         0.00436
       4 <- 16         0.00016
       4 <- 19         0.00111
       4 <- 20         0.00256
       4 <- 21        -0.00063
       4 <- 24        -0.00437
       4 <- 26         0.00223
       4 <- 32        -0.00113
       4 <- 34         0.00046
       4 <- 36         0.00012
       4 <- 41        -0.00018
       4 <- 43         0.00012
       4 <- 46        -0.00018
       4 <- 47        -0.00035
       5 <- 12         0.00449
       5 <- 15         0.00565

 The electronic state is 1-A1.
 Alpha  occ. eigenvalues --  -19.15823 -10.29607  -1.02127  -0.66222  -0.49466
 Alpha  occ. eigenvalues --   -0.45028  -0.38254  -0.28753
 Alpha virt. eigenvalues --   -0.09237   0.00426   0.03590   0.04198   0.06294
 Alpha virt. eigenvalues --    0.12379   0.16647   0.18793   0.21867   0.23550
 Alpha virt. eigenvalues --    0.24289   0.30712   0.42586   0.44579   0.50930

 Mulliken charges:
               1
     1  C   -0.005854
     2  H    0.138171
     3  H    0.138171
     4  O   -0.270488
 Sum of Mulliken charges =  -0.00000

 Dipole moment (field-independent basis, Debye):
    X=             -0.0000    Y=              0.0000    Z=             -2.9523  Tot=              2.9523
 Quadrupole moment (field-independent basis, Debye-Ang):
   XX=            -12.0773   YY=            -11.7354   ZZ=            -12.1352
   XY=              0.0000   XZ=              0.0000   YZ=             -0.0000

 Normal termination of Gaussian 16 at Fri Sep 17 10:52:46 2021.
