 Gaussian 16, Revision A.03,
 Gaussian 16:  ES64L-G16RevA.03 25-Dec-2016

 --------------------------------------------------------------------
 #p B3LYP/6-311+G** #p TD=(singlets,nstates=30)IOp(6/8=3) IOp(9/40=4)
 --------------------------------------------------------------------

 --------------------------------
 Scan Step 171, Bond Length 1.355
 --------------------------------
 Symbolic Z-matrix:
 Charge =  0 Multiplicity = 1

                         Standard orientation:
 ---------------------------------------------------------------------
 Center     Atomic      Atomic             Coordinates (Angstroms)
 Number     Number       Type             X           Y           Z
 ---------------------------------------------------------------------
      1          6           0        0.000000   -0.000000   -0.603581
      2          1           0        0.000000    0.937260   -1.194931
      3          1           0       -0.000000   -0.937260   -1.194931
      4          8           0        0.000000    0.000000    0.751419
 ---------------------------------------------------------------------

 SCF Done:  E(RB3LYP) =  -114.515013786     A.U. after    9 cycles

 Excitation energies and oscillator strengths:

 Excited State   1:      Singlet-A2     3.0959 eV  400.48 nm  f=0.0000  <S**2>=0.000
       3 -> 27         0.00196
       3 -> 38         0.00161
       3 -> 46         0.00290
       4 -> 27         0.00134
       4 -> 38        -0.00037
       4 -> 46        -0.00141
       5 ->  9         0.01690
       5 -> 13        -0.00070
       5 -> 17         0.00466
       5 -> 23         0.00100
       5 -> 29         0.00406
       5 -> 31        -0.00113
       5 -> 37         0.00259
       5 -> 44         0.00051
       5 -> 48         0.00012
       5 -> 52         0.00061
       6 -> 27        -0.00043
       6 -> 38        -0.00089
       6 -> 46         0.00170
       7 -> 12        -0.00065
       7 -> 15         0.00368
       7 -> 19        -0.00332
       7 -> 25         0.00134
       7 -> 30        -0.00112
       7 -> 33         0.00045
       7 -> 35         0.00011
       7 -> 40         0.00011
       7 -> 42        -0.00012
       7 -> 49         0.00019
       7 -> 50         0.00029
       7 -> 53         0.00048
       8 ->  9         0.70673
       8 -> 13        -0.02717
       8 -> 17         0.02236
       8 -> 23        -0.00764
       8 -> 29         0.01048
       8 -> 31        -0.00094
       8 -> 37         0.00046
       8 -> 48        -0.00028
       8 -> 52         0.00185
       3 <- 27         0.00117
       3 <- 38         0.00128
       3 <- 46         0.00297
       4 <- 27         0.00207
       4 <- 38         0.00016
       4 <- 46        -0.00116
       5 <-  9        -0.00058
       5 <- 13        -0.00073
       5 <- 17        -0.00098
       5 <- 23         0.00045
       5 <- 29        -0.00069
       5 <- 31         0.00063
       5 <- 37         0.00132
       5 <- 44         0.00018
       5 <- 48         0.00012
       5 <- 52         0.00016
       6 <- 27         0.00018
       6 <- 38        -0.00076
       6 <- 46         0.00133
       7 <- 12        -0.00041
       7 <- 15        -0.00855
       7 <- 19         0.00157
       7 <- 22         0.00747
       7 <- 25         0.00022
       7 <- 30         0.00430
       7 <- 33        -0.00106
       7 <- 35         0.00190
       7 <- 40         0.00084
       7 <- 49        -0.00010
       7 <- 50         0.00019
       7 <- 53         0.00139
       8 <-  9        -0.03234
       8 <- 13         0.00185
       8 <- 17        -0.00513
       8 <- 23         0.00067
       8 <- 29        -0.00154
       8 <- 31        -0.00055
       8 <- 37        -0.00099
       8 <- 52         0.00052
 This state for optimization and/or second-order correction.
 Total Energy, E(TD-HF/TD-DFT) =  -114.401242203
 Copying the excited state density for this state as the 1-particle RhoCI density.

 Excited State   2:      Singlet-B2     6.9537 eV  178.30 nm  f=0.0152  <S**2>=0.000
       3 -> 12         0.00175
       3 -> 15         0.00053
       3 -> 19         0.00143
       3 -> 22        -0.00034
       3 -> 25         0.00112
       3 -> 33         0.00028
       3 -> 35        -0.00062
       3 -> 40        -0.00031
       3 -> 49         0.00026
       3 -> 53        -0.00011
       4 -> 12        -0.00212
       4 -> 15         0.00215
       4 -> 19         0.00168
       4 -> 22        -0.00317
       4 -> 25         0.00294
       4 -> 30         0.00030
       4 -> 33        -0.00018
       4 -> 35         0.00032
       4 -> 40         0.00042
       4 -> 42        -0.00013
       5 -> 10        -0.00861
       5 -> 11        -0.00536
       5 -> 14         0.00748
       5 -> 16        -0.00052
       5 -> 18         0.00435
       5 -> 20         0.00211
       5 -> 21        -0.00555
       5 -> 24        -0.00095
       5 -> 26         0.00189
       5 -> 28         0.00096
       5 -> 32        -0.00105
       5 -> 34        -0.00098
       5 -> 36        -0.00021
       5 -> 39        -0.00016
       5 -> 41        -0.00056
       5 -> 43        -0.00041
       5 -> 54         0.00013
       6 -> 12        -0.00139
       6 -> 15         0.00126
       6 -> 19         0.00066
       6 -> 22        -0.00198
       6 -> 25         0.00083
       6 -> 30        -0.00046
       6 -> 33        -0.00032
       6 -> 35         0.00079
       6 -> 40         0.00015
       6 -> 42        -0.00014
       6 -> 49         0.00033
       6 -> 50        -0.00016
       7 -> 38        -0.00074
       8 -> 10         0.70321
       8 -> 11        -0.06573
       8 -> 14         0.02449
       8 -> 16        -0.00201
       8 -> 18         0.00802
       8 -> 20         0.01721
       8 -> 21         0.00196
       8 -> 24         0.00018
       8 -> 26         0.00330
       8 -> 28         0.00148
       8 -> 32         0.00088
       8 -> 34         0.00045
       8 -> 36         0.00020
       8 -> 39         0.00029
       8 -> 41        -0.00029
       8 -> 43         0.00059
       8 -> 47         0.00020
       8 -> 51        -0.00026
       8 -> 54         0.00026
       3 <- 12         0.00038
       3 <- 15         0.00047
       3 <- 19         0.00055
       3 <- 22        -0.00056
       3 <- 25         0.00059
       3 <- 33         0.00024
       3 <- 35        -0.00054
       3 <- 40        -0.00031
       3 <- 49         0.00031
       3 <- 53        -0.00011
       4 <- 12         0.00077
       4 <- 15         0.00199
       4 <- 19         0.00160
       4 <- 22        -0.00204
       4 <- 25         0.00196
       4 <- 30         0.00020
       4 <- 42        -0.00022
       4 <- 50        -0.00014
       5 <- 10         0.00217
       5 <- 11        -0.00023
       5 <- 14         0.00445
       5 <- 16        -0.00043
       5 <- 18         0.00040
       5 <- 20         0.00054
       5 <- 21        -0.00145
       5 <- 24        -0.00226
       5 <- 26         0.00132
       5 <- 28         0.00012
       5 <- 32        -0.00083
       5 <- 34        -0.00082
       5 <- 36        -0.00021
       5 <- 39        -0.00011
       5 <- 41        -0.00038
       5 <- 43        -0.00034
       6 <- 12        -0.00013
       6 <- 15        -0.00050
       6 <- 19         0.00087
       6 <- 22        -0.00018
       6 <- 25         0.00027
       6 <- 30         0.00053
       6 <- 33        -0.00037
       6 <- 35         0.00079
       6 <- 40         0.00012
       6 <- 42        -0.00012
       6 <- 49         0.00025
       6 <- 50        -0.00019
       6 <- 53         0.00020
       7 <- 38        -0.00055
       8 <- 10        -0.00136
       8 <- 11        -0.00092
       8 <- 14        -0.00383
       8 <- 16        -0.00067
       8 <- 18        -0.00099
       8 <- 20        -0.00068
       8 <- 21         0.00134
       8 <- 24         0.00140
       8 <- 26        -0.00095
       8 <- 28        -0.00029
       8 <- 32         0.00071
       8 <- 34        -0.00012
       8 <- 36         0.00032
       8 <- 43         0.00032

 Excited State   3:      Singlet-B1     7.4684 eV  166.01 nm  f=0.0014  <S**2>=0.000
       3 ->  9        -0.03338
       3 -> 13         0.00383
       3 -> 17        -0.00645
       3 -> 23         0.00329
       3 -> 29        -0.00205
       3 -> 31        -0.00044
       3 -> 44         0.00053
       3 -> 48         0.00041
       3 -> 52         0.00111
       4 ->  9         0.01632
       4 -> 13        -0.00272
       4 -> 17         0.00080
       4 -> 23        -0.00249
       4 -> 29         0.00015
       4 -> 31        -0.00217
       4 -> 37        -0.00045
       4 -> 48        -0.00152
       4 -> 52        -0.00089
       5 -> 27        -0.00138
       5 -> 38         0.00201
       5 -> 46         0.00222
       6 ->  9         0.70558
       6 -> 13        -0.02907
       6 -> 17         0.02098
       6 -> 23        -0.01215
       6 -> 29         0.00674
       6 -> 31         0.00396
       6 -> 37        -0.00259
       6 -> 44        -0.00348
       6 -> 48         0.00522
       6 -> 52         0.00186
       7 -> 10         0.00048
       7 -> 11         0.00203
       7 -> 14        -0.00125
       7 -> 16        -0.01170
       7 -> 18         0.00120
       7 -> 20         0.00190
       7 -> 21        -0.00252
       7 -> 24         0.00154
       7 -> 26         0.00075
       7 -> 28        -0.00471
       7 -> 32        -0.00124
       7 -> 34         0.00023
       7 -> 36        -0.00158
       7 -> 39         0.00018
       7 -> 41        -0.00166
       7 -> 43         0.00091
       7 -> 45         0.00458
       7 -> 47         0.00258
       7 -> 51         0.00112
       7 -> 54         0.00057
       8 -> 27         0.00211
       8 -> 38         0.00071
       8 -> 46         0.00661
       3 <-  9        -0.01059
       3 <- 13         0.00033
       3 <- 17        -0.00333
       3 <- 23         0.00016
       3 <- 29        -0.00130
       3 <- 31        -0.00036
       3 <- 37        -0.00011
       3 <- 44        -0.00017
       3 <- 48         0.00067
       3 <- 52         0.00089
       4 <-  9         0.00589
       4 <- 17         0.00245
       4 <- 23        -0.00029
       4 <- 29         0.00222
       4 <- 31        -0.00192
       4 <- 44         0.00020
       4 <- 48        -0.00131
       4 <- 52        -0.00050
       5 <- 27        -0.00155
       5 <- 38         0.00154
       5 <- 46         0.00197
       6 <-  9        -0.02187
       6 <- 13         0.00253
       6 <- 17        -0.00301
       6 <- 23         0.00025
       6 <- 29        -0.00249
       6 <- 31         0.00268
       6 <- 37        -0.00253
       6 <- 44        -0.00214
       6 <- 48         0.00459
       6 <- 52         0.00068
       7 <- 10         0.00234
       7 <- 11         0.00401
       7 <- 14         0.00159
       7 <- 16         0.00113
       7 <- 18         0.01244
       7 <- 20         0.00757
       7 <- 21        -0.00670
       7 <- 24         0.00603
       7 <- 26         0.00334
       7 <- 28         0.00054
       7 <- 32        -0.00110
       7 <- 34         0.00149
       7 <- 36        -0.00254
       7 <- 39         0.00042
       7 <- 41        -0.00114
       7 <- 43         0.00086
       7 <- 45         0.00415
       7 <- 47         0.00214
       7 <- 51         0.00080
       7 <- 54         0.00106
       8 <- 27         0.00209
       8 <- 38         0.00079
       8 <- 46         0.00589

 Excited State   4:      Singlet-A1     7.5941 eV  163.26 nm  f=0.1316  <S**2>=0.000
       3 -> 10         0.00557
       3 -> 11         0.01441
       3 -> 14         0.00747
       3 -> 16        -0.00130
       3 -> 18         0.02427
       3 -> 20         0.00212
       3 -> 21        -0.00638
       3 -> 24         0.00674
       3 -> 26         0.00895
       3 -> 28         0.00134
       3 -> 32         0.00314
       3 -> 34        -0.00393
       3 -> 36        -0.00196
       3 -> 39         0.00147
       3 -> 41         0.00021
       3 -> 43         0.00069
       3 -> 45         0.00182
       3 -> 47         0.00079
       3 -> 51         0.00014
       3 -> 54         0.00029
       4 -> 10         0.02771
       4 -> 11        -0.01123
       4 -> 14         0.01648
       4 -> 16         0.00180
       4 -> 18        -0.00778
       4 -> 20         0.01002
       4 -> 21        -0.00026
       4 -> 24        -0.00831
       4 -> 26         0.00632
       4 -> 28         0.00089
       4 -> 32        -0.00130
       4 -> 34         0.00319
       4 -> 36         0.00075
       4 -> 39        -0.00020
       4 -> 45        -0.00076
       4 -> 47        -0.00155
       5 -> 12         0.03311
       5 -> 15         0.03322
       5 -> 19         0.00289
       5 -> 22         0.00132
       5 -> 25         0.01420
       5 -> 30        -0.00333
       5 -> 33        -0.00318
       5 -> 35         0.00156
       5 -> 40         0.00165
       5 -> 42         0.00075
       5 -> 49         0.00060
       5 -> 50        -0.00043
       5 -> 53        -0.00037
       6 -> 10        -0.03335
       6 -> 11        -0.05495
       6 -> 14        -0.02066
       6 -> 16        -0.03248
       6 -> 18        -0.09423
       6 -> 20        -0.04174
       6 -> 21         0.03097
       6 -> 24        -0.02713
       6 -> 26        -0.01420
       6 -> 28        -0.01159
       6 -> 32        -0.00020
       6 -> 34        -0.00331
       6 -> 36         0.00246
       6 -> 41        -0.00106
       6 -> 43         0.00037
       6 -> 45         0.00072
       6 -> 47         0.00177
       6 -> 51         0.00072
       6 -> 54        -0.00023
       7 ->  9         0.68118
       7 -> 13         0.02728
       7 -> 17        -0.02811
       7 -> 23         0.00775
       7 -> 29        -0.00544
       7 -> 31        -0.00139
       7 -> 44        -0.00079
       7 -> 48         0.00059
       7 -> 52         0.00099
       8 -> 12         0.03303
       8 -> 15         0.14440
       8 -> 19        -0.02559
       8 -> 22        -0.04968
       8 -> 25         0.00414
       8 -> 30        -0.01535
       8 -> 33         0.00607
       8 -> 35        -0.00747
       8 -> 40        -0.00288
       8 -> 42        -0.00038
       8 -> 49         0.00061
       8 -> 50         0.00042
       8 -> 53        -0.00105
       3 <- 10         0.00282
       3 <- 11         0.00835
       3 <- 14         0.00509
       3 <- 16        -0.00015
       3 <- 18         0.01534
       3 <- 20         0.00162
       3 <- 21        -0.00521
       3 <- 24         0.00462
       3 <- 26         0.00579
       3 <- 28         0.00101
       3 <- 32         0.00278
       3 <- 34        -0.00250
       3 <- 36        -0.00135
       3 <- 39         0.00110
       3 <- 41         0.00015
       3 <- 43         0.00067
       3 <- 45         0.00189
       3 <- 47         0.00105
       3 <- 51         0.00013
       3 <- 54         0.00031
       4 <- 10         0.01051
       4 <- 11        -0.00488
       4 <- 14         0.00681
       4 <- 16         0.00046
       4 <- 18        -0.00434
       4 <- 20         0.00579
       4 <- 24        -0.00478
       4 <- 26         0.00430
       4 <- 32        -0.00171
       4 <- 34         0.00245
       4 <- 36         0.00043
       4 <- 39        -0.00021
       4 <- 41        -0.00014
       4 <- 45        -0.00024
       4 <- 47        -0.00142
       4 <- 51         0.00011
       5 <- 12         0.00925
       5 <- 15         0.01205
       5 <- 19         0.00154
       5 <- 22         0.00063
       5 <- 25         0.00780
       5 <- 30        -0.00189
       5 <- 33        -0.00224
       5 <- 35         0.00128
       5 <- 40         0.00137
       5 <- 42         0.00057
       5 <- 49         0.00050
       5 <- 50        -0.00039
       5 <- 53        -0.00031
       6 <- 10        -0.00631
       6 <- 11        -0.01119
       6 <- 14        -0.00572
       6 <- 16        -0.01091
       6 <- 18        -0.03368
       6 <- 20        -0.01762
       6 <- 21         0.01453
       6 <- 24        -0.01423
       6 <- 26        -0.00815
       6 <- 28        -0.00707
       6 <- 32         0.00017
       6 <- 34        -0.00281
       6 <- 36         0.00166
       6 <- 39         0.00025
       6 <- 41        -0.00069
       6 <- 43         0.00031
       6 <- 45         0.00026
       6 <- 47         0.00144
       6 <- 51         0.00052
       6 <- 54        -0.00016
       7 <-  9        -0.09615
       7 <- 13         0.01292
       7 <- 17        -0.01462
       7 <- 23         0.00776
       7 <- 29        -0.00608
       7 <- 37        -0.00026
       7 <- 44        -0.00027
       7 <- 52         0.00080
       8 <- 12         0.00064
       8 <- 15         0.02643
       8 <- 19        -0.00667
       8 <- 22        -0.01964
       8 <- 25         0.00115
       8 <- 30        -0.00936
       8 <- 33         0.00398
       8 <- 35        -0.00507
       8 <- 40        -0.00219
       8 <- 42        -0.00030
       8 <- 49         0.00040
       8 <- 50         0.00031
       8 <- 53        -0.00092

 Excited State   5:      Singlet-B2     7.6323 eV  162.45 nm  f=0.0286  <S**2>=0.000
       3 -> 12        -0.00037
       3 -> 15        -0.00130
       3 -> 19         0.00151
       3 -> 22         0.00055
       3 -> 25        -0.00014
       3 -> 30         0.00297
       3 -> 33         0.00018
       3 -> 35        -0.00087
       3 -> 40        -0.00070
       3 -> 49         0.00083
       3 -> 50        -0.00016
       4 -> 12         0.00212
       4 -> 15         0.00075
       4 -> 19         0.00121
       4 -> 22        -0.00149
       4 -> 25         0.00248
       4 -> 30        -0.00160
       4 -> 33         0.00048
       4 -> 35        -0.00062
       4 -> 49         0.00019
       5 -> 10        -0.00297
       5 -> 11         0.00017
       5 -> 14         0.01091
       5 -> 16        -0.00607
       5 -> 18        -0.00069
       5 -> 20        -0.00424
       5 -> 21        -0.00351
       5 -> 24        -0.00064
       5 -> 26         0.00193
       5 -> 28         0.00150
       5 -> 32         0.00023
       5 -> 34        -0.00063
       5 -> 36        -0.00057
       5 -> 39         0.00058
       5 -> 41        -0.00060
       5 -> 43         0.00025
       5 -> 45         0.00093
       5 -> 47         0.00019
       5 -> 51        -0.00046
       6 -> 12        -0.00248
       6 -> 15        -0.00096
       6 -> 19        -0.00076
       6 -> 22         0.00092
       6 -> 25         0.00017
       6 -> 30         0.00128
       6 -> 33        -0.00053
       6 -> 35         0.00150
       6 -> 40         0.00126
       6 -> 42         0.00011
       6 -> 49        -0.00148
       6 -> 50         0.00021
       6 -> 53         0.00014
       7 -> 27         0.00047
       7 -> 38        -0.00073
       7 -> 46        -0.00238
       8 -> 10         0.06503
       8 -> 11         0.70246
       8 -> 14         0.00598
       8 -> 16         0.00910
       8 -> 18         0.04464
       8 -> 20        -0.00784
       8 -> 21         0.00162
       8 -> 24         0.00170
       8 -> 26         0.00015
       8 -> 28         0.00334
       8 -> 32         0.00013
       8 -> 34        -0.00025
       8 -> 36        -0.00048
       8 -> 39        -0.00026
       8 -> 41        -0.00094
       8 -> 43         0.00041
       8 -> 45         0.00293
       8 -> 47         0.00017
       8 -> 51        -0.00133
       8 -> 54         0.00012
       3 <- 12         0.00033
       3 <- 15        -0.00043
       3 <- 19         0.00116
       3 <- 30         0.00152
       3 <- 33         0.00028
       3 <- 35        -0.00083
       3 <- 40        -0.00065
       3 <- 49         0.00078
       3 <- 50        -0.00011
       3 <- 53        -0.00041
       4 <- 12         0.00022
       4 <- 15         0.00095
       4 <- 19         0.00018

 The electronic state is 1-A1.
 Alpha  occ. eigenvalues --  -19.16061 -10.30145  -1.00436  -0.66778  -0.49216
 Alpha  occ. eigenvalues --   -0.44536  -0.37316  -0.28864
 Alpha virt. eigenvalues --   -0.10130   0.00292   0.03422   0.04178   0.06253
 Alpha virt. eigenvalues --    0.12162   0.16277   0.18845   0.21813   0.22464
 Alpha virt. eigenvalues --    0.23646   0.30350   0.41729   0.43975   0.50944

 Mulliken charges:
               1
     1  C   -0.013677
     2  H    0.146038
     3  H    0.146038
     4  O   -0.278399
 Sum of Mulliken charges =   0.00000

 Dipole moment (field-independent basis, Debye):
    X=             -0.0000    Y=              0.0000    Z=             -3.0944  Tot=              3.0944
 Quadrupole moment (field-independent basis, Debye-Ang):
   XX=            -12.1856   YY=            -11.7467   ZZ=            -12.0236
   XY=              0.0000   XZ=              0.0000   YZ=              0.0000

 Normal termination of Gaussian 16 at Fri Sep 17 10:52:50 2021.
