 Gaussian 16, Revision A.03,
 Gaussian 16:  ES64L-G16RevA.03 25-Dec-2016

 --------------------------------------------------------------------
 #p B3LYP/6-311+G** #p TD=(singlets,nstates=30)IOp(6/8=3) IOp(9/40=4)
 --------------------------------------------------------------------

 --------------------------------
 Scan Step 137, Bond Length 1.185
 --------------------------------
 Symbolic Z-matrix:
 Charge =  0 Multiplicity = 1

                         Standard orientation:
 ---------------------------------------------------------------------
 Center     Atomic      Atomic             Coordinates (Angstroms)
 Number     Number       Type             X           Y           Z
 ---------------------------------------------------------------------
      1          6           0        0.000000    0.000000   -0.518581
      2          1           0        0.000000    0.937260   -1.109931
      3          1           0       -0.000000   -0.937260   -1.109931
      4          8           0        0.000000   -0.000000    0.666419
 ---------------------------------------------------------------------

 SCF Done:  E(RB3LYP) =  -114.541310010     A.U. after    9 cycles

 Excitation energies and oscillator strengths:

 Excited State   1:      Singlet-A2     4.0610 eV  305.31 nm  f=0.0000  <S**2>=0.000
       3 -> 27         0.00256
       3 -> 38         0.00217
       3 -> 45         0.00240
       4 -> 27         0.00204
       4 -> 38        -0.00059
       4 -> 45        -0.00126
       5 ->  9         0.02124
       5 -> 13        -0.00382
       5 -> 17         0.00578
       5 -> 23        -0.00053
       5 -> 29         0.00432
       5 -> 31         0.00248
       5 -> 37         0.00356
       5 -> 44         0.00064
       5 -> 47         0.00015
       5 -> 52         0.00080
       6 -> 38        -0.00081
       6 -> 45         0.00177
       7 -> 12        -0.00062
       7 -> 15         0.00265
       7 -> 18        -0.00265
       7 -> 22         0.00085
       7 -> 25         0.00142
       7 -> 30        -0.00088
       7 -> 33         0.00042
       7 -> 35        -0.00031
       7 -> 40        -0.00028
       7 -> 49         0.00040
       7 -> 50         0.00031
       7 -> 53         0.00046
       8 ->  9         0.70503
       8 -> 13        -0.04806
       8 -> 17         0.02333
       8 -> 23        -0.01074
       8 -> 29         0.00872
       8 -> 31         0.00283
       8 -> 37        -0.00031
       8 -> 44        -0.00015
       8 -> 47        -0.00024
       8 -> 52         0.00163
       3 <- 27         0.00169
       3 <- 38         0.00181
       3 <- 45         0.00249
       4 <- 27         0.00287
       4 <- 45        -0.00108
       5 <-  9        -0.00034
       5 <- 13        -0.00085
       5 <- 17        -0.00095
       5 <- 23         0.00055
       5 <- 29        -0.00064
       5 <- 31        -0.00095
       5 <- 37         0.00168
       5 <- 44         0.00028
       5 <- 47         0.00016
       5 <- 52         0.00021
       6 <- 27         0.00052
       6 <- 38        -0.00073
       6 <- 45         0.00138
       7 <- 12        -0.00084
       7 <- 15        -0.00690
       7 <- 22         0.00723
       7 <- 25        -0.00024
       7 <- 30         0.00322
       7 <- 33        -0.00133
       7 <- 35        -0.00245
       7 <- 40        -0.00100
       7 <- 42         0.00013
       7 <- 49         0.00021
       7 <- 50         0.00019
       7 <- 53         0.00125
       8 <-  9        -0.02285
       8 <- 13         0.00339
       8 <- 17        -0.00421
       8 <- 23         0.00080
       8 <- 29        -0.00086
       8 <- 31         0.00098
       8 <- 37        -0.00156
       8 <- 52         0.00047
 This state for optimization and/or second-order correction.
 Total Energy, E(TD-HF/TD-DFT) =  -114.392071766
 Copying the excited state density for this state as the 1-particle RhoCI density.

 Excited State   2:      Singlet-B2     6.8286 eV  181.57 nm  f=0.0338  <S**2>=0.000
       3 -> 12         0.00144
       3 -> 15         0.00071
       3 -> 18         0.00116
       3 -> 22        -0.00030
       3 -> 25         0.00130
       3 -> 30        -0.00010
       3 -> 33         0.00017
       3 -> 35         0.00037
       4 -> 12        -0.00341
       4 -> 15         0.00172
       4 -> 18         0.00215
       4 -> 22        -0.00335
       4 -> 25         0.00346
       4 -> 30         0.00025
       4 -> 33        -0.00057
       4 -> 35        -0.00066
       4 -> 40        -0.00047
       4 -> 42        -0.00010
       5 -> 10        -0.00601
       5 -> 11        -0.00898
       5 -> 14         0.00699
       5 -> 16        -0.00093
       5 -> 19         0.00102
       5 -> 20         0.00180
       5 -> 21         0.00565
       5 -> 26         0.00258
       5 -> 28         0.00135
       5 -> 32         0.00078
       5 -> 34        -0.00102
       5 -> 36        -0.00022
       5 -> 39        -0.00031
       5 -> 41        -0.00030
       5 -> 43        -0.00055
       5 -> 46        -0.00039
       5 -> 54         0.00011
       6 -> 12         0.00031
       6 -> 15         0.00150
       6 -> 18         0.00241
       6 -> 22        -0.00261
       6 -> 25         0.00128
       6 -> 30        -0.00049
       6 -> 33        -0.00020
       6 -> 35        -0.00030
       6 -> 40         0.00017
       6 -> 42        -0.00021
       6 -> 49         0.00046
       6 -> 50        -0.00036
       7 -> 27         0.00024
       7 -> 38        -0.00051
       7 -> 45         0.00049
       8 -> 10         0.70336
       8 -> 11        -0.06766
       8 -> 14         0.01141
       8 -> 16        -0.00690
       8 -> 19         0.01297
       8 -> 20         0.01356
       8 -> 21        -0.00335
       8 -> 24         0.00031
       8 -> 26         0.00223
       8 -> 28         0.00068
       8 -> 32        -0.00094
       8 -> 34         0.00148
       8 -> 36         0.00042
       8 -> 39         0.00041
       8 -> 41        -0.00017
       8 -> 43         0.00063
       8 -> 46        -0.00068
       8 -> 48        -0.00013
       8 -> 54         0.00018
       3 <- 12         0.00036
       3 <- 15         0.00054
       3 <- 18         0.00045
       3 <- 22        -0.00043
       3 <- 25         0.00078
       3 <- 30        -0.00011
       3 <- 33         0.00015
       3 <- 35         0.00034
       4 <- 12         0.00072
       4 <- 15         0.00187
       4 <- 18         0.00209
       4 <- 22        -0.00205
       4 <- 25         0.00239
       4 <- 30         0.00019
       4 <- 33        -0.00035
       4 <- 35        -0.00039
       4 <- 40        -0.00015
       4 <- 42        -0.00022
       4 <- 49        -0.00010
       4 <- 50        -0.00011
       5 <- 10         0.00242
       5 <- 11        -0.00025
       5 <- 14         0.00491
       5 <- 16        -0.00082
       5 <- 19         0.00022
       5 <- 20         0.00074
       5 <- 21         0.00220
       5 <- 24         0.00183
       5 <- 26         0.00157
       5 <- 28         0.00023
       5 <- 32         0.00051
       5 <- 34        -0.00099
       5 <- 36        -0.00030
       5 <- 39        -0.00017
       5 <- 41        -0.00012
       5 <- 43        -0.00041
       5 <- 46        -0.00034
       6 <- 12         0.00015
       6 <- 18         0.00128
       6 <- 22        -0.00078
       6 <- 25         0.00045
       6 <- 30         0.00030
       6 <- 33        -0.00026
       6 <- 35        -0.00042
       6 <- 40         0.00017
       6 <- 42        -0.00019
       6 <- 49         0.00038
       6 <- 50        -0.00037
       6 <- 53         0.00013
       7 <- 27         0.00020
       7 <- 38        -0.00038
       7 <- 45         0.00043
       8 <- 10        -0.00193
       8 <- 11        -0.00053
       8 <- 14        -0.00597
       8 <- 16        -0.00031
       8 <- 19        -0.00023
       8 <- 20        -0.00052
       8 <- 21        -0.00211
       8 <- 24        -0.00242
       8 <- 26        -0.00058
       8 <- 28        -0.00061
       8 <- 32        -0.00111
       8 <- 34         0.00047
       8 <- 36         0.00039
       8 <- 39         0.00033
       8 <- 43         0.00045
       8 <- 46        -0.00045

 Excited State   3:      Singlet-B2     7.6178 eV  162.76 nm  f=0.0246  <S**2>=0.000
       3 -> 12        -0.00029
       3 -> 15        -0.00076
       3 -> 18         0.00080
       3 -> 22         0.00039
       3 -> 25         0.00018
       3 -> 30         0.00201
       3 -> 33         0.00013
       3 -> 35         0.00044
       3 -> 40         0.00041
       3 -> 49         0.00042
       3 -> 50        -0.00024
       4 -> 12         0.00282
       4 -> 18         0.00257
       4 -> 22        -0.00150
       4 -> 25         0.00306
       4 -> 30        -0.00120
       4 -> 33         0.00051
       4 -> 35         0.00052
       4 -> 42        -0.00014
       4 -> 49         0.00024
       5 -> 10        -0.00737
       5 -> 14         0.00812
       5 -> 16        -0.00712
       5 -> 19        -0.00268
       5 -> 20        -0.00430
       5 -> 21         0.00135
       5 -> 24         0.00120
       5 -> 26         0.00075
       5 -> 28         0.00163
       5 -> 32         0.00017
       5 -> 34        -0.00123
       5 -> 36        -0.00022
       5 -> 39         0.00040
       5 -> 41        -0.00077
       5 -> 43         0.00012
       5 -> 46         0.00087
       5 -> 51        -0.00042
       6 -> 12        -0.00313
       6 -> 15        -0.00182
       6 -> 18        -0.00097
       6 -> 22         0.00133
       6 -> 25         0.00014
       6 -> 30         0.00093
       6 -> 33        -0.00053
       6 -> 35        -0.00149
       6 -> 40        -0.00102
       6 -> 49        -0.00107
       6 -> 50         0.00050
       6 -> 53         0.00011
       7 -> 38        -0.00097
       7 -> 45        -0.00171
       8 -> 10         0.06815
       8 -> 11         0.70290
       8 -> 14        -0.00718
       8 -> 16         0.01165
       8 -> 19        -0.02887
       8 -> 20         0.00789
       8 -> 21        -0.00272
       8 -> 24         0.00050
       8 -> 26        -0.00145
       8 -> 28         0.00082
       8 -> 32        -0.00025
       8 -> 34        -0.00018
       8 -> 39        -0.00019
       8 -> 41        -0.00126
       8 -> 43         0.00028
       8 -> 46         0.00181
       8 -> 51        -0.00094
       8 -> 54        -0.00012
       3 <- 12         0.00034
       3 <- 15        -0.00024
       3 <- 18         0.00088
       3 <- 25         0.00032
       3 <- 30         0.00115
       3 <- 33         0.00024
       3 <- 35         0.00050
       3 <- 40         0.00038
       3 <- 49         0.00035
       3 <- 50        -0.00015
       3 <- 53        -0.00027
       4 <- 12         0.00034
       4 <- 15         0.00072
       4 <- 18         0.00064
       4 <- 22        -0.00115
       4 <- 25         0.00127
       4 <- 30        -0.00057
       4 <- 33         0.00046
       4 <- 35         0.00017
       4 <- 42        -0.00015
       4 <- 49         0.00017
       4 <- 50        -0.00013
       5 <- 10         0.00127
       5 <- 11        -0.00113
       5 <- 14         0.00254
       5 <- 16        -0.00043
       5 <- 19         0.00103
       5 <- 20        -0.00043
       5 <- 21         0.00077
       5 <- 24         0.00132
       5 <- 26        -0.00013
       5 <- 28         0.00073
       5 <- 32         0.00106
       5 <- 34        -0.00024
       5 <- 36         0.00017
       5 <- 39         0.00012
       5 <- 41        -0.00079
       5 <- 46         0.00081
       5 <- 48         0.00013
       5 <- 51        -0.00031
       6 <- 12        -0.00032
       6 <- 15        -0.00063
       6 <- 22         0.00067
       6 <- 25        -0.00010
       6 <- 30         0.00066
       6 <- 33        -0.00037
       6 <- 35        -0.00120
       6 <- 40        -0.00077
       6 <- 49        -0.00087
       6 <- 50         0.00040
       7 <- 27         0.00017
       7 <- 38        -0.00077
       7 <- 45        -0.00144
       8 <- 10        -0.00069
       8 <- 11        -0.00068
       8 <- 14        -0.00377
       8 <- 16         0.00047
       8 <- 19         0.00400
       8 <- 20        -0.00106
       8 <- 21        -0.00203
       8 <- 24         0.00033
       8 <- 26        -0.00168
       8 <- 28         0.00022
       8 <- 32         0.00113
       8 <- 34         0.00126
       8 <- 39        -0.00051
       8 <- 41        -0.00110
       8 <- 43         0.00014
       8 <- 46         0.00144
       8 <- 48         0.00021
       8 <- 51        -0.00064

 Excited State   4:      Singlet-A1     7.8057 eV  158.84 nm  f=0.0500  <S**2>=0.000
       3 -> 10         0.00191
       3 -> 11        -0.00086
       3 -> 14         0.00088
       3 -> 16        -0.00016
       3 -> 19        -0.00011
       3 -> 20         0.00183
       3 -> 21         0.00080
       3 -> 24        -0.00064
       3 -> 26         0.00119
       3 -> 28         0.00096
       3 -> 34        -0.00063
       3 -> 36        -0.00020
       3 -> 41        -0.00021
       3 -> 46         0.00014
       3 -> 48         0.00030
       3 -> 51        -0.00021
       3 -> 54        -0.00020
       4 -> 10         0.00487
       4 -> 11         0.00586
       4 -> 14         0.00492
       4 -> 16         0.00039
       4 -> 19         0.00027
       4 -> 20         0.00407
       4 -> 21         0.00077
       4 -> 24         0.00714
       4 -> 26         0.00166
       4 -> 28        -0.00039
       4 -> 32         0.00065
       4 -> 43         0.00016
       4 -> 46        -0.00021
       4 -> 51        -0.00015
       5 -> 12         0.00636
       5 -> 15         0.00218
       5 -> 18         0.01052
       5 -> 22        -0.00218
       5 -> 25         0.00535
       5 -> 30        -0.00015
       5 -> 33        -0.00016
       5 -> 35        -0.00077
       5 -> 50         0.00024
       5 -> 53        -0.00013
       6 -> 10         0.01228
       6 -> 11        -0.00268
       6 -> 14         0.00440
       6 -> 16         0.00093
       6 -> 19         0.00242
       6 -> 20         0.00401
       6 -> 21         0.00067
       6 -> 24         0.00357
       6 -> 28        -0.00182
       6 -> 32         0.00045
       6 -> 39         0.00011
       6 -> 43         0.00013
       6 -> 48        -0.00066
       6 -> 51         0.00021
       6 -> 54        -0.00010
       7 ->  9         0.01862
       7 -> 13         0.01041
       7 -> 17         0.00259
       7 -> 23         0.00523
       7 -> 29        -0.00053
       7 -> 31         0.00090
       7 -> 37         0.00058
       7 -> 44         0.00065
       7 -> 47        -0.00034
       7 -> 52        -0.00011
       8 -> 12         0.70575
       8 -> 15        -0.00832
       8 -> 18         0.03019
       8 -> 22         0.00432
       8 -> 25         0.00368
       8 -> 30         0.00020
       8 -> 33         0.00158
       8 -> 35         0.00198
       8 -> 40        -0.00059
       8 -> 42         0.00021
       8 -> 49        -0.00043
       8 -> 50         0.00029
       8 -> 53        -0.00023
       3 <- 10         0.00061
       3 <- 14         0.00048
       3 <- 19        -0.00021
       3 <- 20         0.00084
       3 <- 21         0.00056
       3 <- 24        -0.00011
       3 <- 26         0.00077
       3 <- 28         0.00064
       3 <- 32        -0.00020
       3 <- 34        -0.00042
       3 <- 36        -0.00015
       3 <- 41        -0.00014
       3 <- 46         0.00023
       3 <- 48         0.00025
       3 <- 51        -0.00019
       3 <- 54        -0.00018
       4 <- 10         0.00428
       4 <- 11         0.00137
       4 <- 14         0.00363
       4 <- 16        -0.00018
       4 <- 19         0.00013
       4 <- 20         0.00234
       4 <- 21         0.00021
       4 <- 24         0.00389
       4 <- 26         0.00104
       4 <- 32         0.00076
       4 <- 34        -0.00047
       4 <- 39        -0.00016
       4 <- 43         0.00011
       4 <- 46        -0.00017
       4 <- 51        -0.00014
       5 <- 12         0.00273
       5 <- 15         0.00254
       5 <- 18         0.00369
       5 <- 22        -0.00077
       5 <- 25         0.00290
       5 <- 30        -0.00014
       5 <- 33        -0.00034
       5 <- 35        -0.00070
       5 <- 50         0.00015
       5 <- 53        -0.00012
       6 <- 10         0.00305
       6 <- 11        -0.00011
       6 <- 14         0.00170
       6 <- 16         0.00026
       6 <- 19         0.00067
       6 <- 20         0.00188
       6 <- 21         0.00012
       6 <- 24         0.00176
       6 <- 26         0.00022
       6 <- 28        -0.00117
       6 <- 32         0.00043
       6 <- 34        -0.00013
       6 <- 41         0.00013
       6 <- 46        -0.00013
       6 <- 48        -0.00054
       6 <- 51         0.00025
       7 <-  9         0.00044
       7 <- 13         0.00235
       7 <- 17         0.00059
       7 <- 23         0.00264
       7 <- 29        -0.00044
       7 <- 31         0.00062
       7 <- 37         0.00045
       7 <- 44         0.00054
       7 <- 47        -0.00029
       7 <- 52        -0.00010
       8 <- 12        -0.00091
       8 <- 15        -0.00573
       8 <- 18        -0.00188
       8 <- 22         0.00071
       8 <- 25        -0.00174
       8 <- 30        -0.00059
       8 <- 33         0.00068
       8 <- 35         0.00087
       8 <- 40        -0.00059
       8 <- 42         0.00019
       8 <- 49        -0.00045
       8 <- 50         0.00020
       8 <- 53        -0.00024

 Excited State   5:      Singlet-A2     8.3109 eV  149.18 nm  f=0.0000  <S**2>=0.000
       3 -> 27        -0.00047
       3 -> 38        -0.00042
       3 -> 45        -0.00023
       4 -> 27         0.00020
       4 -> 38         0.00049
       5 ->  9        -0.00643
       5 -> 13        -0.00426
       5 -> 17         0.00656
       5 -> 23        -0.00195
       5 -> 29        -0.00014
       5 -> 31        -0.00148
       5 -> 37        -0.00097
       5 -> 44        -0.00020
       6 -> 27         0.00023
       6 -> 38         0.00029
       6 -> 45        -0.00024
       7 -> 12        -0.00031
       7 -> 15        -0.00187
       7 -> 18         0.00200
       7 -> 22        -0.00069
       7 -> 35         0.00013
       7 -> 40         0.00011
       8 ->  9         0.04777
       8 -> 13         0.70494
       8 -> 17         0.01929
       8 -> 23         0.01698
       8 -> 29         0.00020
       8 -> 31        -0.00156
       8 -> 37        -0.00032
       8 -> 47         0.00017
       8 -> 52        -0.00010
       3 <- 27        -0.00014
       3 <- 38        -0.00027
       3 <- 45        -0.00031
       4 <- 27        -0.00012
       5 <-  9        -0.00032
       5 <- 13        -0.00033
       5 <- 17         0.00053
       5 <- 37        -0.00020
       6 <- 38         0.00019
       7 <- 12        -0.00061
       7 <- 15        -0.00098
       7 <- 18         0.00074
       7 <- 22        -0.00097
       7 <- 25        -0.00042
       7 <- 30         0.00022
       7 <- 33         0.00038
       7 <- 35         0.00061
       7 <- 40         0.00036
       8 <-  9         0.00184
       8 <- 13         0.00133
       8 <- 17         0.00024
       8 <- 23        -0.00016
       8 <- 37         0.00014

 Excited State   6:      Singlet-B1     9.3022 eV  133.29 nm  f=0.0008  <S**2>=0.000
       3 ->  9        -0.03230
       3 -> 13         0.00652
       3 -> 17        -0.00749
       3 -> 23         0.00477
       3 -> 29        -0.00307
       3 -> 31        -0.00011
       3 -> 44         0.00075
       3 -> 52         0.00112
       4 ->  9         0.01695
       4 -> 13        -0.00283
       4 -> 17         0.00109
       4 -> 23        -0.00246
       4 -> 29        -0.00015
       4 -> 31         0.00289
       4 -> 37        -0.00029
       4 -> 44        -0.00016

 The electronic state is 1-A1.
 Alpha  occ. eigenvalues --  -19.14994 -10.27615  -1.08607  -0.64278  -0.50968
 Alpha  occ. eigenvalues --   -0.46738  -0.41979  -0.28065
 Alpha virt. eigenvalues --   -0.05983   0.00831   0.03965   0.04273   0.06513
 Alpha virt. eigenvalues --    0.13009   0.18008   0.18532   0.21990   0.23140
 Alpha virt. eigenvalues --    0.27036   0.33245   0.46064   0.46861   0.50951

 Mulliken charges:
               1
     1  C    0.023477
     2  H    0.106916
     3  H    0.106916
     4  O   -0.237309
 Sum of Mulliken charges =  -0.00000

 Dipole moment (field-independent basis, Debye):
    X=             -0.0000    Y=              0.0000    Z=             -2.3975  Tot=              2.3975
 Quadrupole moment (field-independent basis, Debye-Ang):
   XX=            -11.6976   YY=            -11.7493   ZZ=            -12.4860
   XY=              0.0000   XZ=              0.0000   YZ=              0.0000

 Normal termination of Gaussian 16 at Fri Sep 17 10:52:42 2021.
