 Gaussian 16, Revision C.01,
 Gaussian 16:  ES64L-G16RevC.01  3-Jul-2019

 ----------------------------------------
 #P wB97XD/6-311+G* NoSymm #P Field=X-282
 ----------------------------------------

 -------
 TitleMe
 -------
 Symbolic Z-matrix:
 Charge =  1 Multiplicity = 1

                          Input orientation:
 ---------------------------------------------------------------------
 Center     Atomic      Atomic             Coordinates (Angstroms)
 Number     Number       Type             X           Y           Z
 ---------------------------------------------------------------------
      1          6           0        0.029500    1.339700    0.068200
      2          6           0        1.434800    1.286700    0.006400
      3          6           0        2.111800    0.051100   -0.005400
      4          6           0        1.445100   -1.137200    0.031200
      5          6           0       -0.687900    0.168200    0.110000
      6          1           0       -0.471300    2.298400    0.078100
      7          1           0        2.027300    2.196500   -0.032200
      8          1           0        1.989700   -2.076400    0.023200
      9          1           0       -1.771600    0.180400    0.158200
     10          7           0        3.586400    0.051000   -0.067500
     11          8           0        4.147100   -1.059700   -0.088100
     12          8           0        4.145000    1.163900   -0.090100
     13          6           0       -0.023600   -1.145800    0.083500
     14          1           0       -0.436700   -1.872500    0.788900
     15         35           0       -0.535900   -1.869700   -1.740800
 ---------------------------------------------------------------------

 SCF Done:  E(RwB97XD) =  -3010.57484308     A.U. after   30 cycles

 Alpha  occ. eigenvalues -- -483.29309 -62.84369 -56.64000 -56.63520 -56.63508
 Alpha  occ. eigenvalues --  -19.33310 -19.33284 -14.72376 -10.55770 -10.53352
 Alpha  occ. eigenvalues --  -10.51685 -10.50832 -10.50261 -10.50126  -9.00200
 Alpha  occ. eigenvalues --   -6.82704  -6.81114  -6.81076  -2.92649  -2.92230
 Alpha  occ. eigenvalues --   -2.92198  -2.90925  -2.90925  -1.36608  -1.19505
 Alpha  occ. eigenvalues --   -1.18182  -1.09613  -1.06856  -1.01399  -0.93841
 Alpha  occ. eigenvalues --   -0.90916  -0.85253  -0.79975  -0.75526  -0.74596
 Alpha  occ. eigenvalues --   -0.72245  -0.69961  -0.69047  -0.66660  -0.64531
 Alpha  occ. eigenvalues --   -0.63961  -0.61195  -0.59509  -0.56602  -0.55112
 Alpha  occ. eigenvalues --   -0.51719  -0.43497  -0.41998  -0.41659
 Alpha virt. eigenvalues --   -0.25796  -0.18692  -0.14287  -0.13385  -0.13154
 Alpha virt. eigenvalues --   -0.10896  -0.09104  -0.05889  -0.04458  -0.04335
 Alpha virt. eigenvalues --   -0.03371  -0.01685  -0.00270   0.00558   0.00939

 Mulliken charges:
               1
     1  C   -0.484137
     2  C    0.325465
     3  C   -0.554851
     4  C    0.304744
     5  C   -0.039418
     6  H    0.272358
     7  H    0.410361
     8  H    0.411438
     9  H    0.209859
    10  N   -0.138876
    11  O    0.193085
    12  O    0.191371
    13  C   -0.473879
    14  H    0.356105
    15  Br   0.016376
 Sum of Mulliken charges =   1.00000

 Dipole moment (field-independent basis, Debye):
    X=              8.6176    Y=              0.4107    Z=              0.7019  Tot=              8.6559
 Quadrupole moment (field-independent basis, Debye-Ang):
   XX=            -48.5300   YY=            -53.4507   ZZ=            -65.2522
   XY=             -0.4392   XZ=             -1.3378   YZ=             -0.4547

 Normal termination of Gaussian 16 at Wed May  1 14:58:12 2024.
