 Gaussian 16, Revision C.01,
 Gaussian 16:  ES64L-G16RevC.01  3-Jul-2019

 ---------------------------------------
 #P wB97XD/6-311+G* NoSymm #P Field=Z+48
 ---------------------------------------

 -------
 TitleMe
 -------
 Symbolic Z-matrix:
 Charge =  1 Multiplicity = 1

                          Input orientation:
 ---------------------------------------------------------------------
 Center     Atomic      Atomic             Coordinates (Angstroms)
 Number     Number       Type             X           Y           Z
 ---------------------------------------------------------------------
      1          6           0        0.029500    1.339700    0.068200
      2          6           0        1.434800    1.286700    0.006400
      3          6           0        2.111800    0.051100   -0.005400
      4          6           0        1.445100   -1.137200    0.031200
      5          6           0       -0.687900    0.168200    0.110000
      6          1           0       -0.471300    2.298400    0.078100
      7          1           0        2.027300    2.196500   -0.032200
      8          1           0        1.989700   -2.076400    0.023200
      9          1           0       -1.771600    0.180400    0.158200
     10          7           0        3.586400    0.051000   -0.067500
     11          8           0        4.147100   -1.059700   -0.088100
     12          8           0        4.145000    1.163900   -0.090100
     13          6           0       -0.023600   -1.145800    0.083500
     14          1           0       -0.436700   -1.872500    0.788900
     15         35           0       -0.535900   -1.869700   -1.740800
 ---------------------------------------------------------------------

 SCF Done:  E(RwB97XD) =  -3010.53616596     A.U. after   18 cycles

 Alpha  occ. eigenvalues -- -483.30352 -62.85367 -56.65071 -56.64483 -56.64481
 Alpha  occ. eigenvalues --  -19.45474 -19.45405 -14.84977 -10.57730 -10.57029
 Alpha  occ. eigenvalues --  -10.56741 -10.56541 -10.56305 -10.52531  -9.01166
 Alpha  occ. eigenvalues --   -6.83873  -6.81953  -6.81939  -2.93771  -2.93261
 Alpha  occ. eigenvalues --   -2.93248  -2.91713  -2.91713  -1.49240  -1.32217
 Alpha  occ. eigenvalues --   -1.22157  -1.13507  -1.11277  -1.03613  -1.00606
 Alpha  occ. eigenvalues --   -0.94964  -0.90499  -0.84864  -0.80340  -0.80195
 Alpha  occ. eigenvalues --   -0.79570  -0.77882  -0.75680  -0.75474  -0.71699
 Alpha  occ. eigenvalues --   -0.68884  -0.67100  -0.63062  -0.59521  -0.56705
 Alpha  occ. eigenvalues --   -0.55771  -0.55408  -0.55164  -0.54365
 Alpha virt. eigenvalues --   -0.29071  -0.20900  -0.15006  -0.12862  -0.08916
 Alpha virt. eigenvalues --   -0.06236  -0.05907  -0.04998  -0.03337  -0.03014
 Alpha virt. eigenvalues --   -0.02194  -0.01879  -0.00494  -0.00274   0.01114

 Mulliken charges:
               1
     1  C   -0.568443
     2  C    0.500198
     3  C   -0.710833
     4  C    0.279909
     5  C   -0.011716
     6  H    0.332535
     7  H    0.366126
     8  H    0.372560
     9  H    0.349122
    10  N   -0.108040
    11  O    0.031159
    12  O    0.028205
    13  C   -0.467330
    14  H    0.387143
    15  Br   0.219405
 Sum of Mulliken charges =   1.00000

 Dipole moment (field-independent basis, Debye):
    X=             -0.9458    Y=             -0.7689    Z=             -0.8520  Tot=              1.4872
 Quadrupole moment (field-independent basis, Debye-Ang):
   XX=            -71.4151   YY=            -51.7432   ZZ=            -61.7447
   XY=              1.4334   XZ=              0.7272   YZ=              2.3704

 Normal termination of Gaussian 16 at Wed May  1 15:24:58 2024.
