 Gaussian 16, Revision C.01,
 Gaussian 16:  ES64L-G16RevC.01  3-Jul-2019

 ----------------------------------------
 #P wB97XD/6-311+G* NoSymm #P Field=Z-194
 ----------------------------------------

 -------
 TitleMe
 -------
 Symbolic Z-matrix:
 Charge =  1 Multiplicity = 1

                          Input orientation:
 ---------------------------------------------------------------------
 Center     Atomic      Atomic             Coordinates (Angstroms)
 Number     Number       Type             X           Y           Z
 ---------------------------------------------------------------------
      1          6           0        0.519300    1.233000   -0.031900
      2          6           0        1.944500    1.269200   -0.036700
      3          6           0        2.620400    0.092800   -0.025000
      4          6           0       -0.196000    0.030100    0.001000
      5          1           0       -0.020700    2.174200   -0.043400
      6          1           0        2.482800    2.208900   -0.036100
      7          1           0       -1.277700    0.039900    0.011700
      8          7           0        4.092100    0.095900    0.036600
      9          8           0        4.639300   -1.021700    0.144600
     10          8           0        4.664900    1.198400   -0.023300
     11          6           0        0.494300   -1.167100    0.021000
     12          1           0       -0.032500   -2.114900    0.054500
     13          6           0        1.962900   -1.216500   -0.021100
     14          1           0        2.443600   -1.963100    0.615100
     15         35           0        2.173000   -1.949100   -1.906200
 ---------------------------------------------------------------------

 SCF Done:  E(RwB97XD) =  -3010.53945320     A.U. after   22 cycles

 Alpha  occ. eigenvalues -- -483.34514 -62.89577 -56.69214 -56.68722 -56.68717
 Alpha  occ. eigenvalues --  -19.46778 -19.46719 -14.86220 -10.60349 -10.59930
 Alpha  occ. eigenvalues --  -10.58479 -10.58335 -10.54496 -10.53801  -9.05411
 Alpha  occ. eigenvalues --   -6.87938  -6.86301  -6.86289  -2.97878  -2.97440
 Alpha  occ. eigenvalues --   -2.97429  -2.96119  -2.96118  -1.50437  -1.33383
 Alpha  occ. eigenvalues --   -1.23796  -1.14676  -1.13611  -1.07129  -1.01571
 Alpha  occ. eigenvalues --   -0.96601  -0.91676  -0.85737  -0.81794  -0.81115
 Alpha  occ. eigenvalues --   -0.80781  -0.78935  -0.76929  -0.76631  -0.73790
 Alpha  occ. eigenvalues --   -0.69714  -0.68722  -0.65182  -0.62243  -0.60165
 Alpha  occ. eigenvalues --   -0.58056  -0.57706  -0.56514  -0.56212
 Alpha virt. eigenvalues --   -0.31737  -0.21307  -0.18979  -0.16123  -0.14125
 Alpha virt. eigenvalues --   -0.12443  -0.10979  -0.08915  -0.07706  -0.06785
 Alpha virt. eigenvalues --   -0.05285  -0.04823  -0.02847  -0.02203  -0.01747

 Mulliken charges:
               1
     1  C   -0.059958
     2  C    0.100205
     3  C   -0.097495
     4  C   -0.357817
     5  H    0.351692
     6  H    0.356845
     7  H    0.339536
     8  N   -0.203980
     9  O    0.091786
    10  O    0.075159
    11  C   -0.145066
    12  H    0.365296
    13  C   -0.279736
    14  H    0.473573
    15  Br  -0.010041
 Sum of Mulliken charges =   1.00000

 Dipole moment (field-independent basis, Debye):
    X=              2.5255    Y=             -0.1490    Z=              2.7342  Tot=              3.7251
 Quadrupole moment (field-independent basis, Debye-Ang):
   XX=            -67.7835   YY=            -52.3907   ZZ=            -66.9897
   XY=             -1.4703   XZ=              4.6179   YZ=             -0.9549

 Normal termination of Gaussian 16 at Thu May  2 14:21:40 2024.
