 Gaussian 16, Revision C.01,
 Gaussian 16:  ES64L-G16RevC.01  3-Jul-2019

 ----------------------------------------
 #P wB97XD/6-311+G* NoSymm #P Field=X+223
 ----------------------------------------

 -------
 TitleMe
 -------
 Symbolic Z-matrix:
 Charge =  1 Multiplicity = 1

                          Input orientation:
 ---------------------------------------------------------------------
 Center     Atomic      Atomic             Coordinates (Angstroms)
 Number     Number       Type             X           Y           Z
 ---------------------------------------------------------------------
      1          6           0        0.519300    1.233000   -0.031900
      2          6           0        1.944500    1.269200   -0.036700
      3          6           0        2.620400    0.092800   -0.025000
      4          6           0       -0.196000    0.030100    0.001000
      5          1           0       -0.020700    2.174200   -0.043400
      6          1           0        2.482800    2.208900   -0.036100
      7          1           0       -1.277700    0.039900    0.011700
      8          7           0        4.092100    0.095900    0.036600
      9          8           0        4.639300   -1.021700    0.144600
     10          8           0        4.664900    1.198400   -0.023300
     11          6           0        0.494300   -1.167100    0.021000
     12          1           0       -0.032500   -2.114900    0.054500
     13          6           0        1.962900   -1.216500   -0.021100
     14          1           0        2.443600   -1.963100    0.615100
     15         35           0        2.173000   -1.949100   -1.906200
 ---------------------------------------------------------------------

 SCF Done:  E(RwB97XD) =  -3010.53543102     A.U. after   19 cycles

 Alpha  occ. eigenvalues -- -483.39030 -62.94065 -56.73743 -56.73195 -56.73186
 Alpha  occ. eigenvalues --  -19.60189 -19.60061 -14.99184 -10.67372 -10.66079
 Alpha  occ. eigenvalues --  -10.63604 -10.62736 -10.62350 -10.57881  -9.09881
 Alpha  occ. eigenvalues --   -6.92517  -6.90715  -6.90687  -3.02431  -3.01956
 Alpha  occ. eigenvalues --   -3.01933  -3.00490  -3.00490  -1.63735  -1.46833
 Alpha  occ. eigenvalues --   -1.30367  -1.21077  -1.20025  -1.12771  -1.09069
 Alpha  occ. eigenvalues --   -1.02465  -0.99235  -0.96034  -0.93634  -0.92114
 Alpha  occ. eigenvalues --   -0.88482  -0.86040  -0.84170  -0.83373  -0.79339
 Alpha  occ. eigenvalues --   -0.74251  -0.73922  -0.71471  -0.71409  -0.70187
 Alpha  occ. eigenvalues --   -0.70117  -0.67118  -0.64397  -0.62578
 Alpha virt. eigenvalues --   -0.38058  -0.31513  -0.23599  -0.21180  -0.20163
 Alpha virt. eigenvalues --   -0.17052  -0.15717  -0.15189  -0.13716  -0.11156
 Alpha virt. eigenvalues --   -0.10805  -0.10109  -0.09887  -0.08351  -0.07394

 Mulliken charges:
               1
     1  C   -0.142285
     2  C    0.167552
     3  C   -0.181826
     4  C   -0.296192
     5  H    0.400309
     6  H    0.324238
     7  H    0.428450
     8  N   -0.237468
     9  O    0.000641
    10  O   -0.038592
    11  C   -0.143014
    12  H    0.410941
    13  C   -0.221485
    14  H    0.384845
    15  Br   0.143886
 Sum of Mulliken charges =   1.00000

 Dipole moment (field-independent basis, Debye):
    X=             -3.6365    Y=             -0.6002    Z=             -0.4592  Tot=              3.7143
 Quadrupole moment (field-independent basis, Debye-Ang):
   XX=            -93.9159   YY=            -51.6363   ZZ=            -62.8975
   XY=             -1.3432   XZ=             -0.8314   YZ=              1.7632

 Normal termination of Gaussian 16 at Thu May  2 14:18:04 2024.
