 Gaussian 16, Revision C.01,
 Gaussian 16:  ES64L-G16RevC.01  3-Jul-2019

 ----------------------------------------
 #P wB97XD/6-311+G* NoSymm #P Field=Z-252
 ----------------------------------------

 -------
 TitleMe
 -------
 Symbolic Z-matrix:
 Charge =  1 Multiplicity = 1

                          Input orientation:
 ---------------------------------------------------------------------
 Center     Atomic      Atomic             Coordinates (Angstroms)
 Number     Number       Type             X           Y           Z
 ---------------------------------------------------------------------
      1          6           0        0.519300    1.233000   -0.031900
      2          6           0        1.944500    1.269200   -0.036700
      3          6           0        2.620400    0.092800   -0.025000
      4          6           0       -0.196000    0.030100    0.001000
      5          1           0       -0.020700    2.174200   -0.043400
      6          1           0        2.482800    2.208900   -0.036100
      7          1           0       -1.277700    0.039900    0.011700
      8          7           0        4.092100    0.095900    0.036600
      9          8           0        4.639300   -1.021700    0.144600
     10          8           0        4.664900    1.198400   -0.023300
     11          6           0        0.494300   -1.167100    0.021000
     12          1           0       -0.032500   -2.114900    0.054500
     13          6           0        1.962900   -1.216500   -0.021100
     14          1           0        2.443600   -1.963100    0.615100
     15         35           0        2.173000   -1.949100   -1.906200
 ---------------------------------------------------------------------

 SCF Done:  E(RwB97XD) =  -3010.54689602     A.U. after   22 cycles

 Alpha  occ. eigenvalues -- -483.35678 -62.90751 -56.70371 -56.69903 -56.69898
 Alpha  occ. eigenvalues --  -19.47004 -19.46927 -14.86445 -10.60759 -10.60605
 Alpha  occ. eigenvalues --  -10.58904 -10.58814 -10.54908 -10.54194  -9.06591
 Alpha  occ. eigenvalues --   -6.89070  -6.87506  -6.87499  -2.99021  -2.98600
 Alpha  occ. eigenvalues --   -2.98594  -2.97341  -2.97340  -1.50648  -1.33590
 Alpha  occ. eigenvalues --   -1.24299  -1.15405  -1.13988  -1.07926  -1.01990
 Alpha  occ. eigenvalues --   -0.97044  -0.92078  -0.86043  -0.82148  -0.81467
 Alpha  occ. eigenvalues --   -0.81065  -0.79312  -0.77290  -0.76928  -0.74449
 Alpha  occ. eigenvalues --   -0.70147  -0.69142  -0.65789  -0.63249  -0.61421
 Alpha  occ. eigenvalues --   -0.58505  -0.58007  -0.56747  -0.56473
 Alpha virt. eigenvalues --   -0.32354  -0.22323  -0.21230  -0.18435  -0.15639
 Alpha virt. eigenvalues --   -0.14546  -0.13634  -0.10730  -0.09265  -0.08569
 Alpha virt. eigenvalues --   -0.06105  -0.05896  -0.03759  -0.03170  -0.02421

 Mulliken charges:
               1
     1  C   -0.045924
     2  C    0.072771
     3  C   -0.101818
     4  C   -0.370782
     5  H    0.354527
     6  H    0.359888
     7  H    0.343312
     8  N   -0.194641
     9  O    0.093624
    10  O    0.077887
    11  C   -0.126137
    12  H    0.368610
    13  C   -0.253634
    14  H    0.492099
    15  Br  -0.069782
 Sum of Mulliken charges =   1.00000

 Dipole moment (field-independent basis, Debye):
    X=              2.4565    Y=              0.0721    Z=              3.7914  Tot=              4.5182
 Quadrupole moment (field-independent basis, Debye-Ang):
   XX=            -67.7624   YY=            -52.7773   ZZ=            -68.6113
   XY=             -1.0396   XZ=              6.7880   YZ=             -1.9919

 Normal termination of Gaussian 16 at Thu May  2 14:22:21 2024.
