 Q-Chem 6.0, Q-Chem, Inc., Pleasanton, CA (2022)
 Q-Chem 6.0.2 for Intel X86 EM64T Linux

User input:
--------------------------------------------------------------
$molecule
1 1
C                  0.02949981    1.33972592    0.06817723
C                  1.43483278    1.28667967    0.00635313
C                  2.11179024    0.05106117   -0.00544138
C                  1.44506636   -1.13720058    0.03116583
C                 -0.68793171    0.16822220    0.10995314
H                 -0.47126997    2.29839666    0.07811355
H                  2.02732783    2.19651728   -0.03220624
H                  1.98966526   -2.07643217    0.02318494
H                 -1.77163480    0.18040547    0.15819632
N                  3.58635895    0.05097292   -0.06745286
O                  4.14711759   -1.05966097   -0.08807849
O                  4.14497859    1.16390951   -0.09010823
C                 -0.02361177   -1.14582791    0.08353483
H                 -0.43674996   -1.87247364    0.78889576
Br                -0.53591638   -1.86972195   -1.74078671
$end

$rem
!SCF_GUESS         read
!SKIP_CIS_RPA      TRUE
METHOD             wB97XD
RPA                TRUE
BASIS              6-311+G*
CIS_N_ROOTS        100
CIS_SINGLETS       TRUE
CIS_TRIPLETS       FALSE
MAKE_CUBE_FILES    TRUE
PLOTS              TRUE
STS_MOM            TRUE
SYM_IGNORE         TRUE
SYMMETRY           FALSE
NTO_PAIRS          1
! NBO                2
$end

$plots
grid_points                    75 75 75
total_density                  0-100
transition_density             1-100
natural_transition_orbital     1-100
$end

! natural_bond_orbital           1-5 ! How many here ? Is it physical to mix these ?
! nbo_state                      0-10

--------------------------------------------------------------

             Standard Nuclear Orientation (Angstroms)
    I     Atom           X                Y                Z
 ----------------------------------------------------------------
    1      C       0.0294998100     1.3397259200     0.0681772300
    2      C       1.4348327800     1.2866796700     0.0063531300
    3      C       2.1117902400     0.0510611700    -0.0054413800
    4      C       1.4450663600    -1.1372005800     0.0311658300
    5      C      -0.6879317100     0.1682222000     0.1099531400
    6      H      -0.4712699700     2.2983966600     0.0781135500
    7      H       2.0273278300     2.1965172800    -0.0322062400
    8      H       1.9896652600    -2.0764321700     0.0231849400
    9      H      -1.7716348000     0.1804054700     0.1581963200
   10      N       3.5863589500     0.0509729200    -0.0674528600
   11      O       4.1471175900    -1.0596609700    -0.0880784900
   12      O       4.1449785900     1.1639095100    -0.0901082300
   13      C      -0.0236117700    -1.1458279100     0.0835348300
   14      H      -0.4367499600    -1.8724736400     0.7888957600
   15      Br     -0.5359163800    -1.8697219500    -1.7407867100
 ----------------------------------------------------------------

   16   -3010.5277445879      6.17e-09  Convergence criterion met
 Total energy in the final basis set =    -3010.5277445879
 Excited state 100: excitation energy (eV) =   11.5476

             TDDFT Excitation Energies
 ---------------------------------------------------

 Excited state   1: excitation energy (eV) =    2.5337
 Total energy for state  1:                 -3010.43463260 au
    Multiplicity: Singlet
    Trans. Mom.:  0.2207 X  -0.0608 Y  -0.0040 Z
    Strength   :     0.0032528043
    X: D(   49) --> V(    1) amplitude =  0.9671

 Excited state   2: excitation energy (eV) =    2.8430
 Total energy for state  2:                 -3010.42326781 au
    Multiplicity: Singlet
    Trans. Mom.:  0.1485 X   0.2106 Y   0.1480 Z
    Strength   :     0.0061507755
    X: D(   45) --> V(    1) amplitude =  0.2505
    X: D(   46) --> V(    1) amplitude =  0.8976
    X: D(   47) --> V(    1) amplitude =  0.2529

 Excited state   3: excitation energy (eV) =    3.4002
 Total energy for state  3:                 -3010.40279003 au
    Multiplicity: Singlet
    Trans. Mom.: -0.0349 X   0.0195 Y  -0.0039 Z
    Strength   :     0.0001346832
    X: D(   48) --> V(    1) amplitude =  0.9365
    X: D(   48) --> V(    2) amplitude =  0.2280

 Excited state   4: excitation energy (eV) =    3.6127
 Total energy for state  4:                 -3010.39498151 au
    Multiplicity: Singlet
    Trans. Mom.:  0.0880 X  -0.0136 Y   0.0200 Z
    Strength   :     0.0007366396
    X: D(   45) --> V(    1) amplitude = -0.4795
    X: D(   48) --> V(    2) amplitude =  0.7575
    X: D(   48) --> V(    4) amplitude = -0.2668

 Excited state   5: excitation energy (eV) =    3.6585
 Total energy for state  5:                 -3010.39329798 au
    Multiplicity: Singlet
    Trans. Mom.:  0.3686 X  -0.0033 Y   0.0288 Z
    Strength   :     0.0122513584
    X: D(   45) --> V(    1) amplitude = -0.2709
    X: D(   47) --> V(    1) amplitude =  0.8889
    X: D(   48) --> V(    2) amplitude = -0.2401

 Excited state   6: excitation energy (eV) =    3.6737
 Total energy for state  6:                 -3010.39273688 au
    Multiplicity: Singlet
    Trans. Mom.:  0.0588 X   0.0161 Y  -0.0289 Z
    Strength   :     0.0004102557
    X: D(   45) --> V(    1) amplitude =  0.7679
    X: D(   46) --> V(    1) amplitude = -0.3167
    X: D(   47) --> V(    1) amplitude =  0.2948
    X: D(   48) --> V(    2) amplitude =  0.3673

 Excited state   7: excitation energy (eV) =    4.0752
 Total energy for state  7:                 -3010.37798431 au
    Multiplicity: Singlet
    Trans. Mom.:  0.4294 X  -0.2139 Y  -0.0741 Z
    Strength   :     0.0235295443
    X: D(   44) --> V(    1) amplitude =  0.6241
    X: D(   45) --> V(    2) amplitude =  0.6628
    X: D(   45) --> V(    4) amplitude = -0.2318
    X: D(   46) --> V(    2) amplitude = -0.2504

 Excited state   8: excitation energy (eV) =    4.0818
 Total energy for state  8:                 -3010.37774125 au
    Multiplicity: Singlet
    Trans. Mom.:  0.5500 X  -0.2495 Y  -0.0037 Z
    Strength   :     0.0364777884
    X: D(   44) --> V(    1) amplitude =  0.7448
    X: D(   45) --> V(    2) amplitude = -0.5413

 Excited state   9: excitation energy (eV) =    5.1950
 Total energy for state  9:                 -3010.33683200 au
    Multiplicity: Singlet
    Trans. Mom.:  0.1536 X   0.4254 Y   0.3831 Z
    Strength   :     0.0447233253
    X: D(   42) --> V(    1) amplitude = -0.3108
    X: D(   43) --> V(    1) amplitude =  0.7762
    X: D(   49) --> V(    2) amplitude =  0.4714

 Excited state  10: excitation energy (eV) =    5.3838
 Total energy for state 10:                 -3010.32989236 au
    Multiplicity: Singlet
    Trans. Mom.: -0.2872 X  -0.0033 Y  -0.1531 Z
    Strength   :     0.0139719200
    X: D(   42) --> V(    1) amplitude =  0.8804
    X: D(   49) --> V(    2) amplitude =  0.3624

 Excited state  11: excitation energy (eV) =    5.7006
 Total energy for state 11:                 -3010.31825316 au
    Multiplicity: Singlet
    Trans. Mom.: -0.8141 X  -0.0906 Y  -0.2659 Z
    Strength   :     0.1035847421
    X: D(   43) --> V(    1) amplitude = -0.3188
    X: D(   47) --> V(    2) amplitude =  0.6726
    X: D(   49) --> V(    2) amplitude =  0.5463

 Excited state  12: excitation energy (eV) =    5.8087
 Total energy for state 12:                 -3010.31427702 au
    Multiplicity: Singlet
    Trans. Mom.: -0.0548 X  -0.2425 Y  -0.2316 Z
    Strength   :     0.0164287360
    X: D(   41) --> V(    1) amplitude =  0.9248
    X: D(   47) --> V(    2) amplitude = -0.2408

 Excited state  13: excitation energy (eV) =    5.8812
 Total energy for state 13:                 -3010.31161302 au
    Multiplicity: Singlet
    Trans. Mom.:  0.5205 X   0.4100 Y   0.1018 Z
    Strength   :     0.0647510113
    X: D(   45) --> V(    2) amplitude =  0.2987
    X: D(   46) --> V(    2) amplitude =  0.6622
    X: D(   46) --> V(    4) amplitude =  0.2860
    X: D(   47) --> V(    2) amplitude =  0.4513

 Excited state  14: excitation energy (eV) =    5.9646
 Total energy for state 14:                 -3010.30855008 au
    Multiplicity: Singlet
    Trans. Mom.: -0.6039 X  -1.0094 Y  -0.2415 Z
    Strength   :     0.2107004509
    X: D(   43) --> V(    1) amplitude = -0.3410
    X: D(   46) --> V(    2) amplitude =  0.5370
    X: D(   47) --> V(    2) amplitude = -0.4088
    X: D(   49) --> V(    2) amplitude =  0.3201
    X: D(   49) --> V(    3) amplitude =  0.4058

 Excited state  15: excitation energy (eV) =    6.1695
 Total energy for state 15:                 -3010.30101866 au
    Multiplicity: Singlet
    Trans. Mom.:  0.5429 X   0.7092 Y   0.2036 Z
    Strength   :     0.1268435706
    X: D(   43) --> V(    1) amplitude =  0.2354
    X: D(   46) --> V(    3) amplitude =  0.3477
    X: D(   49) --> V(    2) amplitude = -0.2428
    X: D(   49) --> V(    3) amplitude =  0.6932
    X: D(   49) --> V(    4) amplitude =  0.3021

 Excited state  16: excitation energy (eV) =    6.3029
 Total energy for state 16:                 -3010.29611867 au
    Multiplicity: Singlet
    Trans. Mom.:  0.6509 X   0.5861 Y   0.2029 Z
    Strength   :     0.1248201067
    X: D(   45) --> V(    3) amplitude = -0.2238
    X: D(   46) --> V(    3) amplitude = -0.7427
    X: D(   46) --> V(    4) amplitude = -0.2609
    X: D(   47) --> V(    3) amplitude = -0.2435
    X: D(   49) --> V(    3) amplitude =  0.2157

 Excited state  17: excitation energy (eV) =    6.5777
 Total energy for state 17:                 -3010.28601953 au
    Multiplicity: Singlet
    Trans. Mom.: -0.6488 X  -0.0862 Y  -0.0123 Z
    Strength   :     0.0690474423
    X: D(   40) --> V(    1) amplitude = -0.3033
    X: D(   44) --> V(    2) amplitude =  0.8503
    X: D(   49) --> V(    4) amplitude = -0.2452

 Excited state  18: excitation energy (eV) =    7.0510
 Total energy for state 18:                 -3010.26862541 au
    Multiplicity: Singlet
    Trans. Mom.: -0.0201 X   0.0249 Y  -0.0048 Z
    Strength   :     0.0001809414
    X: D(   48) --> V(    2) amplitude =  0.3373
    X: D(   48) --> V(    3) amplitude = -0.5226
    X: D(   48) --> V(    4) amplitude =  0.6922

 Excited state  19: excitation energy (eV) =    7.0877
 Total energy for state 19:                 -3010.26727554 au
    Multiplicity: Singlet
    Trans. Mom.: -0.1895 X   0.2060 Y   0.3474 Z
    Strength   :     0.0345589212
    X: D(   39) --> V(    1) amplitude =  0.4317
    X: D(   40) --> V(    1) amplitude =  0.7692

 Excited state  20: excitation energy (eV) =    7.2870
 Total energy for state 20:                 -3010.25995372 au
    Multiplicity: Singlet
    Trans. Mom.: -0.1827 X   0.0910 Y   0.0484 Z
    Strength   :     0.0078539542
    X: D(   43) --> V(    2) amplitude = -0.4099
    X: D(   45) --> V(    2) amplitude =  0.3094
    X: D(   45) --> V(    3) amplitude = -0.4373
    X: D(   45) --> V(    4) amplitude =  0.5959

 Excited state  21: excitation energy (eV) =    7.3233
 Total energy for state 21:                 -3010.25861885 au
    Multiplicity: Singlet
    Trans. Mom.:  0.2333 X  -0.0698 Y   0.1340 Z
    Strength   :     0.0138604660
    X: D(   43) --> V(    2) amplitude =  0.7247
    X: D(   44) --> V(    3) amplitude =  0.3753
    X: D(   45) --> V(    3) amplitude = -0.2408
    X: D(   45) --> V(    4) amplitude =  0.2497

 Excited state  22: excitation energy (eV) =    7.5988
 Total energy for state 22:                 -3010.24849372 au
    Multiplicity: Singlet
    Trans. Mom.: -0.0063 X  -0.7548 Y  -0.2290 Z
    Strength   :     0.1158478258
    X: D(   39) --> V(    1) amplitude =  0.2841
    X: D(   44) --> V(    2) amplitude =  0.2209
    X: D(   44) --> V(    3) amplitude = -0.5120
    X: D(   47) --> V(    3) amplitude =  0.2957
    X: D(   47) --> V(    4) amplitude = -0.3811
    X: D(   49) --> V(    3) amplitude = -0.2363
    X: D(   49) --> V(    4) amplitude =  0.3995

 Excited state  23: excitation energy (eV) =    7.6242
 Total energy for state 23:                 -3010.24755933 au
    Multiplicity: Singlet
    Trans. Mom.: -0.0814 X   0.9554 Y   0.1960 Z
    Strength   :     0.1789260437
    X: D(   39) --> V(    1) amplitude = -0.2481
    X: D(   47) --> V(    3) amplitude =  0.6200
    X: D(   47) --> V(    4) amplitude = -0.4915
    X: D(   49) --> V(    4) amplitude = -0.2175

 Excited state  24: excitation energy (eV) =    7.6897
 Total energy for state 24:                 -3010.24515193 au
    Multiplicity: Singlet
    Trans. Mom.: -0.0875 X   0.4181 Y  -0.2719 Z
    Strength   :     0.0483136533
    X: D(   37) --> V(    1) amplitude =  0.2446
    X: D(   39) --> V(    1) amplitude =  0.4613
    X: D(   40) --> V(    1) amplitude = -0.3203
    X: D(   42) --> V(    2) amplitude =  0.5333
    X: D(   44) --> V(    2) amplitude = -0.2152
    X: D(   44) --> V(    3) amplitude =  0.2582

 Excited state  25: excitation energy (eV) =    7.7819
 Total energy for state 25:                 -3010.24176466 au
    Multiplicity: Singlet
    Trans. Mom.: -0.4589 X  -0.2522 Y  -0.1095 Z
    Strength   :     0.0545622760
    X: D(   43) --> V(    2) amplitude = -0.2627
    X: D(   44) --> V(    3) amplitude =  0.3256
    X: D(   48) --> V(    3) amplitude = -0.4839
    X: D(   48) --> V(    4) amplitude = -0.4480
    X: D(   49) --> V(    4) amplitude =  0.4530

 Excited state  26: excitation energy (eV) =    7.8183
 Total energy for state 26:                 -3010.24042878 au
    Multiplicity: Singlet
    Trans. Mom.: -0.3287 X  -0.1376 Y  -0.0582 Z
    Strength   :     0.0249768500
    X: D(   44) --> V(    3) amplitude =  0.3494
    X: D(   48) --> V(    3) amplitude =  0.5991
    X: D(   48) --> V(    4) amplitude =  0.2846
    X: D(   49) --> V(    4) amplitude =  0.4436

 Excited state  27: excitation energy (eV) =    7.9770
 Total energy for state 27:                 -3010.23459406 au
    Multiplicity: Singlet
    Trans. Mom.:  0.1311 X  -0.0264 Y   0.1382 Z
    Strength   :     0.0072296442
    X: D(   35) --> V(    1) amplitude =  0.3513
    X: D(   38) --> V(    1) amplitude =  0.4538
    X: D(   39) --> V(    1) amplitude = -0.3411
    X: D(   42) --> V(    2) amplitude =  0.4516
    X: D(   45) --> V(    3) amplitude =  0.2688

 Excited state  28: excitation energy (eV) =    8.1199
 Total energy for state 28:                 -3010.22934257 au
    Multiplicity: Singlet
    Trans. Mom.:  0.2281 X   0.0602 Y   0.0917 Z
    Strength   :     0.0127408288
    X: D(   39) --> V(    1) amplitude = -0.2542
    X: D(   42) --> V(    2) amplitude =  0.3347
    X: D(   45) --> V(    3) amplitude = -0.3998
    X: D(   46) --> V(    4) amplitude =  0.6178
    X: D(   47) --> V(    3) amplitude = -0.2967

 Excited state  29: excitation energy (eV) =    8.1238
 Total energy for state 29:                 -3010.22920059 au
    Multiplicity: Singlet
    Trans. Mom.:  0.1542 X  -0.3293 Y   0.1109 Z
    Strength   :     0.0287530657
    X: D(   44) --> V(    3) amplitude = -0.2906
    X: D(   46) --> V(    3) amplitude = -0.2158
    X: D(   47) --> V(    3) amplitude =  0.5161
    X: D(   47) --> V(    4) amplitude =  0.6508

 Excited state  30: excitation energy (eV) =    8.1322
 Total energy for state 30:                 -3010.22889075 au
    Multiplicity: Singlet
    Trans. Mom.: -0.2247 X  -0.2749 Y  -0.1403 Z
    Strength   :     0.0290445099
    X: D(   45) --> V(    3) amplitude =  0.5233
    X: D(   45) --> V(    4) amplitude =  0.5519
    X: D(   46) --> V(    3) amplitude = -0.3447
    X: D(   46) --> V(    4) amplitude =  0.3460

 Excited state  31: excitation energy (eV) =    8.1934
 Total energy for state 31:                 -3010.22664269 au
    Multiplicity: Singlet
    Trans. Mom.:  0.0962 X  -0.1323 Y  -0.1078 Z
    Strength   :     0.0077045884
    X: D(   34) --> V(    1) amplitude = -0.2761
    X: D(   35) --> V(    1) amplitude =  0.3341
    X: D(   37) --> V(    1) amplitude = -0.2868
    X: D(   38) --> V(    1) amplitude =  0.4064
    X: D(   39) --> V(    1) amplitude =  0.3774
    X: D(   41) --> V(    2) amplitude =  0.2644
    X: D(   42) --> V(    2) amplitude = -0.2785
    X: D(   45) --> V(    3) amplitude = -0.2399
    X: D(   46) --> V(    4) amplitude =  0.3280

 Excited state  32: excitation energy (eV) =    8.4476
 Total energy for state 32:                 -3010.21730137 au
    Multiplicity: Singlet
    Trans. Mom.:  0.1462 X   0.1077 Y   0.1941 Z
    Strength   :     0.0146216964
    X: D(   37) --> V(    1) amplitude =  0.6646
    X: D(   41) --> V(    2) amplitude =  0.5421

 Excited state  33: excitation energy (eV) =    8.6147
 Total energy for state 33:                 -3010.21116031 au
    Multiplicity: Singlet
    Trans. Mom.: -0.2494 X  -0.1253 Y  -0.0801 Z
    Strength   :     0.0177959955
    X: D(   35) --> V(    1) amplitude = -0.2880
    X: D(   37) --> V(    1) amplitude = -0.4551
    X: D(   38) --> V(    1) amplitude = -0.3441
    X: D(   41) --> V(    2) amplitude =  0.5700
    X: D(   44) --> V(    4) amplitude =  0.3106

 Excited state  34: excitation energy (eV) =    8.7524
 Total energy for state 34:                 -3010.20609804 au
    Multiplicity: Singlet
    Trans. Mom.:  0.5627 X  -0.0462 Y   0.0274 Z
    Strength   :     0.0685198653
    X: D(   37) --> V(    1) amplitude = -0.2310
    X: D(   44) --> V(    4) amplitude = -0.5249
    X: D(   49) --> V(    5) amplitude =  0.6435

 Excited state  35: excitation energy (eV) =    8.8165
 Total energy for state 35:                 -3010.20374588 au
    Multiplicity: Singlet
    Trans. Mom.:  0.1232 X  -0.2518 Y  -0.0564 Z
    Strength   :     0.0176555253
    X: D(   44) --> V(    4) amplitude =  0.6037
    X: D(   49) --> V(    5) amplitude =  0.6246

 Excited state  36: excitation energy (eV) =    8.9884
 Total energy for state 36:                 -3010.19742673 au
    Multiplicity: Singlet
    Trans. Mom.: -0.1627 X   0.5010 Y   0.4160 Z
    Strength   :     0.0992092578
    X: D(   43) --> V(    3) amplitude =  0.8155
    X: D(   46) --> V(    5) amplitude = -0.2714

 Excited state  37: excitation energy (eV) =    9.0344
 Total energy for state 37:                 -3010.19573584 au
    Multiplicity: Singlet
    Trans. Mom.: -0.3270 X  -0.1716 Y   0.2655 Z
    Strength   :     0.0457843179
    X: D(   43) --> V(    3) amplitude =  0.3260
    X: D(   46) --> V(    5) amplitude =  0.7294
    X: D(   46) --> V(    6) amplitude = -0.2366
    X: D(   46) --> V(    9) amplitude = -0.2201
    X: D(   47) --> V(    5) amplitude =  0.2241

 Excited state  38: excitation energy (eV) =    9.1187
 Total energy for state 38:                 -3010.19263928 au
    Multiplicity: Singlet
    Trans. Mom.: -0.0548 X   0.1256 Y  -0.0646 Z
    Strength   :     0.0051315003
    X: D(   48) --> V(    5) amplitude =  0.6543
    X: D(   48) --> V(    7) amplitude =  0.3710
    X: D(   48) --> V(    8) amplitude =  0.2289
    X: D(   48) --> V(   11) amplitude =  0.3544

 Excited state  39: excitation energy (eV) =    9.2636
 Total energy for state 39:                 -3010.18731531 au
    Multiplicity: Singlet
    Trans. Mom.:  0.1729 X   0.0890 Y  -0.1053 Z
    Strength   :     0.0110982278
    X: D(   34) --> V(    1) amplitude = -0.3116
    X: D(   38) --> V(    1) amplitude = -0.2318
    X: D(   38) --> V(    2) amplitude = -0.3450
    X: D(   39) --> V(    2) amplitude = -0.2466
    X: D(   40) --> V(    2) amplitude = -0.2332
    X: D(   42) --> V(    3) amplitude = -0.5203
    X: D(   47) --> V(    5) amplitude =  0.2349

 Excited state  40: excitation energy (eV) =    9.3067
 Total energy for state 40:                 -3010.18572970 au
    Multiplicity: Singlet
    Trans. Mom.: -0.1010 X   0.0559 Y   0.0588 Z
    Strength   :     0.0038263597
    X: D(   42) --> V(    3) amplitude =  0.2311
    X: D(   47) --> V(    5) amplitude =  0.6265
    X: D(   47) --> V(    7) amplitude =  0.3870
    X: D(   47) --> V(   11) amplitude =  0.3377

 Excited state  41: excitation energy (eV) =    9.3246
 Total energy for state 41:                 -3010.18507038 au
    Multiplicity: Singlet
    Trans. Mom.:  0.1350 X  -0.0816 Y  -0.1203 Z

 Excited state 100: excitation energy (eV) =   11.5327
  Excited state 1:   2.6228 eV (singlet)
  Excited state 2:   2.8874 eV (singlet)
  Excited state 3:   3.4050 eV (singlet)
  Excited state 4:   3.6313 eV (singlet)
  Excited state 5:   3.6707 eV (singlet)
  Excited state 6:   3.6861 eV (singlet)
  Excited state 7:   4.1090 eV (singlet)
  Excited state 8:   4.3252 eV (singlet)
  Excited state 9:   5.2924 eV (singlet)
  Excited state 10:   5.4186 eV (singlet)
  Excited state 11:   5.8307 eV (singlet)
  Excited state 12:   5.9030 eV (singlet)
  Excited state 13:   6.0112 eV (singlet)
  Excited state 14:   6.1866 eV (singlet)
  Excited state 15:   6.2861 eV (singlet)
  Excited state 16:   6.4641 eV (singlet)
  Excited state 17:   6.6336 eV (singlet)
  Excited state 18:   7.0541 eV (singlet)
  Excited state 19:   7.1532 eV (singlet)
  Excited state 20:   7.2989 eV (singlet)
  Excited state 21:   7.3651 eV (singlet)
  Excited state 22:   7.7003 eV (singlet)
  Excited state 23:   7.7778 eV (singlet)
  Excited state 24:   7.8045 eV (singlet)
  Excited state 25:   7.8361 eV (singlet)
  Excited state 26:   7.9279 eV (singlet)
  Excited state 27:   8.0356 eV (singlet)
  Excited state 28:   8.1415 eV (singlet)
  Excited state 29:   8.1528 eV (singlet)
  Excited state 30:   8.2087 eV (singlet)
  Excited state 31:   8.2652 eV (singlet)
  Excited state 32:   8.4900 eV (singlet)
  Excited state 33:   8.6402 eV (singlet)
  Excited state 34:   8.7871 eV (singlet)
  Excited state 35:   8.8804 eV (singlet)
  Excited state 36:   9.0285 eV (singlet)
  Excited state 37:   9.1153 eV (singlet)
  Excited state 38:   9.1649 eV (singlet)
  Excited state 61:  10.3669 eV (singlet)
  Excited state 62:  10.4086 eV (singlet)
  Excited state 63:  10.4288 eV (singlet)
  Excited state 64:  10.4341 eV (singlet)
  Excited state 65:  10.4759 eV (singlet)
  Excited state 66:  10.5035 eV (singlet)
  Excited state 67:  10.5089 eV (singlet)
  Excited state 68:  10.5669 eV (singlet)
  Excited state 69:  10.5726 eV (singlet)
  Excited state 70:  10.6204 eV (singlet)
  Excited state 71:  10.6380 eV (singlet)
  Excited state 72:  10.6838 eV (singlet)
  Excited state 73:  10.6932 eV (singlet)
  Excited state 74:  10.7312 eV (singlet)
  Excited state 75:  10.7829 eV (singlet)
  Excited state 76:  10.7925 eV (singlet)
  Excited state 77:  10.8227 eV (singlet)
  Excited state 78:  10.8393 eV (singlet)
  Excited state 79:  10.8655 eV (singlet)
  Excited state 80:  10.8750 eV (singlet)
  Excited state 81:  10.9039 eV (singlet)
  Excited state 82:  10.9699 eV (singlet)
  Excited state 83:  11.0233 eV (singlet)
  Excited state 84:  11.0537 eV (singlet)
  Excited state 85:  11.0870 eV (singlet)
  Excited state 86:  11.1084 eV (singlet)
  Excited state 87:  11.1319 eV (singlet)
  Excited state 88:  11.1723 eV (singlet)
  Excited state 89:  11.2116 eV (singlet)
  Excited state 90:  11.2182 eV (singlet)
  Excited state 91:  11.2819 eV (singlet)
  Excited state 92:  11.3095 eV (singlet)
  Excited state 93:  11.3116 eV (singlet)
  Excited state 94:  11.3507 eV (singlet)
  Excited state 95:  11.3606 eV (singlet)
  Excited state 96:  11.4083 eV (singlet)
  Excited state 97:  11.4640 eV (singlet)
  Excited state 98:  11.4793 eV (singlet)
  Excited state 99:  11.5118 eV (singlet)
  Excited state 100:  11.5327 eV (singlet)

                    Orbital Energies (a.u.)
 --------------------------------------------------------------

 Alpha MOs
 -- Occupied --
******** -62.8610 -56.6580 -56.6523 -56.6523 -19.4558 -19.4551 -14.8512
-10.5807 -10.5726 -10.5694 -10.5675 -10.5649 -10.5270  -9.0182  -6.8449
 -6.8264  -6.8262  -2.9439  -2.9391  -2.9389  -2.9240  -2.9240  -1.4942
 -1.3239  -1.2241  -1.1383  -1.1151  -1.0420  -1.0080  -0.9522  -0.9071
 -0.8504  -0.8052  -0.8041  -0.7976  -0.7806  -0.7587  -0.7568  -0.7206
 -0.6911  -0.6731  -0.6345  -0.5991  -0.5693  -0.5623  -0.5592  -0.5539
 -0.5502

          Ground-State Mulliken Net Atomic Charges

     Atom                 Charge (a.u.)
  ----------------------------------------
      1 C                    -0.608977
      2 C                     0.540091
      3 C                    -0.744952
      4 C                     0.293047
      5 C                     0.023146
      6 H                     0.334041
      7 H                     0.366266
      8 H                     0.371982
      9 H                     0.348790
     10 N                    -0.110606
     11 O                     0.032536
     12 O                     0.027831
     13 C                    -0.409567
     14 H                     0.397667
     15 Br                    0.138704
  ----------------------------------------
  Sum of atomic charges =     1.000000

                    Cartesian Multipole Moments
 -----------------------------------------------------------------
    Charge (ESU x 10^10)
                 4.8032
    Dipole Moment (Debye)
         X      -0.8352      Y      -0.5969      Z      -0.0313
       Tot       1.0270
    Quadrupole Moments (Debye-Ang)
        XX     -71.2642     XY       1.3103     YY     -51.9611
        XZ       1.1277     YZ       1.7047     ZZ     -62.5628

 Total job time:  1322.37s(wall), 13297.05s(cpu)
        *  Thank you very much for using Q-Chem.  Have a nice day.  *
