 Gaussian 16, Revision A.03,
 Gaussian 16:  ES64L-G16RevA.03 25-Dec-2016

 --------------------------------------------------------------------
 #p B3LYP/6-311+G** #p TD=(singlets,nstates=30)IOp(6/8=3) IOp(9/40=4)
 --------------------------------------------------------------------

 -------------------------------
 Scan Step 270, Bond Length 1.85
 -------------------------------
 Symbolic Z-matrix:
 Charge =  0 Multiplicity = 1

                         Standard orientation:
 ---------------------------------------------------------------------
 Center     Atomic      Atomic             Coordinates (Angstroms)
 Number     Number       Type             X           Y           Z
 ---------------------------------------------------------------------
      1          6           0        0.000000    0.000000   -0.851081
      2          1           0        0.000000    0.937260   -1.442431
      3          1           0       -0.000000   -0.937260   -1.442431
      4          8           0        0.000000   -0.000000    0.998919
 ---------------------------------------------------------------------

 SCF Done:  E(RB3LYP) =  -114.340374410     A.U. after   13 cycles

 Excitation energies and oscillator strengths:

 Excited State   1:      Singlet-A2     1.2502 eV  991.75 nm  f=0.0000  <S**2>=0.000
       3 -> 27         0.00069
       3 -> 38         0.00043
       3 -> 46         0.00333
       4 -> 27         0.00037
       4 -> 46        -0.00094
       5 ->  9         0.00144
       5 -> 13         0.00110
       5 -> 18         0.00164
       5 -> 23         0.00134
       5 -> 28         0.00125
       5 -> 37         0.00071
       5 -> 44         0.00020
       5 -> 52         0.00017
       6 -> 27        -0.00056
       6 -> 38        -0.00055
       6 -> 46         0.00092
       7 -> 12        -0.00130
       7 -> 16         0.00532
       7 -> 19        -0.00472
       7 -> 22        -0.00113
       7 -> 25        -0.00055
       7 -> 29        -0.00194
       7 -> 33         0.00027
       7 -> 49         0.00013
       7 -> 53         0.00038
       8 ->  9         0.71102
       8 -> 13        -0.00652
       8 -> 18         0.02074
       8 -> 23        -0.00086
       8 -> 28         0.01021
       8 -> 31         0.00161
       8 -> 37         0.00048
       8 -> 48        -0.00029
       8 -> 52         0.00185
       3 <- 27         0.00018
       3 <- 38         0.00021
       3 <- 46         0.00336
       4 <- 27         0.00069
       4 <- 38         0.00019
       4 <- 46        -0.00072
       5 <-  9         0.00040
       5 <- 13        -0.00033
       5 <- 18        -0.00036
       5 <- 23         0.00016
       5 <- 28        -0.00027
       5 <- 31         0.00021
       5 <- 37         0.00041
       6 <- 38        -0.00042
       6 <- 46         0.00067
       7 <- 12         0.00187
       7 <- 16        -0.01054
       7 <- 19         0.00568
       7 <- 22         0.00563
       7 <- 25        -0.00063
       7 <- 29         0.00563
       7 <- 33        -0.00034
       7 <- 35         0.00014
       7 <- 49        -0.00048
       7 <- 53         0.00145
       8 <-  9        -0.07692
       8 <- 13        -0.00048
       8 <- 18        -0.00778
       8 <- 23        -0.00035
       8 <- 28        -0.00277
       8 <- 31        -0.00082
       8 <- 37        -0.00019
       8 <- 48         0.00013
       8 <- 52         0.00044
 This state for optimization and/or second-order correction.
 Total Energy, E(TD-HF/TD-DFT) =  -114.294432097
 Copying the excited state density for this state as the 1-particle RhoCI density.

 Excited State   2:      Singlet-A1     3.2894 eV  376.92 nm  f=0.0292  <S**2>=0.000
       3 -> 10        -0.01418
       3 -> 11        -0.00291
       3 -> 14         0.00117
       3 -> 15         0.00037
       3 -> 17        -0.00304
       3 -> 20        -0.00348
       3 -> 21         0.00049
       3 -> 24         0.00045
       3 -> 26         0.00123
       3 -> 30        -0.00046
       3 -> 32         0.00275
       3 -> 34        -0.00105
       3 -> 36        -0.00097
       3 -> 39        -0.00040
       3 -> 43         0.00051
       3 -> 45        -0.00103
       3 -> 47         0.00231
       3 -> 50         0.00157
       4 -> 10        -0.00135
       4 -> 11         0.01021
       4 -> 14         0.00178
       4 -> 15        -0.00762
       4 -> 17         0.00218
       4 -> 20         0.00203
       4 -> 21         0.00026
       4 -> 24        -0.00376
       4 -> 26         0.00321
       4 -> 30         0.00028
       4 -> 32        -0.00120
       4 -> 34         0.00076
       4 -> 36         0.00010
       4 -> 39        -0.00022
       4 -> 43        -0.00046
       4 -> 45         0.00077
       4 -> 47        -0.00076
       4 -> 50        -0.00026
       4 -> 54         0.00014
       5 -> 12         0.00936
       5 -> 16         0.00246
       5 -> 19         0.00113
       5 -> 22         0.00672
       5 -> 25        -0.00445
       5 -> 29         0.00034
       5 -> 33        -0.00239
       5 -> 35         0.00273
       5 -> 40        -0.00097
       5 -> 42        -0.00098
       5 -> 49         0.00013
       5 -> 51        -0.00086
       6 -> 10         0.25283
       6 -> 11         0.03593
       6 -> 14        -0.04031
       6 -> 15        -0.02234
       6 -> 17        -0.01553
       6 -> 20        -0.00134
       6 -> 21         0.00521
       6 -> 24        -0.00772
       6 -> 26        -0.00306
       6 -> 30        -0.00379
       6 -> 32         0.00420
       6 -> 34        -0.00138
       6 -> 36         0.00054
       6 -> 39        -0.00138
       6 -> 43         0.00081
       6 -> 45        -0.00089
       6 -> 47         0.00077
       6 -> 50         0.00054
       6 -> 54        -0.00097
       7 ->  9         0.67551
       7 -> 13        -0.00710
       7 -> 18        -0.01007
       7 -> 23        -0.00270
       7 -> 28         0.00132
       7 -> 31        -0.00329
       7 -> 37         0.00133
       7 -> 44        -0.00096
       7 -> 52         0.00105
       8 -> 12        -0.00743
       8 -> 16         0.03547
       8 -> 19        -0.01820
       8 -> 22        -0.01212
       8 -> 29        -0.00782
       8 -> 33         0.00093
       8 -> 35        -0.00067
       8 -> 40         0.00025
       8 -> 42         0.00024
       8 -> 51         0.00014
       8 -> 53        -0.00050
       3 <- 10        -0.01126
       3 <- 11        -0.00266
       3 <- 14         0.00098
       3 <- 15        -0.00011
       3 <- 17        -0.00175
       3 <- 20        -0.00303
       3 <- 26         0.00033
       3 <- 32         0.00238
       3 <- 34        -0.00054
       3 <- 36        -0.00098
       3 <- 39        -0.00035
       3 <- 43         0.00056
       3 <- 45        -0.00115
       3 <- 47         0.00232
       3 <- 50         0.00157
       4 <- 10         0.00025
       4 <- 11         0.00755
       4 <- 14         0.00142
       4 <- 15        -0.00528
       4 <- 17         0.00133
       4 <- 20         0.00251
       4 <- 24        -0.00289
       4 <- 26         0.00285
       4 <- 30        -0.00029
       4 <- 32        -0.00124
       4 <- 34         0.00064
       4 <- 36         0.00038
       4 <- 39        -0.00025
       4 <- 43        -0.00041
       4 <- 45         0.00071
       4 <- 47        -0.00046
       4 <- 50        -0.00014
       4 <- 54         0.00012
       5 <- 12         0.00572
       5 <- 16         0.00166
       5 <- 19         0.00092
       5 <- 22         0.00488
       5 <- 25        -0.00350
       5 <- 29         0.00035
       5 <- 33        -0.00200
       5 <- 35         0.00237
       5 <- 40        -0.00089
       5 <- 42        -0.00088
       5 <- 49         0.00013
       5 <- 51        -0.00081
       6 <- 10         0.08698
       6 <- 11         0.01521
       6 <- 14        -0.01985
       6 <- 15        -0.01211
       6 <- 17        -0.00950
       6 <- 20        -0.00215
       6 <- 21         0.00368
       6 <- 24        -0.00514
       6 <- 26        -0.00153
       6 <- 30        -0.00242
       6 <- 32         0.00405
       6 <- 34        -0.00154
       6 <- 39        -0.00124
       6 <- 43         0.00067
       6 <- 45        -0.00065
       6 <- 47         0.00044
       6 <- 50         0.00040
       6 <- 54        -0.00089
       7 <-  9        -0.13084
       7 <- 13         0.00318
       7 <- 18        -0.01118
       7 <- 23         0.00068
       7 <- 28        -0.00161
       7 <- 31        -0.00159
       7 <- 37         0.00064
       7 <- 44        -0.00080
       7 <- 48        -0.00043
       7 <- 52         0.00097
       8 <- 12        -0.00315
       8 <- 16         0.01814
       8 <- 19        -0.01069
       8 <- 22        -0.00812
       8 <- 25         0.00013
       8 <- 29        -0.00631
       8 <- 33         0.00075
       8 <- 35        -0.00052
       8 <- 40         0.00019
       8 <- 42         0.00019
       8 <- 51         0.00012
       8 <- 53        -0.00047

 Excited State   3:      Singlet-B2     3.5689 eV  347.40 nm  f=0.0023  <S**2>=0.000
       3 -> 12        -0.00120
       3 -> 16         0.00124
       3 -> 19        -0.00387
       3 -> 22         0.00107
       3 -> 25        -0.00087
       3 -> 29        -0.00256
       3 -> 33         0.00024
       3 -> 35         0.00138
       3 -> 40        -0.00128
       3 -> 42        -0.00049
       3 -> 49        -0.00388
       3 -> 51         0.00017
       3 -> 53         0.00027
       4 -> 12         0.00039
       4 -> 16        -0.00145
       4 -> 19         0.00036
       4 -> 22         0.00175
       4 -> 25         0.00062
       4 -> 29         0.00088
       4 -> 33        -0.00033
       4 -> 35         0.00043
       4 -> 40         0.00028
       4 -> 42         0.00012
       4 -> 49         0.00073
       5 -> 10         0.01001
       5 -> 11         0.00127
       5 -> 14        -0.00334
       5 -> 15         0.00314
       5 -> 17        -0.00051
       5 -> 20         0.00196
       5 -> 21         0.00305
       5 -> 24         0.00141
       5 -> 26        -0.00052
       5 -> 30        -0.00211
       5 -> 32        -0.00123
       5 -> 34         0.00025
       5 -> 39         0.00065
       5 -> 41         0.00041
       5 -> 47        -0.00039
       5 -> 50         0.00025
       5 -> 54        -0.00019
       6 -> 12         0.00246
       6 -> 16        -0.00276
       6 -> 19         0.00415
       6 -> 22        -0.00063
       6 -> 25         0.00113
       6 -> 29         0.00016
       6 -> 33        -0.00014
       6 -> 35        -0.00123
       6 -> 40         0.00082
       6 -> 42         0.00064
       6 -> 49         0.00121
       6 -> 53        -0.00045
       7 -> 27        -0.00053
       7 -> 38         0.00034
       7 -> 46         0.00303
       8 -> 10         0.70330
       8 -> 11         0.05828
       8 -> 14        -0.05449
       8 -> 15        -0.02213
       8 -> 17        -0.01648
       8 -> 20         0.00500
       8 -> 21         0.00593
       8 -> 24        -0.00577
       8 -> 26        -0.00441
       8 -> 30        -0.01312
       8 -> 32        -0.00112
       8 -> 34         0.00117
       8 -> 36         0.00145
       8 -> 39         0.00050
       8 -> 41        -0.00016
       8 -> 45        -0.00082
       8 -> 47        -0.00375
       8 -> 50         0.00143
       8 -> 54        -0.00244
       3 <- 12        -0.00042
       3 <- 16         0.00044
       3 <- 19        -0.00192
       3 <- 22         0.00093
       3 <- 25        -0.00079
       3 <- 29        -0.00104
       3 <- 33         0.00024
       3 <- 35         0.00092
       3 <- 40        -0.00110
       3 <- 42        -0.00034
       3 <- 49        -0.00394
       3 <- 51         0.00016
       3 <- 53         0.00073
       4 <- 12         0.00010
       4 <- 16        -0.00169
       4 <- 19         0.00019
       4 <- 22         0.00208
       4 <- 25         0.00035
       4 <- 29         0.00111
       4 <- 33        -0.00035
       4 <- 35         0.00062
       4 <- 40         0.00011
       4 <- 49         0.00051
       5 <- 10        -0.00092
       5 <- 11        -0.00064
       5 <- 14        -0.00046
       5 <- 15         0.00247
       5 <- 17         0.00020
       5 <- 20         0.00077
       5 <- 21         0.00163
       5 <- 24         0.00161
       5 <- 26        -0.00012
       5 <- 30        -0.00045
       5 <- 32        -0.00029
       5 <- 39         0.00030
       5 <- 41         0.00044
       5 <- 45        -0.00022
       5 <- 47        -0.00040
       5 <- 50         0.00013
       6 <- 12        -0.00079
       6 <- 16         0.00777
       6 <- 19        -0.00420
       6 <- 22        -0.00517
       6 <- 25         0.00123
       6 <- 29        -0.00609
       6 <- 33         0.00021
       6 <- 35        -0.00106
       6 <- 40         0.00081
       6 <- 42         0.00066
       6 <- 49         0.00170
       6 <- 53        -0.00142
       7 <- 27        -0.00053
       7 <- 38         0.00027
       7 <- 46         0.00262
       8 <- 10        -0.04414
       8 <- 11        -0.00739
       8 <- 14         0.00762
       8 <- 15         0.00224
       8 <- 17         0.00201
       8 <- 20        -0.00327
       8 <- 21        -0.00132
       8 <- 24         0.00152
       8 <- 26         0.00120
       8 <- 30         0.00174
       8 <- 32         0.00279
       8 <- 34        -0.00084
       8 <- 36        -0.00080
       8 <- 39        -0.00107
       8 <- 41         0.00021
       8 <- 43         0.00041
       8 <- 45        -0.00156
       8 <- 47        -0.00310
       8 <- 50         0.00118
       8 <- 54        -0.00066

 Excited State   4:      Singlet-B1     3.7428 eV  331.26 nm  f=0.0001  <S**2>=0.000
       3 ->  9        -0.02253
       3 -> 13         0.00081
       3 -> 18        -0.00372
       3 -> 23         0.00122
       3 -> 28        -0.00107
       3 -> 31        -0.00085
       3 -> 37         0.00016
       3 -> 44         0.00034
       3 -> 52         0.00068
       4 ->  9         0.00458
       4 -> 13        -0.00118
       4 -> 18         0.00018
       4 -> 23        -0.00108
       4 -> 28         0.00059
       4 -> 31        -0.00112
       4 -> 37        -0.00021
       4 -> 48        -0.00037
       4 -> 52        -0.00027
       5 -> 27        -0.00064
       5 -> 38         0.00121
       5 -> 46         0.00043
       6 ->  9         0.63171
       6 -> 13        -0.01601
       6 -> 18         0.01362
       6 -> 23        -0.00967
       6 -> 28         0.00367
       6 -> 31         0.00175
       6 -> 37        -0.00118
       6 -> 44        -0.00158
       6 -> 48         0.00315
       6 -> 52         0.00082
       7 -> 10         0.32147
       7 -> 11         0.02948
       7 -> 14        -0.02870
       7 -> 15        -0.01091
       7 -> 17        -0.01084
       7 -> 20         0.00394
       7 -> 21         0.00207
       7 -> 24        -0.00383
       7 -> 26        -0.00349
       7 -> 30        -0.00575
       7 -> 32         0.00048
       7 -> 34        -0.00019
       7 -> 36         0.00129
       7 -> 39        -0.00014
       7 -> 41        -0.00017
       7 -> 43         0.00048
       7 -> 45        -0.00076
       7 -> 47         0.00348
       7 -> 50         0.00118
       7 -> 54        -0.00043
       8 -> 27         0.00012
       8 -> 46         0.00425
       3 <-  9        -0.00752
       3 <- 13        -0.00076
       3 <- 18        -0.00247
       3 <- 23        -0.00044
       3 <- 28        -0.00062
       3 <- 31        -0.00076
       3 <- 37         0.00015
       3 <- 48         0.00011
       3 <- 52         0.00069
       4 <-  9         0.00345
       4 <- 18         0.00135
       4 <- 23        -0.00036
       4 <- 28         0.00145
       4 <- 31        -0.00081
       4 <- 37        -0.00011
       4 <- 44        -0.00021
       4 <- 48        -0.00037
       4 <- 52        -0.00013
       5 <- 27        -0.00093
       5 <- 38         0.00107
       5 <- 46         0.00038
       6 <-  9        -0.04630
       6 <- 13         0.00224
       6 <- 18        -0.00542
       6 <- 23         0.00035
       6 <- 28        -0.00413
       6 <- 31        -0.00055
       6 <- 37        -0.00088
       6 <- 44        -0.00027
       6 <- 48         0.00289
       6 <- 52        -0.00019
       7 <- 10        -0.05370
       7 <- 11        -0.00911
       7 <- 14         0.01288
       7 <- 15         0.00772
       7 <- 17         0.00329
       7 <- 20         0.00202
       7 <- 21        -0.00326
       7 <- 24         0.00381
       7 <- 26         0.00180
       7 <- 30         0.00221
       7 <- 32         0.00024
       7 <- 34        -0.00071
       7 <- 36         0.00094
       7 <- 39        -0.00057
       7 <- 41         0.00021
       7 <- 43         0.00027
       7 <- 45        -0.00048
       7 <- 47         0.00322
       7 <- 50         0.00134
       7 <- 54         0.00068
       8 <- 27         0.00053
       8 <- 46         0.00395

 Excited State   5:      Singlet-B1     4.3446 eV  285.38 nm  f=0.0066  <S**2>=0.000
       3 ->  9        -0.00184
       3 -> 18        -0.00155
       3 -> 23         0.00026
       3 -> 28        -0.00234
       3 -> 31        -0.00130
       3 -> 48        -0.00321
       3 -> 52        -0.00026
       4 ->  9        -0.03012
       4 -> 13         0.00599
       4 -> 18         0.00081
       4 -> 23         0.00469
       4 -> 28         0.00090
       4 -> 31         0.00047
       4 -> 37         0.00034
       4 -> 44        -0.00041
       4 -> 48         0.00091
       4 -> 52         0.00018
       5 -> 27        -0.00620
       5 -> 38        -0.00356
       5 -> 46         0.00013
       6 ->  9        -0.32044
       6 -> 13         0.00424
       6 -> 18        -0.00113
       6 -> 23         0.00304
       6 -> 28         0.00243
       6 -> 31        -0.00407
       6 -> 37         0.00253
       6 -> 44         0.00098
       6 -> 48        -0.00077
       6 -> 52        -0.00091
       7 -> 10         0.62652
       7 -> 11         0.04430
       7 -> 14        -0.04408
       7 -> 15        -0.02679
       7 -> 17        -0.00786
       7 -> 20        -0.00221
       7 -> 21         0.00280
       7 -> 24        -0.00856
       7 -> 26        -0.00510
       7 -> 30        -0.00707
       7 -> 32        -0.00099
       7 -> 34         0.00356
       7 -> 36        -0.00138
       7 -> 39         0.00062
       7 -> 43         0.00045
       7 -> 45        -0.00085
       7 -> 47         0.00037
       7 -> 50         0.00014
       7 -> 54        -0.00167
       8 -> 27         0.00056
       8 -> 38         0.00019
       8 -> 46         0.00046
       3 <- 13         0.00078
       3 <- 18        -0.00045
       3 <- 23         0.00064
       3 <- 28        -0.00165
       3 <- 37        -0.00026
       3 <- 44        -0.00012
       3 <- 48        -0.00333
       3 <- 52         0.00016
       4 <-  9        -0.01422
       4 <- 13         0.00288
       4 <- 23         0.00287
       4 <- 28         0.00081
       4 <- 31         0.00028
       4 <- 37         0.00035
       4 <- 44        -0.00058
       4 <- 48         0.00051
       4 <- 52         0.00015
       5 <- 27        -0.00449
       5 <- 38        -0.00296
       5 <- 46         0.00015
       6 <-  9        -0.02488
       6 <- 13        -0.00046
       6 <- 18        -0.00296
       6 <- 23         0.00062
       6 <- 28         0.00024
       6 <- 31        -0.00475
       6 <- 37         0.00240
       6 <- 44         0.00090
       6 <- 48        -0.00011
       6 <- 52        -0.00129
       7 <- 10        -0.01336
       7 <- 11        -0.00177
       7 <- 14         0.00078
       7 <- 15        -0.00508
       7 <- 17         0.00045
       7 <- 20        -0.00478
       7 <- 21        -0.00081
       7 <- 24        -0.00261

 The electronic state is 1-A1.
 Alpha  occ. eigenvalues --  -19.17759 -10.34022  -0.89012  -0.71547  -0.49282
 Alpha  occ. eigenvalues --   -0.38670  -0.30566  -0.28676
 Alpha virt. eigenvalues --   -0.17353  -0.07851  -0.00101   0.04042   0.06090
 Alpha virt. eigenvalues --    0.06348   0.11713   0.13239   0.18704   0.20979
 Alpha virt. eigenvalues --    0.23937   0.30415   0.38506   0.39487   0.50584

 Mulliken charges:
               1
     1  C   -0.100203
     2  H    0.192890
     3  H    0.192890
     4  O   -0.285576
 Sum of Mulliken charges =  -0.00000

 Dipole moment (field-independent basis, Debye):
    X=             -0.0000    Y=              0.0000    Z=             -4.2130  Tot=              4.2130
 Quadrupole moment (field-independent basis, Debye-Ang):
   XX=            -13.0575   YY=            -12.0533   ZZ=            -10.5767
   XY=              0.0000   XZ=              0.0000   YZ=             -0.0000

 Normal termination of Gaussian 16 at Fri Sep 17 10:53:11 2021.
