 Gaussian 16, Revision C.01,
 Gaussian 16:  ES64L-G16RevC.01  3-Jul-2019

 ---------------------------------------
 #P wB97XD/6-311+G* NoSymm #P Field=Z+87
 ---------------------------------------

 -------
 TitleMe
 -------
 Symbolic Z-matrix:
 Charge =  1 Multiplicity = 1

                          Input orientation:
 ---------------------------------------------------------------------
 Center     Atomic      Atomic             Coordinates (Angstroms)
 Number     Number       Type             X           Y           Z
 ---------------------------------------------------------------------
      1          6           0        0.519300    1.233000   -0.031900
      2          6           0        1.944500    1.269200   -0.036700
      3          6           0        2.620400    0.092800   -0.025000
      4          6           0       -0.196000    0.030100    0.001000
      5          1           0       -0.020700    2.174200   -0.043400
      6          1           0        2.482800    2.208900   -0.036100
      7          1           0       -1.277700    0.039900    0.011700
      8          7           0        4.092100    0.095900    0.036600
      9          8           0        4.639300   -1.021700    0.144600
     10          8           0        4.664900    1.198400   -0.023300
     11          6           0        0.494300   -1.167100    0.021000
     12          1           0       -0.032500   -2.114900    0.054500
     13          6           0        1.962900   -1.216500   -0.021100
     14          1           0        2.443600   -1.963100    0.615100
     15         35           0        2.173000   -1.949100   -1.906200
 ---------------------------------------------------------------------

 SCF Done:  E(RwB97XD) =  -3010.53715373     A.U. after   19 cycles

 Alpha  occ. eigenvalues -- -483.29659 -62.84655 -56.64377 -56.63772 -56.63756
 Alpha  occ. eigenvalues --  -19.45969 -19.45966 -14.85373 -10.58628 -10.57129
 Alpha  occ. eigenvalues --  -10.56672 -10.56241 -10.52806 -10.52195  -9.00442
 Alpha  occ. eigenvalues --   -6.83196  -6.81218  -6.81171  -2.93082  -2.92567
 Alpha  occ. eigenvalues --   -2.92529  -2.90947  -2.90946  -1.49651  -1.32618
 Alpha  occ. eigenvalues --   -1.21751  -1.12223  -1.11644  -1.03683  -0.99582
 Alpha  occ. eigenvalues --   -0.94684  -0.90000  -0.84549  -0.80475  -0.79719
 Alpha  occ. eigenvalues --   -0.79609  -0.77376  -0.75848  -0.74996  -0.71136
 Alpha  occ. eigenvalues --   -0.67921  -0.66975  -0.62396  -0.58935  -0.57126
 Alpha  occ. eigenvalues --   -0.56366  -0.55665  -0.54410  -0.53207
 Alpha virt. eigenvalues --   -0.29290  -0.19977  -0.14548  -0.12572  -0.09309
 Alpha virt. eigenvalues --   -0.06630  -0.06301  -0.05129  -0.03202  -0.02885
 Alpha virt. eigenvalues --   -0.01849  -0.01519  -0.00271   0.00559   0.01479

 Mulliken charges:
               1
     1  C   -0.132565
     2  C    0.212906
     3  C   -0.057057
     4  C   -0.331769
     5  H    0.344124
     6  H    0.349046
     7  H    0.328494
     8  N   -0.258547
     9  O    0.088089
    10  O    0.069351
    11  C   -0.225144
    12  H    0.354059
    13  C   -0.392506
    14  H    0.383122
    15  Br   0.268397
 Sum of Mulliken charges =   1.00000

 Dipole moment (field-independent basis, Debye):
    X=              2.9120    Y=             -1.2592    Z=             -2.3185  Tot=              3.9295
 Quadrupole moment (field-independent basis, Debye-Ang):
   XX=            -67.8754   YY=            -50.5900   ZZ=            -60.2253
   XY=             -3.6859   XZ=             -5.7938   YZ=              3.9870

 Normal termination of Gaussian 16 at Thu May  2 14:19:22 2024.
