 Gaussian 16, Revision A.03,
 Gaussian 16:  ES64L-G16RevA.03 25-Dec-2016

 --------------------------------------------------------------------
 #p B3LYP/6-311+G** #p TD=(singlets,nstates=30)IOp(6/8=3) IOp(9/40=4)
 --------------------------------------------------------------------

 ------------------------------
 Scan Step 28, Bond Length 0.64
 ------------------------------
 Symbolic Z-matrix:
 Charge =  0 Multiplicity = 1

                         Standard orientation:
 ---------------------------------------------------------------------
 Center     Atomic      Atomic             Coordinates (Angstroms)
 Number     Number       Type             X           Y           Z
 ---------------------------------------------------------------------
      1          6           0        0.000000    0.000000   -0.246081
      2          1           0        0.000000    0.937260   -0.837431
      3          1           0       -0.000000   -0.937260   -0.837431
      4          8           0        0.000000   -0.000000    0.393919
 ---------------------------------------------------------------------

 SCF Done:  E(RB3LYP) =  -112.275606193     A.U. after   10 cycles

 Excitation energies and oscillator strengths:

 Excited State   1:      Singlet-B2     4.6813 eV  264.85 nm  f=0.1311  <S**2>=0.000
       3 -> 11         0.00075
       3 -> 16         0.00074
       3 -> 19         0.00075
       3 -> 22         0.00058
       3 -> 24         0.00106
       3 -> 29         0.00018
       3 -> 32        -0.00022
       3 -> 40        -0.00028
       3 -> 43         0.00022
       3 -> 54         0.00016
       4 ->  9        -0.00277
       4 -> 12         0.00255
       4 -> 13         0.00332
       4 -> 15         0.00144
       4 -> 18         0.00249
       4 -> 20         0.00209
       4 -> 21         0.00163
       4 -> 25         0.00139
       4 -> 26        -0.00077
       4 -> 30         0.00099
       4 -> 31         0.00141
       4 -> 33         0.00016
       4 -> 38        -0.00062
       4 -> 42         0.00047
       4 -> 44        -0.00028
       4 -> 47         0.00076
       4 -> 49        -0.00013
       4 -> 51        -0.00011
       4 -> 53        -0.00010
       5 -> 28         0.00192
       5 -> 35         0.00086
       5 -> 45         0.00076
       6 -> 11        -0.00540
       6 -> 16         0.00350
       6 -> 19         0.00023
       6 -> 22        -0.00047
       6 -> 24         0.00456
       6 -> 29         0.00071
       6 -> 32        -0.00067
       6 -> 37         0.00012
       6 -> 40        -0.00012
       6 -> 43         0.00015
       6 -> 46         0.00035
       7 -> 11         0.00875
       7 -> 16         0.00360
       7 -> 19         0.00324
       7 -> 22         0.00024
       7 -> 24         0.00067
       7 -> 29        -0.00117
       7 -> 32         0.00095
       7 -> 37        -0.00069
       7 -> 43        -0.00040
       7 -> 46         0.00040
       7 -> 50         0.00042
       7 -> 54        -0.00011
       8 ->  9         0.70502
       8 -> 12        -0.00094
       8 -> 13         0.05281
       8 -> 15        -0.00557
       8 -> 18        -0.02249
       8 -> 20         0.00539
       8 -> 21         0.01062
       8 -> 25        -0.00024
       8 -> 26        -0.00058
       8 -> 30        -0.00328
       8 -> 31        -0.00196
       8 -> 33        -0.00091
       8 -> 38        -0.00110
       8 -> 42         0.00075
       8 -> 44         0.00038
       8 -> 47        -0.00071
       8 -> 49         0.00027
       8 -> 51         0.00010
       3 <- 11         0.00034
       3 <- 16         0.00039
       3 <- 19         0.00048
       3 <- 22         0.00048
       3 <- 24         0.00080
       3 <- 29         0.00012
       3 <- 32        -0.00023
       3 <- 40        -0.00028
       3 <- 43         0.00022
       3 <- 54         0.00016
       4 <-  9        -0.00117
       4 <- 12        -0.00020
       4 <- 13         0.00273
       4 <- 15         0.00169
       4 <- 18         0.00043
       4 <- 20         0.00126
       4 <- 21         0.00130
       4 <- 25         0.00105
       4 <- 26        -0.00133
       4 <- 30         0.00075
       4 <- 31         0.00060
       4 <- 33         0.00018
       4 <- 38        -0.00040
       4 <- 39         0.00015
       4 <- 42         0.00038
       4 <- 44        -0.00023
       4 <- 47         0.00068
       5 <- 28         0.00162
       5 <- 35         0.00070
       5 <- 45         0.00064
       6 <- 11        -0.00121
       6 <- 16         0.00313
       6 <- 19         0.00049
       6 <- 22         0.00014
       6 <- 24         0.00337
       6 <- 29         0.00022
       6 <- 32        -0.00059
       6 <- 37         0.00018
       6 <- 43         0.00011
       6 <- 46         0.00032
       6 <- 50         0.00017
       7 <- 11         0.00199
       7 <- 16         0.00148
       7 <- 19         0.00048
       7 <- 29        -0.00168
       7 <- 32         0.00078
       7 <- 37        -0.00043
       7 <- 43        -0.00027
       7 <- 46         0.00043
       7 <- 50         0.00049
       8 <-  9        -0.00989
       8 <- 12        -0.00599
       8 <- 13         0.02182
       8 <- 15         0.00680
       8 <- 18         0.00115
       8 <- 20         0.00078
       8 <- 21         0.00547
       8 <- 25         0.00300
       8 <- 26        -0.00025
       8 <- 30        -0.00218
       8 <- 31        -0.00140
       8 <- 33        -0.00130
       8 <- 38        -0.00106
       8 <- 42         0.00065
       8 <- 44         0.00011
       8 <- 47        -0.00061
       8 <- 49         0.00018
 This state for optimization and/or second-order correction.
 Total Energy, E(TD-HF/TD-DFT) =  -112.103573068
 Copying the excited state density for this state as the 1-particle RhoCI density.

 Excited State   2:      Singlet-A2     5.0303 eV  246.47 nm  f=0.0000  <S**2>=0.000
       3 -> 28        -0.00184
       3 -> 35        -0.00109
       3 -> 45        -0.00037
       4 -> 10        -0.00081
       4 -> 14         0.00019
       4 -> 17        -0.00316
       4 -> 23         0.00128
       4 -> 27        -0.00212
       4 -> 34         0.00012
       4 -> 36        -0.00131
       4 -> 41        -0.00012
       4 -> 48        -0.00014
       4 -> 52        -0.00025
       5 -> 11         0.00025
       5 -> 16        -0.00018
       5 -> 19         0.00034
       5 -> 22        -0.00082
       5 -> 24         0.00024
       5 -> 29         0.00027
       5 -> 37        -0.00032
       5 -> 40         0.00012
       5 -> 43        -0.00037
       5 -> 46        -0.00032
       5 -> 50         0.00018
       6 -> 28        -0.00313
       6 -> 35         0.00051
       7 -> 28         0.00166
       7 -> 35        -0.00035
       7 -> 45        -0.00039
       8 -> 10         0.70638
       8 -> 14        -0.01789
       8 -> 17         0.02730
       8 -> 23         0.00344
       8 -> 27         0.00105
       8 -> 34         0.00328
       8 -> 36        -0.00178
       8 -> 41         0.00036
       8 -> 48         0.00014
       8 -> 52         0.00033
       3 <- 28        -0.00153
       3 <- 35        -0.00094
       3 <- 45        -0.00035
       4 <- 10        -0.00019
       4 <- 14         0.00056
       4 <- 17        -0.00079
       4 <- 23         0.00013
       4 <- 27        -0.00042
       4 <- 34         0.00071
       4 <- 36        -0.00075
       4 <- 41        -0.00019
       5 <- 11         0.00055
       5 <- 16        -0.00052
       5 <- 19         0.00132
       5 <- 22        -0.00113
       5 <- 24         0.00100
       5 <- 29         0.00128
       5 <- 32         0.00018
       5 <- 37        -0.00067
       5 <- 43        -0.00041
       5 <- 46        -0.00034
       5 <- 54        -0.00022
       6 <- 28        -0.00303
       6 <- 35         0.00064
       7 <- 28         0.00171
       7 <- 35        -0.00046
       7 <- 45        -0.00040
       8 <- 10         0.00203
       8 <- 14         0.00430
       8 <- 17        -0.00665
       8 <- 23         0.00018
       8 <- 27        -0.00060
       8 <- 34         0.00314
       8 <- 36        -0.00142
       8 <- 41         0.00022
       8 <- 52         0.00012

 Excited State   3:      Singlet-B2     5.6657 eV  218.83 nm  f=0.0356  <S**2>=0.000
       3 -> 11        -0.00017
       3 -> 16         0.00044
       3 -> 19        -0.00033
       3 -> 22         0.00030
       3 -> 24         0.00027
       3 -> 29        -0.00031
       3 -> 32         0.00012
       3 -> 37        -0.00019
       3 -> 40         0.00013
       3 -> 43        -0.00020
       3 -> 46         0.00013
       3 -> 54        -0.00018
       4 ->  9         0.00144
       4 -> 12         0.00028
       4 -> 13         0.00111
       4 -> 15         0.00219
       4 -> 18        -0.00113
       4 -> 20        -0.00055
       4 -> 21         0.00112
       4 -> 25         0.00087
       4 -> 26         0.00045
       4 -> 30        -0.00216
       4 -> 31        -0.00034
       4 -> 38         0.00031
       4 -> 39        -0.00095
       4 -> 42        -0.00030
       4 -> 47        -0.00048
       5 -> 28        -0.00100
       5 -> 35        -0.00119
       5 -> 45        -0.00065
       6 -> 11        -0.00071
       6 -> 16         0.00357
       6 -> 19        -0.00188
       6 -> 24         0.00167
       6 -> 29         0.00190
       6 -> 32         0.00041
       6 -> 37         0.00060
       6 -> 40         0.00043
       6 -> 43         0.00029
       6 -> 46        -0.00031
       6 -> 50        -0.00025
       6 -> 54         0.00015
       7 -> 11        -0.00174
       7 -> 16        -0.00437
       7 -> 19        -0.00106
       7 -> 22         0.00044
       7 -> 24        -0.00319
       7 -> 29        -0.00112
       7 -> 32        -0.00048
       7 -> 37         0.00050
       7 -> 43         0.00012
       7 -> 46        -0.00055
       7 -> 50        -0.00027
       7 -> 54         0.00014
       8 ->  9        -0.00089
       8 -> 12         0.70562
       8 -> 13         0.03460
       8 -> 15         0.02684
       8 -> 18         0.00691
       8 -> 20         0.01576
       8 -> 21         0.00544
       8 -> 25        -0.00092
       8 -> 26         0.00189
       8 -> 30        -0.00273
       8 -> 31         0.00053
       8 -> 33        -0.00020
       8 -> 38        -0.00052
       8 -> 39         0.00142
       8 -> 42         0.00087
       8 -> 47         0.00036
       8 -> 53        -0.00015
       3 <- 16         0.00042
       3 <- 19        -0.00010
       3 <- 22         0.00015
       3 <- 24         0.00034
       3 <- 29        -0.00017
       3 <- 32         0.00013
       3 <- 37        -0.00021
       3 <- 40         0.00010
       3 <- 43        -0.00019
       3 <- 54        -0.00023
       4 <-  9        -0.00114
       4 <- 12        -0.00017
       4 <- 13         0.00118
       4 <- 15         0.00068
       4 <- 18         0.00058
       4 <- 20        -0.00042
       4 <- 21         0.00077
       4 <- 25         0.00097
       4 <- 26         0.00053
       4 <- 30        -0.00143
       4 <- 33        -0.00056
       4 <- 38         0.00021
       4 <- 39        -0.00070
       4 <- 42        -0.00032
       4 <- 47        -0.00044
       5 <- 28        -0.00061
       5 <- 35        -0.00103
       5 <- 45        -0.00058
       6 <- 11        -0.00051
       6 <- 16         0.00073
       6 <- 19         0.00023
       6 <- 22        -0.00056
       6 <- 24         0.00148
       6 <- 29         0.00147
       6 <- 32         0.00059
       6 <- 37         0.00056
       6 <- 40         0.00036
       6 <- 43         0.00021
       6 <- 46        -0.00026
       6 <- 50        -0.00019
       6 <- 54         0.00010
       7 <- 11         0.00013
       7 <- 16        -0.00143
       7 <- 19        -0.00058
       7 <- 22         0.00032
       7 <- 24        -0.00189
       7 <- 29        -0.00030
       7 <- 32        -0.00040
       7 <- 37         0.00016
       7 <- 46        -0.00049
       7 <- 50        -0.00036
       8 <-  9        -0.00549
       8 <- 12         0.00092
       8 <- 13         0.01160
       8 <- 15         0.00458
       8 <- 18        -0.00120
       8 <- 20        -0.00312
       8 <- 21         0.00331
       8 <- 25         0.00064
       8 <- 30        -0.00228
       8 <- 31         0.00052
       8 <- 33        -0.00013
       8 <- 38        -0.00035
       8 <- 39         0.00126
       8 <- 42         0.00076
       8 <- 47         0.00030

 Excited State   4:      Singlet-A1     5.8534 eV  211.82 nm  f=0.0049  <S**2>=0.000
       3 ->  9         0.00133
       3 -> 12        -0.00045
       3 -> 13         0.00021
       3 -> 15        -0.00077
       3 -> 18        -0.00157
       3 -> 20        -0.00014
       3 -> 21         0.00086
       3 -> 25        -0.00073
       3 -> 26        -0.00032
       3 -> 30         0.00067
       3 -> 31        -0.00080
       3 -> 33         0.00047
       3 -> 38         0.00039
       3 -> 39         0.00033
       3 -> 44        -0.00011
       3 -> 47         0.00011
       3 -> 51         0.00019
       4 -> 11        -0.00594
       4 -> 16        -0.00591
       4 -> 19        -0.00469
       4 -> 22        -0.00253
       4 -> 24        -0.00325
       4 -> 37        -0.00100
       4 -> 40        -0.00013
       4 -> 43         0.00024
       4 -> 50         0.00016
       5 -> 10        -0.00307
       5 -> 14        -0.00373
       5 -> 17        -0.00222
       5 -> 23        -0.00350
       5 -> 27        -0.00079
       5 -> 34        -0.00084
       5 -> 36        -0.00059
       5 -> 48         0.00018
       6 ->  9         0.01155
       6 -> 12         0.00606
       6 -> 13        -0.00379
       6 -> 15        -0.00453
       6 -> 18        -0.00727
       6 -> 20         0.00420
       6 -> 21         0.00161
       6 -> 25        -0.00552
       6 -> 26         0.00095
       6 -> 30        -0.00037
       6 -> 31         0.00175
       6 -> 33         0.00202
       6 -> 38         0.00133
       6 -> 39        -0.00111
       6 -> 42        -0.00017
       6 -> 44         0.00066
       6 -> 47         0.00011
       6 -> 49        -0.00042
       7 ->  9         0.00701
       7 -> 12        -0.01240
       7 -> 13         0.00095
       7 -> 15         0.00568
       7 -> 18        -0.00717
       7 -> 20        -0.00390
       7 -> 21        -0.00107
       7 -> 25         0.00160
       7 -> 26        -0.00335
       7 -> 30        -0.00076
       7 -> 31        -0.00182
       7 -> 33         0.00013
       7 -> 38        -0.00083
       7 -> 39         0.00057
       7 -> 42         0.00016
       7 -> 44        -0.00037
       7 -> 51        -0.00016
       8 -> 11         0.70462
       8 -> 16         0.05397
       8 -> 19        -0.02038
       8 -> 22        -0.00086
       8 -> 24         0.00775
       8 -> 29        -0.00361
       8 -> 32         0.00204
       8 -> 37        -0.00337
       8 -> 40        -0.00045
       8 -> 43         0.00187
       8 -> 46        -0.00099
       8 -> 50         0.00021
       3 <-  9         0.00075
       3 <- 12        -0.00022
       3 <- 13         0.00017
       3 <- 15        -0.00049
       3 <- 18        -0.00101
       3 <- 20        -0.00011
       3 <- 21         0.00059
       3 <- 25        -0.00056
       3 <- 26        -0.00025
       3 <- 30         0.00052
       3 <- 31        -0.00056
       3 <- 33         0.00040
       3 <- 38         0.00030
       3 <- 39         0.00027
       3 <- 44        -0.00011
       3 <- 47         0.00014
       3 <- 51         0.00016
       4 <- 11        -0.00250
       4 <- 16        -0.00246
       4 <- 19        -0.00272
       4 <- 22        -0.00180
       4 <- 24        -0.00180
       4 <- 32         0.00012
       4 <- 37        -0.00084
       4 <- 40        -0.00012
       4 <- 43         0.00022
       4 <- 50         0.00014
       5 <- 10        -0.00175
       5 <- 14        -0.00221
       5 <- 17        -0.00138
       5 <- 23        -0.00247
       5 <- 27        -0.00058
       5 <- 34        -0.00070
       5 <- 36        -0.00050
       5 <- 48         0.00017
       6 <-  9         0.00815
       6 <- 12         0.00312
       6 <- 13        -0.00302
       6 <- 15        -0.00360
       6 <- 18        -0.00392
       6 <- 20         0.00233
       6 <- 21         0.00191
       6 <- 25        -0.00373
       6 <- 26         0.00062
       6 <- 31         0.00130
       6 <- 33         0.00145
       6 <- 38         0.00130
       6 <- 39        -0.00085
       6 <- 42        -0.00016
       6 <- 44         0.00065
       6 <- 49        -0.00036
       7 <-  9        -0.00014
       7 <- 12        -0.00511
       7 <- 13         0.00157
       7 <- 15         0.00393
       7 <- 18        -0.00338
       7 <- 20        -0.00185
       7 <- 21        -0.00115
       7 <- 25         0.00115
       7 <- 26        -0.00223
       7 <- 30        -0.00076
       7 <- 31        -0.00139
       7 <- 33         0.00010
       7 <- 38        -0.00076
       7 <- 39         0.00032
       7 <- 44        -0.00037
       7 <- 47        -0.00011
       7 <- 51        -0.00015
       8 <- 11        -0.01111
       8 <- 16         0.00513
       8 <- 19        -0.01588
       8 <- 22        -0.00423
       8 <- 24         0.00356
       8 <- 29        -0.00265
       8 <- 32         0.00185
       8 <- 37        -0.00269
       8 <- 40        -0.00018
       8 <- 43         0.00150
       8 <- 46        -0.00094
       8 <- 50         0.00021

 Excited State   5:      Singlet-A2     8.2589 eV  150.12 nm  f=0.0000  <S**2>=0.000
       3 -> 28         0.00252
       3 -> 35         0.00158
       3 -> 45         0.00050
       4 -> 14        -0.00648
       4 -> 17         0.00174
       4 -> 23        -0.00324
       4 -> 27         0.00060
       4 -> 34         0.00077
       4 -> 36         0.00237
       4 -> 52         0.00028
       5 -> 16        -0.00034
       5 -> 19        -0.00048
       5 -> 22         0.00127
       5 -> 24        -0.00072
       5 -> 37         0.00042
       5 -> 40        -0.00016
       5 -> 43         0.00059
       5 -> 46         0.00042
       5 -> 50        -0.00013
       5 -> 54         0.00012
       6 -> 28         0.00269
       6 -> 35        -0.00064
       6 -> 45         0.00010
       7 -> 28        -0.00151
       7 -> 35         0.00040
       7 -> 45         0.00045
       8 -> 10         0.02031
       8 -> 14         0.70332
       8 -> 17        -0.06739
       8 -> 23         0.01903
       8 -> 27        -0.00235
       8 -> 34        -0.00281
       8 -> 36         0.00280
       8 -> 41        -0.00016
       8 -> 52        -0.00037
       3 <- 28         0.00175
       3 <- 35         0.00128
       3 <- 45         0.00055
       4 <- 10         0.00032
       4 <- 14        -0.00062
       4 <- 17         0.00058
       4 <- 23        -0.00022
       4 <- 27         0.00029
       4 <- 34        -0.00061
       4 <- 36         0.00092
       4 <- 41         0.00025
       4 <- 52         0.00010
       5 <- 11         0.00039
       5 <- 16        -0.00017
       5 <- 19        -0.00040
       5 <- 22         0.00154
       5 <- 24        -0.00147
       5 <- 29        -0.00038
       5 <- 32        -0.00052
       5 <- 37         0.00106
       5 <- 43         0.00067
       5 <- 46         0.00015
       5 <- 54         0.00026
       6 <- 28         0.00282
       6 <- 35        -0.00057
       6 <- 45        -0.00012
       7 <- 28        -0.00145
       7 <- 35         0.00011
       7 <- 45         0.00026
       8 <- 10         0.00474
       8 <- 14        -0.00257
       8 <- 17         0.00450
       8 <- 23        -0.00079
       8 <- 27         0.00046
       8 <- 34        -0.00309
       8 <- 36         0.00152
       8 <- 41        -0.00023
       8 <- 52        -0.00015

 The electronic state is 1-A1.
 Alpha  occ. eigenvalues --  -19.22503 -10.36455  -1.29852  -0.82838  -0.79957
 Alpha  occ. eigenvalues --   -0.58241  -0.53717  -0.20075
 Alpha virt. eigenvalues --    0.00579   0.02710   0.04427   0.04693   0.14320
 Alpha virt. eigenvalues --    0.15432   0.17892   0.18152   0.21763   0.22834
 Alpha virt. eigenvalues --    0.27668   0.36591   0.50703   0.57518   0.59519

 Mulliken charges:
               1
     1  C    0.272667
     2  H   -0.111814
     3  H   -0.111814
     4  O   -0.049040
 Sum of Mulliken charges =  -0.00000

 Dipole moment (field-independent basis, Debye):
    X=              0.0000    Y=              0.0000    Z=              1.3495  Tot=              1.3495
 Quadrupole moment (field-independent basis, Debye-Ang):
   XX=            -10.1488   YY=            -13.8832   ZZ=            -13.6769
   XY=             -0.0000   XZ=             -0.0000   YZ=              0.0000

 Normal termination of Gaussian 16 at Fri Sep 17 10:52:24 2021.
