 Gaussian 16, Revision A.03,
 Gaussian 16:  ES64L-G16RevA.03 25-Dec-2016

 --------------------------------------------------------------------
 #p B3LYP/6-311+G** #p TD=(singlets,nstates=30)IOp(6/8=3) IOp(9/40=4)
 --------------------------------------------------------------------

 --------------------------------
 Scan Step 177, Bond Length 1.385
 --------------------------------
 Symbolic Z-matrix:
 Charge =  0 Multiplicity = 1

                         Standard orientation:
 ---------------------------------------------------------------------
 Center     Atomic      Atomic             Coordinates (Angstroms)
 Number     Number       Type             X           Y           Z
 ---------------------------------------------------------------------
      1          6           0        0.000000    0.000000   -0.618581
      2          1           0        0.000000    0.937260   -1.209931
      3          1           0       -0.000000   -0.937260   -1.209931
      4          8           0        0.000000   -0.000000    0.766419
 ---------------------------------------------------------------------

 SCF Done:  E(RB3LYP) =  -114.505767861     A.U. after    9 cycles

 Excitation energies and oscillator strengths:

 Excited State   1:      Singlet-A2     2.9389 eV  421.88 nm  f=0.0000  <S**2>=0.000
       3 -> 27         0.00185
       3 -> 38         0.00151
       3 -> 46         0.00296
       4 -> 27         0.00124
       4 -> 38        -0.00033
       4 -> 46        -0.00141
       5 ->  9         0.01570
       5 -> 13        -0.00035
       5 -> 18         0.00443
       5 -> 23         0.00116
       5 -> 29         0.00390
       5 -> 31        -0.00093
       5 -> 37         0.00242
       5 -> 44         0.00048
       5 -> 48         0.00011
       5 -> 52         0.00057
       6 -> 27        -0.00048
       6 -> 38        -0.00088
       6 -> 46         0.00167
       7 -> 12        -0.00067
       7 -> 15         0.00384
       7 -> 19        -0.00342
       7 -> 25         0.00130
       7 -> 30        -0.00117
       7 -> 33         0.00044
       7 -> 42        -0.00011
       7 -> 49         0.00018
       7 -> 50         0.00027
       7 -> 53         0.00048
       8 ->  9         0.70695
       8 -> 13        -0.02477
       8 -> 18         0.02225
       8 -> 23        -0.00706
       8 -> 29         0.01066
       8 -> 31        -0.00059
       8 -> 37         0.00053
       8 -> 48        -0.00029
       8 -> 52         0.00188
       3 <- 27         0.00108
       3 <- 38         0.00119
       3 <- 46         0.00304
       4 <- 27         0.00195
       4 <- 38         0.00018
       4 <- 46        -0.00116
       5 <-  9        -0.00057
       5 <- 13        -0.00071
       5 <- 18        -0.00096
       5 <- 23         0.00043
       5 <- 29        -0.00068
       5 <- 31         0.00058
       5 <- 37         0.00125
       5 <- 44         0.00017
       5 <- 48         0.00011
       5 <- 52         0.00015
       6 <- 27         0.00014
       6 <- 38        -0.00076
       6 <- 46         0.00130
       7 <- 12        -0.00030
       7 <- 15        -0.00879
       7 <- 19         0.00184
       7 <- 22         0.00745
       7 <- 25         0.00027
       7 <- 30         0.00446
       7 <- 33        -0.00099
       7 <- 35         0.00176
       7 <- 40         0.00080
       7 <- 49        -0.00015
       7 <- 50         0.00018
       7 <- 53         0.00140
       8 <-  9        -0.03434
       8 <- 13         0.00165
       8 <- 18        -0.00532
       8 <- 23         0.00063
       8 <- 29        -0.00167
       8 <- 31        -0.00053
       8 <- 37        -0.00091
       8 <- 52         0.00052
 This state for optimization and/or second-order correction.
 Total Energy, E(TD-HF/TD-DFT) =  -114.397766349
 Copying the excited state density for this state as the 1-particle RhoCI density.

 Excited State   2:      Singlet-B2     6.9497 eV  178.40 nm  f=0.0137  <S**2>=0.000
       3 -> 12         0.00180
       3 -> 15         0.00043
       3 -> 19         0.00155
       3 -> 22        -0.00033
       3 -> 25         0.00106
       3 -> 30         0.00019
       3 -> 33         0.00030
       3 -> 35        -0.00070
       3 -> 40        -0.00039
       3 -> 49         0.00036
       3 -> 53        -0.00012
       4 -> 12        -0.00191
       4 -> 15         0.00222
       4 -> 19         0.00159
       4 -> 22        -0.00316
       4 -> 25         0.00289
       4 -> 30         0.00023
       4 -> 33        -0.00011
       4 -> 35         0.00024
       4 -> 40         0.00042
       4 -> 42        -0.00013
       5 -> 10        -0.00859
       5 -> 11        -0.00429
       5 -> 14         0.00794
       5 -> 16        -0.00035
       5 -> 17         0.00503
       5 -> 20         0.00167
       5 -> 21        -0.00547
       5 -> 24        -0.00112
       5 -> 26         0.00182
       5 -> 28         0.00098
       5 -> 32        -0.00100
       5 -> 34        -0.00099
       5 -> 36        -0.00024
       5 -> 41        -0.00059
       5 -> 43        -0.00038
       5 -> 47         0.00011
       5 -> 54         0.00013
       6 -> 12        -0.00173
       6 -> 15         0.00117
       6 -> 19         0.00034
       6 -> 22        -0.00182
       6 -> 25         0.00078
       6 -> 30        -0.00040
       6 -> 33        -0.00035
       6 -> 35         0.00092
       6 -> 40         0.00025
       6 -> 42        -0.00012
       6 -> 49         0.00025
       6 -> 50        -0.00014
       7 -> 38        -0.00078
       7 -> 46        -0.00024
       8 -> 10         0.70395
       8 -> 11        -0.05480
       8 -> 14         0.02783
       8 -> 16        -0.00022
       8 -> 17         0.01386
       8 -> 20         0.01646
       8 -> 21         0.00169
       8 -> 24         0.00033
       8 -> 26         0.00351
       8 -> 28         0.00182
       8 -> 32         0.00086
       8 -> 34         0.00031
       8 -> 36         0.00014
       8 -> 39         0.00028
       8 -> 41        -0.00033
       8 -> 43         0.00060
       8 -> 45         0.00014
       8 -> 47         0.00024
       8 -> 51        -0.00035
       8 -> 54         0.00029
       3 <- 12         0.00040
       3 <- 15         0.00043
       3 <- 19         0.00061
       3 <- 22        -0.00059
       3 <- 25         0.00054
       3 <- 33         0.00026
       3 <- 35        -0.00060
       3 <- 40        -0.00038
       3 <- 49         0.00041
       3 <- 53        -0.00014
       4 <- 12         0.00077
       4 <- 15         0.00202
       4 <- 19         0.00151
       4 <- 22        -0.00207
       4 <- 25         0.00191
       4 <- 30         0.00015
       4 <- 42        -0.00022
       4 <- 50        -0.00013
       5 <- 10         0.00212
       5 <- 11        -0.00026
       5 <- 14         0.00439
       5 <- 16        -0.00039
       5 <- 17         0.00026
       5 <- 20         0.00043
       5 <- 21        -0.00137
       5 <- 24        -0.00233
       5 <- 26         0.00126
       5 <- 28         0.00014
       5 <- 32        -0.00084
       5 <- 34        -0.00079
       5 <- 36        -0.00019
       5 <- 41        -0.00043
       5 <- 43        -0.00032
       6 <- 12        -0.00017
       6 <- 15        -0.00070
       6 <- 19         0.00085
       6 <- 25         0.00026
       6 <- 30         0.00067
       6 <- 33        -0.00040
       6 <- 35         0.00090
       6 <- 40         0.00022
       6 <- 49         0.00017
       6 <- 50        -0.00017
       6 <- 53         0.00023
       7 <- 38        -0.00058
       7 <- 46        -0.00016
       8 <- 10        -0.00141
       8 <- 11        -0.00123
       8 <- 14        -0.00375
       8 <- 16        -0.00076
       8 <- 17        -0.00142
       8 <- 20        -0.00060
       8 <- 21         0.00134
       8 <- 24         0.00118
       8 <- 26        -0.00100
       8 <- 28        -0.00022
       8 <- 32         0.00057
       8 <- 34        -0.00010
       8 <- 36         0.00034
       8 <- 41        -0.00011
       8 <- 43         0.00030
       8 <- 45         0.00024
       8 <- 51        -0.00011

 Excited State   3:      Singlet-B1     7.1830 eV  172.61 nm  f=0.0015  <S**2>=0.000
       3 ->  9        -0.03314
       3 -> 13         0.00349
       3 -> 18        -0.00623
       3 -> 23         0.00306
       3 -> 29        -0.00188
       3 -> 31        -0.00047
       3 -> 44         0.00048
       3 -> 48         0.00050
       3 -> 52         0.00110
       4 ->  9         0.01605
       4 -> 13        -0.00272
       4 -> 18         0.00073
       4 -> 23        -0.00249
       4 -> 29         0.00017
       4 -> 31        -0.00206
       4 -> 37        -0.00045
       4 -> 48        -0.00148
       4 -> 52        -0.00086
       5 -> 27        -0.00123
       5 -> 38         0.00199
       5 -> 46         0.00202
       6 ->  9         0.70573
       6 -> 13        -0.02747
       6 -> 18         0.02040
       6 -> 23        -0.01202
       6 -> 29         0.00634
       6 -> 31         0.00397
       6 -> 37        -0.00256
       6 -> 44        -0.00345
       6 -> 48         0.00509
       6 -> 52         0.00182
       7 -> 10        -0.00083
       7 -> 11        -0.00060
       7 -> 14        -0.00211
       7 -> 16        -0.01145
       7 -> 20         0.00188
       7 -> 21        -0.00206
       7 -> 24         0.00114
       7 -> 26         0.00029
       7 -> 28        -0.00465
       7 -> 32        -0.00120
       7 -> 34         0.00025
       7 -> 36        -0.00162
       7 -> 39         0.00015
       7 -> 41        -0.00149
       7 -> 43         0.00086
       7 -> 45         0.00435
       7 -> 47         0.00276
       7 -> 51         0.00113
       7 -> 54         0.00057
       8 -> 27         0.00183
       8 -> 38         0.00061
       8 -> 46         0.00649
       3 <-  9        -0.01060
       3 <- 13         0.00018
       3 <- 18        -0.00330
       3 <- 29        -0.00121
       3 <- 31        -0.00042
       3 <- 44        -0.00020
       3 <- 48         0.00075
       3 <- 52         0.00088
       4 <-  9         0.00606
       4 <- 18         0.00241
       4 <- 23        -0.00030
       4 <- 29         0.00218
       4 <- 31        -0.00175
       4 <- 44         0.00020
       4 <- 48        -0.00128
       4 <- 52        -0.00048
       5 <- 27        -0.00146
       5 <- 38         0.00153
       5 <- 46         0.00179
       6 <-  9        -0.02209
       6 <- 13         0.00233
       6 <- 18        -0.00301
       6 <- 23         0.00011
       6 <- 29        -0.00265
       6 <- 31         0.00248
       6 <- 37        -0.00245
       6 <- 44        -0.00211
       6 <- 48         0.00449
       6 <- 52         0.00067
       7 <- 10         0.00276
       7 <- 11         0.00476
       7 <- 14         0.00222
       7 <- 16         0.00187
       7 <- 17         0.01397
       7 <- 20         0.00710
       7 <- 21        -0.00639
       7 <- 24         0.00572
       7 <- 26         0.00299
       7 <- 28         0.00053
       7 <- 32        -0.00103
       7 <- 34         0.00140
       7 <- 36        -0.00259
       7 <- 39         0.00040
       7 <- 41        -0.00100
       7 <- 43         0.00080
       7 <- 45         0.00397
       7 <- 47         0.00233
       7 <- 51         0.00083
       7 <- 54         0.00107
       8 <- 27         0.00192
       8 <- 38         0.00071
       8 <- 46         0.00582

 Excited State   4:      Singlet-A1     7.2502 eV  171.01 nm  f=0.1310  <S**2>=0.000
       3 -> 10         0.00609
       3 -> 11         0.01507
       3 -> 14         0.00816
       3 -> 16        -0.00060
       3 -> 17         0.02413
       3 -> 20         0.00038
       3 -> 21        -0.00552
       3 -> 24         0.00609
       3 -> 26         0.00822
       3 -> 28         0.00083
       3 -> 32         0.00304
       3 -> 34        -0.00390
       3 -> 36        -0.00165
       3 -> 39         0.00138
       3 -> 41         0.00018
       3 -> 43         0.00062
       3 -> 45         0.00178
       3 -> 47         0.00098
       3 -> 51         0.00026
       3 -> 54         0.00030
       4 -> 10         0.02578
       4 -> 11        -0.01094
       4 -> 14         0.01552
       4 -> 16         0.00187
       4 -> 17        -0.00716
       4 -> 20         0.00966
       4 -> 24        -0.00768
       4 -> 26         0.00624
       4 -> 28         0.00098
       4 -> 32        -0.00125
       4 -> 34         0.00305
       4 -> 36         0.00066
       4 -> 39        -0.00021
       4 -> 41         0.00010
       4 -> 43        -0.00012
       4 -> 45        -0.00064
       4 -> 47        -0.00161
       4 -> 51        -0.00011
       5 -> 12         0.03059
       5 -> 15         0.02969
       5 -> 19         0.00234
       5 -> 22         0.00270
       5 -> 25         0.01330
       5 -> 30        -0.00281
       5 -> 33        -0.00328
       5 -> 35         0.00182
       5 -> 40         0.00165
       5 -> 42         0.00072
       5 -> 49         0.00062
       5 -> 50        -0.00046
       5 -> 53        -0.00033
       6 -> 10        -0.03839
       6 -> 11        -0.06375
       6 -> 14        -0.02705
       6 -> 16        -0.03654
       6 -> 17        -0.10405
       6 -> 20        -0.03627
       6 -> 21         0.02883
       6 -> 24        -0.02514
       6 -> 26        -0.01311
       6 -> 28        -0.01109
       6 -> 32        -0.00017
       6 -> 34        -0.00304
       6 -> 36         0.00222
       6 -> 39         0.00016
       6 -> 41        -0.00096
       6 -> 43         0.00043
       6 -> 45         0.00061
       6 -> 47         0.00177
       6 -> 51         0.00075
       6 -> 54        -0.00028
       7 ->  9         0.68375
       7 -> 13         0.02234
       7 -> 18        -0.02733
       7 -> 23         0.00646
       7 -> 29        -0.00501
       7 -> 31        -0.00170
       7 -> 37         0.00013
       7 -> 44        -0.00088
       7 -> 48         0.00060
       7 -> 52         0.00100
       8 -> 12         0.01155
       8 -> 15         0.13217
       8 -> 19        -0.02670
       8 -> 22        -0.04699
       8 -> 25         0.00338
       8 -> 30        -0.01525
       8 -> 33         0.00550
       8 -> 35        -0.00682
       8 -> 40        -0.00273
       8 -> 42        -0.00037
       8 -> 49         0.00066
       8 -> 50         0.00038
       8 -> 53        -0.00101
       3 <- 10         0.00322
       3 <- 11         0.00891
       3 <- 14         0.00561
       3 <- 16         0.00029
       3 <- 17         0.01544
       3 <- 20         0.00051
       3 <- 21        -0.00464
       3 <- 24         0.00416
       3 <- 26         0.00530
       3 <- 28         0.00067
       3 <- 32         0.00272
       3 <- 34        -0.00251
       3 <- 36        -0.00112
       3 <- 39         0.00105
       3 <- 41         0.00015
       3 <- 43         0.00062
       3 <- 45         0.00182
       3 <- 47         0.00124
       3 <- 51         0.00025
       3 <- 54         0.00033
       4 <- 10         0.01027
       4 <- 11        -0.00506
       4 <- 14         0.00662
       4 <- 16         0.00051
       4 <- 17        -0.00410
       4 <- 20         0.00585
       4 <- 21         0.00012
       4 <- 24        -0.00452
       4 <- 26         0.00433
       4 <- 28         0.00010
       4 <- 32        -0.00164
       4 <- 34         0.00242
       4 <- 36         0.00037
       4 <- 39        -0.00022
       4 <- 41        -0.00010
       4 <- 43        -0.00012
       4 <- 45        -0.00014
       4 <- 47        -0.00145
       5 <- 12         0.00911
       5 <- 15         0.01124
       5 <- 19         0.00134
       5 <- 22         0.00136
       5 <- 25         0.00752
       5 <- 30        -0.00161
       5 <- 33        -0.00233
       5 <- 35         0.00146
       5 <- 40         0.00138
       5 <- 42         0.00055
       5 <- 49         0.00052
       5 <- 50        -0.00042
       5 <- 53        -0.00028
       6 <- 10        -0.00780
       6 <- 11        -0.01392
       6 <- 14        -0.00793
       6 <- 16        -0.01290
       6 <- 17        -0.03781
       6 <- 20        -0.01601
       6 <- 21         0.01388
       6 <- 24        -0.01346
       6 <- 26        -0.00758
       6 <- 28        -0.00686
       6 <- 32         0.00022
       6 <- 34        -0.00271
       6 <- 36         0.00150
       6 <- 39         0.00034
       6 <- 41        -0.00063
       6 <- 43         0.00037
       6 <- 45         0.00018
       6 <- 47         0.00143
       6 <- 51         0.00055
       6 <- 54        -0.00019
       7 <-  9        -0.10102
       7 <- 13         0.01225
       7 <- 18        -0.01477
       7 <- 23         0.00721
       7 <- 29        -0.00592
       7 <- 31        -0.00022
       7 <- 37        -0.00021
       7 <- 44        -0.00035
       7 <- 52         0.00082
       8 <- 12         0.00041
       8 <- 15         0.02693
       8 <- 19        -0.00731
       8 <- 22        -0.01941
       8 <- 25         0.00102
       8 <- 30        -0.00951
       8 <- 33         0.00368
       8 <- 35        -0.00473
       8 <- 40        -0.00210
       8 <- 42        -0.00029
       8 <- 49         0.00044
       8 <- 50         0.00029
       8 <- 53        -0.00088

 Excited State   5:      Singlet-B2     7.5843 eV  163.47 nm  f=0.0280  <S**2>=0.000
       3 -> 12        -0.00038
       3 -> 15        -0.00146
       3 -> 19         0.00172
       3 -> 22         0.00056
       3 -> 25        -0.00024
       3 -> 30         0.00317
       3 -> 33         0.00019
       3 -> 35        -0.00099
       3 -> 40        -0.00079
       3 -> 49         0.00094
       3 -> 50        -0.00016
       4 -> 12         0.00199
       4 -> 15         0.00086
       4 -> 19         0.00093
       4 -> 22        -0.00148
       4 -> 25         0.00231
       4 -> 30        -0.00168
       4 -> 33         0.00048
       4 -> 35        -0.00064
       4 -> 49         0.00016
       5 -> 10        -0.00151
       5 -> 11         0.00053
       5 -> 14         0.01112
       5 -> 16        -0.00566
       5 -> 17        -0.00087
       5 -> 20        -0.00397
       5 -> 21        -0.00383
       5 -> 24        -0.00062
       5 -> 26         0.00199
       5 -> 28         0.00149
       5 -> 32         0.00043
       5 -> 34        -0.00058
       5 -> 36        -0.00065
       5 -> 39         0.00065
       5 -> 41        -0.00057
       5 -> 43         0.00027
       5 -> 45         0.00093
       5 -> 47         0.00027
       5 -> 51        -0.00048
       6 -> 12        -0.00230
       6 -> 15        -0.00074
       6 -> 19        -0.00083
       6 -> 22         0.00088
       6 -> 25         0.00016
       6 -> 30         0.00131
       6 -> 33        -0.00051
       6 -> 35         0.00151
       6 -> 40         0.00133
       6 -> 42         0.00013
       6 -> 49        -0.00156
       6 -> 50         0.00018
       6 -> 53         0.00015
       7 -> 27         0.00056
       7 -> 38        -0.00069
       7 -> 46        -0.00256
       8 -> 10         0.05343
       8 -> 11         0.70293
       8 -> 14         0.01031
       8 -> 16         0.01150
       8 -> 17         0.05071
       8 -> 20        -0.00957
       8 -> 21         0.00073
       8 -> 24         0.00234
       8 -> 26         0.00046
       8 -> 28         0.00389
       8 -> 32         0.00019
       8 -> 34        -0.00031
       8 -> 36        -0.00062
       8 -> 39        -0.00024
       8 -> 41        -0.00086
       8 -> 43         0.00041
       8 -> 45         0.00317
       8 -> 47         0.00040
       8 -> 51        -0.00145
       8 -> 54         0.00020
       3 <- 12         0.00033
       3 <- 15        -0.00050
       3 <- 19         0.00124
       3 <- 30         0.00160
       3 <- 33         0.00029
       3 <- 35        -0.00091
       3 <- 40        -0.00073

 The electronic state is 1-A1.
 Alpha  occ. eigenvalues --  -19.16231 -10.30522  -0.99259  -0.67181  -0.49076
 Alpha  occ. eigenvalues --   -0.44172  -0.36666  -0.28924
 Alpha virt. eigenvalues --   -0.10765   0.00187   0.03272   0.04164   0.06228
 Alpha virt. eigenvalues --    0.11982   0.16015   0.18871   0.20931   0.21770
 Alpha virt. eigenvalues --    0.23710   0.30197   0.41191   0.43550   0.50956

 Mulliken charges:
               1
     1  C   -0.019502
     2  H    0.151433
     3  H    0.151433
     4  O   -0.283364
 Sum of Mulliken charges =   0.00000

 Dipole moment (field-independent basis, Debye):
    X=             -0.0000    Y=              0.0000    Z=             -3.1934  Tot=              3.1934
 Quadrupole moment (field-independent basis, Debye-Ang):
   XX=            -12.2637   YY=            -11.7584   ZZ=            -11.9388
   XY=              0.0000   XZ=              0.0000   YZ=              0.0000

 Normal termination of Gaussian 16 at Fri Sep 17 10:52:51 2021.
