 Gaussian 16, Revision C.01,
 Gaussian 16:  ES64L-G16RevC.01  3-Jul-2019

 ----------------------------------------
 #P wB97XD/6-311+G* NoSymm #P Field=X+252
 ----------------------------------------

 -------
 TitleMe
 -------
 Symbolic Z-matrix:
 Charge =  1 Multiplicity = 1

                          Input orientation:
 ---------------------------------------------------------------------
 Center     Atomic      Atomic             Coordinates (Angstroms)
 Number     Number       Type             X           Y           Z
 ---------------------------------------------------------------------
      1          6           0        0.029500    1.339700    0.068200
      2          6           0        1.434800    1.286700    0.006400
      3          6           0        2.111800    0.051100   -0.005400
      4          6           0        1.445100   -1.137200    0.031200
      5          6           0       -0.687900    0.168200    0.110000
      6          1           0       -0.471300    2.298400    0.078100
      7          1           0        2.027300    2.196500   -0.032200
      8          1           0        1.989700   -2.076400    0.023200
      9          1           0       -1.771600    0.180400    0.158200
     10          7           0        3.586400    0.051000   -0.067500
     11          8           0        4.147100   -1.059700   -0.088100
     12          8           0        4.145000    1.163900   -0.090100
     13          6           0       -0.023600   -1.145800    0.083500
     14          1           0       -0.436700   -1.872500    0.788900
     15         35           0       -0.535900   -1.869700   -1.740800
 ---------------------------------------------------------------------

 SCF Done:  E(RwB97XD) =  -3010.58165989     A.U. after   21 cycles

 Alpha  occ. eigenvalues -- -483.33351 -62.88326 -56.68054 -56.67444 -56.67426
 Alpha  occ. eigenvalues --  -19.58539 -19.58446 -14.97597 -10.63377 -10.62279
 Alpha  occ. eigenvalues --  -10.61495 -10.60544 -10.59484 -10.55634  -9.04095
 Alpha  occ. eigenvalues --   -6.86861  -6.84868  -6.84807  -2.96743  -2.96228
 Alpha  occ. eigenvalues --   -2.96178  -2.94584  -2.94584  -1.62241  -1.45355
 Alpha  occ. eigenvalues --   -1.27394  -1.19168  -1.15469  -1.08690  -1.06528
 Alpha  occ. eigenvalues --   -0.99170  -0.97102  -0.93867  -0.92017  -0.90604
 Alpha  occ. eigenvalues --   -0.86331  -0.83441  -0.81319  -0.79713  -0.76001
 Alpha  occ. eigenvalues --   -0.72260  -0.70988  -0.69910  -0.69507  -0.68619
 Alpha  occ. eigenvalues --   -0.67477  -0.63248  -0.57705  -0.57262
 Alpha virt. eigenvalues --   -0.32866  -0.31926  -0.19632  -0.19529  -0.17194
 Alpha virt. eigenvalues --   -0.15649  -0.14151  -0.12876  -0.11880  -0.09947
 Alpha virt. eigenvalues --   -0.08166  -0.07553  -0.06344  -0.05953  -0.05094

 Mulliken charges:
               1
     1  C   -0.630821
     2  C    0.581213
     3  C   -0.747441
     4  C    0.123535
     5  C    0.096205
     6  H    0.386033
     7  H    0.319793
     8  H    0.338368
     9  H    0.454593
    10  N   -0.109473
    11  O   -0.083049
    12  O   -0.085950
    13  C   -0.415571
    14  H    0.446590
    15  Br   0.325974
 Sum of Mulliken charges =   1.00000

 Dipole moment (field-independent basis, Debye):
    X=             -8.6702    Y=             -1.5193    Z=             -0.6900  Tot=              8.8293
 Quadrupole moment (field-independent basis, Debye-Ang):
   XX=            -90.8758   YY=            -51.2190   ZZ=            -60.8080
   XY=              2.4162   XZ=              3.1218   YZ=              3.5296

 Normal termination of Gaussian 16 at Wed May  1 14:49:36 2024.
