 Gaussian 16, Revision C.01,
 Gaussian 16:  ES64L-G16RevC.01  3-Jul-2019

 ----------------------------------------
 #P wB97XD/6-311+G* NoSymm #P Field=Y-116
 ----------------------------------------

 -------
 TitleMe
 -------
 Symbolic Z-matrix:
 Charge =  1 Multiplicity = 1

                          Input orientation:
 ---------------------------------------------------------------------
 Center     Atomic      Atomic             Coordinates (Angstroms)
 Number     Number       Type             X           Y           Z
 ---------------------------------------------------------------------
      1          6           0        0.519300    1.233000   -0.031900
      2          6           0        1.944500    1.269200   -0.036700
      3          6           0        2.620400    0.092800   -0.025000
      4          6           0       -0.196000    0.030100    0.001000
      5          1           0       -0.020700    2.174200   -0.043400
      6          1           0        2.482800    2.208900   -0.036100
      7          1           0       -1.277700    0.039900    0.011700
      8          7           0        4.092100    0.095900    0.036600
      9          8           0        4.639300   -1.021700    0.144600
     10          8           0        4.664900    1.198400   -0.023300
     11          6           0        0.494300   -1.167100    0.021000
     12          1           0       -0.032500   -2.114900    0.054500
     13          6           0        1.962900   -1.216500   -0.021100
     14          1           0        2.443600   -1.963100    0.615100
     15         35           0        2.173000   -1.949100   -1.906200
 ---------------------------------------------------------------------

 SCF Done:  E(RwB97XD) =  -3010.53554104     A.U. after   21 cycles

 Alpha  occ. eigenvalues -- -483.32896 -62.87938 -56.67607 -56.67068 -56.67065
 Alpha  occ. eigenvalues --  -19.46445 -19.46221 -14.85746 -10.59612 -10.59456
 Alpha  occ. eigenvalues --  -10.58107 -10.57098 -10.53254 -10.53152  -9.03758
 Alpha  occ. eigenvalues --   -6.86371  -6.84597  -6.84588  -2.96291  -2.95818
 Alpha  occ. eigenvalues --   -2.95809  -2.94389  -2.94389  -1.50010  -1.32966
 Alpha  occ. eigenvalues --   -1.23093  -1.13572  -1.12974  -1.05876  -1.00884
 Alpha  occ. eigenvalues --   -0.95912  -0.90979  -0.85348  -0.81196  -0.80651
 Alpha  occ. eigenvalues --   -0.80230  -0.78444  -0.76321  -0.76047  -0.72740
 Alpha  occ. eigenvalues --   -0.68964  -0.67743  -0.63892  -0.60907  -0.58418
 Alpha  occ. eigenvalues --   -0.57632  -0.57041  -0.55981  -0.55473
 Alpha virt. eigenvalues --   -0.30797  -0.20549  -0.17042  -0.13717  -0.12463
 Alpha virt. eigenvalues --   -0.09028  -0.08402  -0.06607  -0.05078  -0.04268
 Alpha virt. eigenvalues --   -0.03854  -0.03277  -0.02780  -0.02298  -0.01322

 Mulliken charges:
               1
     1  C   -0.116379
     2  C    0.199356
     3  C   -0.055524
     4  C   -0.304518
     5  H    0.391961
     6  H    0.392673
     7  H    0.334193
     8  N   -0.235938
     9  O    0.025138
    10  O    0.136832
    11  C   -0.208889
    12  H    0.313412
    13  C   -0.353134
    14  H    0.382745
    15  Br   0.098072
 Sum of Mulliken charges =   1.00000

 Dipole moment (field-independent basis, Debye):
    X=              2.6089    Y=              2.5013    Z=             -0.2938  Tot=              3.6262
 Quadrupole moment (field-independent basis, Debye-Ang):
   XX=            -68.0283   YY=            -53.0853   ZZ=            -63.4402
   XY=              4.1267   XZ=             -1.5652   YZ=              0.6567

 Normal termination of Gaussian 16 at Thu May  2 14:20:11 2024.
