 Gaussian 16, Revision A.03,
 Gaussian 16:  ES64L-G16RevA.03 25-Dec-2016

 --------------------------------------------------------------------
 #p B3LYP/6-311+G** #p TD=(singlets,nstates=30)IOp(6/8=3) IOp(9/40=4)
 --------------------------------------------------------------------

 ------------------------------
 Scan Step 34, Bond Length 0.67
 ------------------------------
 Symbolic Z-matrix:
 Charge =  0 Multiplicity = 1

                         Standard orientation:
 ---------------------------------------------------------------------
 Center     Atomic      Atomic             Coordinates (Angstroms)
 Number     Number       Type             X           Y           Z
 ---------------------------------------------------------------------
      1          6           0        0.000000   -0.000000   -0.261081
      2          1           0        0.000000    0.937260   -0.852431
      3          1           0       -0.000000   -0.937260   -0.852431
      4          8           0        0.000000    0.000000    0.408919
 ---------------------------------------------------------------------

 SCF Done:  E(RB3LYP) =  -112.701640539     A.U. after   10 cycles

 Excitation energies and oscillator strengths:

 Excited State   1:      Singlet-B2     4.8144 eV  257.53 nm  f=0.1250  <S**2>=0.000
       3 -> 11         0.00075
       3 -> 16         0.00064
       3 -> 19         0.00076
       3 -> 22         0.00047
       3 -> 24        -0.00101
       3 -> 29         0.00020
       3 -> 32        -0.00019
       3 -> 40        -0.00023
       3 -> 43         0.00021
       3 -> 50        -0.00010
       3 -> 53         0.00015
       4 ->  9        -0.00286
       4 -> 12         0.00294
       4 -> 13         0.00349
       4 -> 15         0.00151
       4 -> 18         0.00275
       4 -> 20         0.00205
       4 -> 21         0.00170
       4 -> 25         0.00145
       4 -> 26        -0.00077
       4 -> 30         0.00070
       4 -> 31         0.00154
       4 -> 33         0.00026
       4 -> 38        -0.00066
       4 -> 42        -0.00049
       4 -> 44        -0.00030
       4 -> 47        -0.00077
       4 -> 49         0.00015
       4 -> 51        -0.00010
       5 -> 28         0.00182
       5 -> 35         0.00081
       5 -> 45         0.00079
       6 -> 11        -0.00526
       6 -> 16         0.00350
       6 -> 19         0.00054
       6 -> 22        -0.00079
       6 -> 24        -0.00466
       6 -> 29         0.00070
       6 -> 32        -0.00073
       6 -> 37         0.00020
       6 -> 43         0.00016
       6 -> 46         0.00034
       7 -> 11         0.00824
       7 -> 16         0.00351
       7 -> 19         0.00298
       7 -> 24        -0.00056
       7 -> 29        -0.00110
       7 -> 32         0.00087
       7 -> 37        -0.00071
       7 -> 43        -0.00042
       7 -> 46         0.00041
       7 -> 50         0.00043
       7 -> 53        -0.00011
       8 ->  9         0.70526
       8 -> 12        -0.00028
       8 -> 13         0.04876
       8 -> 15        -0.00635
       8 -> 18        -0.02211
       8 -> 20         0.00544
       8 -> 21         0.01030
       8 -> 25        -0.00022
       8 -> 26        -0.00040
       8 -> 30        -0.00309
       8 -> 31        -0.00206
       8 -> 33        -0.00102
       8 -> 38        -0.00112
       8 -> 42        -0.00075
       8 -> 44         0.00033
       8 -> 47         0.00076
       8 -> 49        -0.00028
       8 -> 51         0.00011
       3 <- 11         0.00032
       3 <- 16         0.00030
       3 <- 19         0.00049
       3 <- 22         0.00037
       3 <- 24        -0.00076
       3 <- 29         0.00016
       3 <- 32        -0.00020
       3 <- 40        -0.00023
       3 <- 43         0.00021
       3 <- 53         0.00016
       4 <-  9        -0.00127
       4 <- 12        -0.00022
       4 <- 13         0.00287
       4 <- 15         0.00178
       4 <- 18         0.00054
       4 <- 20         0.00119
       4 <- 21         0.00132
       4 <- 25         0.00118
       4 <- 26        -0.00132
       4 <- 30         0.00055
       4 <- 31         0.00064
       4 <- 33         0.00022
       4 <- 38        -0.00042
       4 <- 39         0.00015
       4 <- 42        -0.00040
       4 <- 44        -0.00024
       4 <- 47        -0.00069
       5 <- 28         0.00152
       5 <- 35         0.00066
       5 <- 45         0.00067
       6 <- 11        -0.00095
       6 <- 16         0.00309
       6 <- 19         0.00078
       6 <- 24        -0.00342
       6 <- 29         0.00023
       6 <- 32        -0.00064
       6 <- 37         0.00026
       6 <- 43         0.00011
       6 <- 46         0.00031
       6 <- 50         0.00017
       7 <- 11         0.00177
       7 <- 16         0.00148
       7 <- 19         0.00029
       7 <- 24         0.00012
       7 <- 29        -0.00159
       7 <- 32         0.00070
       7 <- 37        -0.00043
       7 <- 43        -0.00029
       7 <- 46         0.00043
       7 <- 50         0.00049
       8 <-  9        -0.00873
       8 <- 12        -0.00547
       8 <- 13         0.02042
       8 <- 15         0.00627
       8 <- 18         0.00137
       8 <- 20         0.00057
       8 <- 21         0.00526
       8 <- 25         0.00307
       8 <- 30        -0.00204
       8 <- 31        -0.00138
       8 <- 33        -0.00137
       8 <- 38        -0.00107
       8 <- 42        -0.00063
       8 <- 47         0.00065
       8 <- 49        -0.00019
 This state for optimization and/or second-order correction.
 Total Energy, E(TD-HF/TD-DFT) =  -112.524713244
 Copying the excited state density for this state as the 1-particle RhoCI density.

 Excited State   2:      Singlet-A2     5.1413 eV  241.16 nm  f=0.0000  <S**2>=0.000
       3 -> 28        -0.00186
       3 -> 35        -0.00115
       3 -> 45        -0.00041
       4 -> 10        -0.00089
       4 -> 14         0.00081
       4 -> 17        -0.00358
       4 -> 23         0.00159
       4 -> 27        -0.00220
       4 -> 36        -0.00147
       4 -> 41        -0.00015
       4 -> 48        -0.00013
       4 -> 52        -0.00027
       5 -> 11         0.00028
       5 -> 16        -0.00015
       5 -> 19         0.00035
       5 -> 22        -0.00091
       5 -> 24        -0.00023
       5 -> 29         0.00023
       5 -> 32        -0.00011
       5 -> 37        -0.00033
       5 -> 40         0.00010
       5 -> 43        -0.00038
       5 -> 46        -0.00035
       5 -> 50         0.00019
       6 -> 28        -0.00325
       6 -> 35         0.00048
       7 -> 28         0.00150
       7 -> 35        -0.00033
       7 -> 45        -0.00045
       8 -> 10         0.70611
       8 -> 14        -0.02584
       8 -> 17         0.02793
       8 -> 23         0.00306
       8 -> 27         0.00150
       8 -> 34         0.00322
       8 -> 36        -0.00190
       8 -> 41         0.00027
       8 -> 48         0.00014
       8 -> 52         0.00037
       3 <- 28        -0.00153
       3 <- 35        -0.00099
       3 <- 45        -0.00039
       4 <- 10        -0.00018
       4 <- 14         0.00068
       4 <- 17        -0.00076
       4 <- 23         0.00012
       4 <- 27        -0.00038
       4 <- 34         0.00075
       4 <- 36        -0.00082
       4 <- 41        -0.00023
       5 <- 11         0.00060
       5 <- 16        -0.00057
       5 <- 19         0.00148
       5 <- 22        -0.00132
       5 <- 24        -0.00114
       5 <- 29         0.00131
       5 <- 32         0.00022
       5 <- 37        -0.00074
       5 <- 43        -0.00043
       5 <- 46        -0.00036
       5 <- 53        -0.00025
       6 <- 28        -0.00316
       6 <- 35         0.00062
       7 <- 28         0.00156
       7 <- 35        -0.00042
       7 <- 45        -0.00045
       8 <- 10         0.00146
       8 <- 14         0.00513
       8 <- 17        -0.00623
       8 <- 23         0.00019
       8 <- 27        -0.00053
       8 <- 34         0.00309
       8 <- 36        -0.00152
       8 <- 41         0.00018
       8 <- 52         0.00013

 Excited State   3:      Singlet-B2     5.7583 eV  215.31 nm  f=0.0340  <S**2>=0.000
       3 -> 11        -0.00015
       3 -> 16         0.00046
       3 -> 19        -0.00029
       3 -> 22         0.00030
       3 -> 24        -0.00033
       3 -> 29        -0.00039
       3 -> 32         0.00013
       3 -> 37        -0.00021
       3 -> 40         0.00010
       3 -> 43        -0.00021
       3 -> 46         0.00014
       3 -> 50         0.00011
       3 -> 53        -0.00017
       4 ->  9         0.00176
       4 -> 12         0.00032
       4 -> 13         0.00124
       4 -> 15         0.00244
       4 -> 18        -0.00133
       4 -> 20        -0.00050
       4 -> 21         0.00121
       4 -> 25         0.00085
       4 -> 26         0.00057
       4 -> 30        -0.00217
       4 -> 31        -0.00053
       4 -> 38         0.00025
       4 -> 39        -0.00096
       4 -> 42         0.00031
       4 -> 47         0.00052
       5 -> 28        -0.00099
       5 -> 35        -0.00122
       5 -> 45        -0.00069
       6 -> 11        -0.00052
       6 -> 16         0.00372
       6 -> 19        -0.00171
       6 -> 24        -0.00198
       6 -> 29         0.00183
       6 -> 32         0.00041
       6 -> 37         0.00060
       6 -> 40         0.00043
       6 -> 43         0.00030
       6 -> 46        -0.00030
       6 -> 50        -0.00024
       6 -> 53         0.00014
       7 -> 11        -0.00213
       7 -> 16        -0.00423
       7 -> 19        -0.00124
       7 -> 22         0.00068
       7 -> 24         0.00313
       7 -> 29        -0.00098
       7 -> 32        -0.00046
       7 -> 37         0.00056
       7 -> 43         0.00017
       7 -> 46        -0.00057
       7 -> 50        -0.00030
       7 -> 53         0.00014
       8 ->  9        -0.00116
       8 -> 12         0.70571
       8 -> 13         0.03186
       8 -> 15         0.02705
       8 -> 18         0.00822
       8 -> 20         0.01580
       8 -> 21         0.00533
       8 -> 25        -0.00089
       8 -> 26         0.00177
       8 -> 30        -0.00258
       8 -> 31         0.00046
       8 -> 33        -0.00024
       8 -> 38        -0.00039
       8 -> 39         0.00142
       8 -> 42        -0.00086
       8 -> 47        -0.00043
       8 -> 49         0.00011
       8 -> 54        -0.00015
       3 <- 16         0.00045
       3 <- 22         0.00015
       3 <- 24        -0.00038
       3 <- 29        -0.00023
       3 <- 32         0.00013
       3 <- 37        -0.00022
       3 <- 43        -0.00019
       3 <- 46         0.00011
       3 <- 53        -0.00022
       4 <-  9        -0.00119
       4 <- 12        -0.00015
       4 <- 13         0.00128
       4 <- 15         0.00069
       4 <- 18         0.00061
       4 <- 20        -0.00043
       4 <- 21         0.00083
       4 <- 25         0.00097
       4 <- 26         0.00062
       4 <- 30        -0.00144
       4 <- 33        -0.00059
       4 <- 38         0.00017
       4 <- 39        -0.00072
       4 <- 42         0.00033
       4 <- 47         0.00048
       5 <- 28        -0.00059
       5 <- 35        -0.00105
       5 <- 45        -0.00061
       6 <- 11        -0.00043
       6 <- 16         0.00077
       6 <- 19         0.00034
       6 <- 22        -0.00059
       6 <- 24        -0.00161
       6 <- 29         0.00137
       6 <- 32         0.00058
       6 <- 37         0.00058
       6 <- 40         0.00037
       6 <- 43         0.00020
       6 <- 46        -0.00025
       6 <- 50        -0.00018
       7 <- 16        -0.00140
       7 <- 19        -0.00058
       7 <- 22         0.00044
       7 <- 24         0.00177
       7 <- 29        -0.00019
       7 <- 32        -0.00037
       7 <- 37         0.00020
       7 <- 43         0.00010
       7 <- 46        -0.00051
       7 <- 50        -0.00038
       8 <-  9        -0.00502
       8 <- 12         0.00107
       8 <- 13         0.01104
       8 <- 15         0.00428
       8 <- 18        -0.00117
       8 <- 20        -0.00302
       8 <- 21         0.00332
       8 <- 25         0.00065
       8 <- 30        -0.00221
       8 <- 31         0.00042
       8 <- 33        -0.00011
       8 <- 38        -0.00021
       8 <- 39         0.00123
       8 <- 42        -0.00075
       8 <- 47        -0.00035

 Excited State   4:      Singlet-A1     5.9292 eV  209.11 nm  f=0.0086  <S**2>=0.000
       3 ->  9         0.00127
       3 -> 12        -0.00049
       3 -> 13         0.00020
       3 -> 15        -0.00071
       3 -> 18        -0.00150
       3 -> 20        -0.00011
       3 -> 21         0.00078
       3 -> 25        -0.00062
       3 -> 26        -0.00029
       3 -> 30         0.00071
       3 -> 31        -0.00075
       3 -> 33         0.00041
       3 -> 38         0.00035
       3 -> 39         0.00033
       3 -> 47        -0.00012
       3 -> 51         0.00019
       3 -> 54        -0.00013
       4 -> 11        -0.00614
       4 -> 16        -0.00637
       4 -> 19        -0.00465
       4 -> 22        -0.00238
       4 -> 24         0.00327
       4 -> 29         0.00025
       4 -> 37        -0.00103
       4 -> 40        -0.00012
       4 -> 43         0.00026
       4 -> 50         0.00019
       5 -> 10        -0.00350
       5 -> 14        -0.00348
       5 -> 17        -0.00289
       5 -> 23        -0.00342
       5 -> 27        -0.00092
       5 -> 34        -0.00088
       5 -> 36        -0.00059
       5 -> 41        -0.00012
       5 -> 48         0.00022
       6 ->  9         0.01142
       6 -> 12         0.00632
       6 -> 13        -0.00417
       6 -> 15        -0.00421
       6 -> 18        -0.00713
       6 -> 20         0.00472
       6 -> 21         0.00118
       6 -> 25        -0.00575
       6 -> 26         0.00088
       6 -> 30        -0.00034
       6 -> 31         0.00148
       6 -> 33         0.00197
       6 -> 38         0.00120
       6 -> 39        -0.00114
       6 -> 42         0.00013
       6 -> 44         0.00059
       6 -> 49         0.00045
       7 ->  9         0.00707
       7 -> 12        -0.01212
       7 -> 13         0.00131
       7 -> 15         0.00499
       7 -> 18        -0.00702
       7 -> 20        -0.00372
       7 -> 21        -0.00058
       7 -> 25         0.00179
       7 -> 26        -0.00288
       7 -> 30        -0.00061
       7 -> 31        -0.00180
       7 -> 33         0.00013
       7 -> 38        -0.00065
       7 -> 39         0.00055
       7 -> 42        -0.00013
       7 -> 44        -0.00034
       7 -> 51        -0.00017
       8 -> 11         0.70475
       8 -> 16         0.05240
       8 -> 19        -0.01909
       8 -> 22        -0.00057
       8 -> 24        -0.00658
       8 -> 29        -0.00391
       8 -> 32         0.00195
       8 -> 37        -0.00325
       8 -> 40        -0.00038
       8 -> 43         0.00184
       8 -> 46        -0.00090
       8 -> 50         0.00018
       3 <-  9         0.00069
       3 <- 12        -0.00024
       3 <- 13         0.00016
       3 <- 15        -0.00044
       3 <- 18        -0.00095
       3 <- 21         0.00051
       3 <- 25        -0.00049
       3 <- 26        -0.00023
       3 <- 30         0.00053
       3 <- 31        -0.00050
       3 <- 33         0.00036
       3 <- 38         0.00027
       3 <- 39         0.00027
       3 <- 47        -0.00015
       3 <- 51         0.00016
       3 <- 54        -0.00012
       4 <- 11        -0.00250
       4 <- 16        -0.00260
       4 <- 19        -0.00265
       4 <- 22        -0.00172
       4 <- 24         0.00178
       4 <- 29         0.00010
       4 <- 32         0.00015
       4 <- 37        -0.00086
       4 <- 40        -0.00011
       4 <- 43         0.00024
       4 <- 50         0.00017
       5 <- 10        -0.00191
       5 <- 14        -0.00198
       5 <- 17        -0.00174
       5 <- 23        -0.00237
       5 <- 27        -0.00067
       5 <- 34        -0.00073
       5 <- 36        -0.00050
       5 <- 48         0.00020
       6 <-  9         0.00811
       6 <- 12         0.00318
       6 <- 13        -0.00327
       6 <- 15        -0.00343
       6 <- 18        -0.00386
       6 <- 20         0.00267
       6 <- 21         0.00161
       6 <- 25        -0.00385
       6 <- 26         0.00054
       6 <- 31         0.00109
       6 <- 33         0.00142
       6 <- 38         0.00120
       6 <- 39        -0.00090
       6 <- 42         0.00012
       6 <- 44         0.00059
       6 <- 49         0.00037
       7 <- 12        -0.00492
       7 <- 13         0.00170
       7 <- 15         0.00349
       7 <- 18        -0.00327
       7 <- 20        -0.00179
       7 <- 21        -0.00078
       7 <- 25         0.00125
       7 <- 26        -0.00186
       7 <- 30        -0.00066
       7 <- 31        -0.00138
       7 <- 38        -0.00060
       7 <- 39         0.00032
       7 <- 44        -0.00035
       7 <- 47         0.00010
       7 <- 51        -0.00016
       8 <- 11        -0.00961
       8 <- 16         0.00505
       8 <- 19        -0.01539
       8 <- 22        -0.00399
       8 <- 24        -0.00257
       8 <- 29        -0.00276
       8 <- 32         0.00175
       8 <- 37        -0.00257
       8 <- 40        -0.00013
       8 <- 43         0.00147
       8 <- 46        -0.00087
       8 <- 50         0.00018

 Excited State   5:      Singlet-A2     8.1394 eV  152.33 nm  f=0.0000  <S**2>=0.000
       3 -> 28         0.00262
       3 -> 35         0.00172
       3 -> 45         0.00059
       4 -> 10         0.00055
       4 -> 14        -0.00748
       4 -> 17         0.00158
       4 -> 23        -0.00342
       4 -> 27         0.00070
       4 -> 34         0.00101
       4 -> 36         0.00265
       4 -> 52         0.00035
       5 -> 16        -0.00055
       5 -> 19        -0.00047
       5 -> 22         0.00144
       5 -> 24         0.00068
       5 -> 32         0.00010
       5 -> 37         0.00046
       5 -> 40        -0.00013
       5 -> 43         0.00063
       5 -> 46         0.00047
       5 -> 50        -0.00013
       5 -> 53         0.00014
       6 -> 28         0.00284
       6 -> 35        -0.00067
       6 -> 45         0.00014
       7 -> 28        -0.00133
       7 -> 35         0.00044
       7 -> 45         0.00055
       8 -> 10         0.02800
       8 -> 14         0.70374
       8 -> 17        -0.05938
       8 -> 23         0.02031
       8 -> 27        -0.00268
       8 -> 34        -0.00283
       8 -> 36         0.00285
       8 -> 52        -0.00042
       3 <- 28         0.00181
       3 <- 35         0.00141
       3 <- 45         0.00064
       4 <- 10         0.00033
       4 <- 14        -0.00074
       4 <- 17         0.00048
       4 <- 23        -0.00020
       4 <- 27         0.00025
       4 <- 34        -0.00065
       4 <- 36         0.00101
       4 <- 41         0.00030
       4 <- 52         0.00012
       5 <- 11         0.00035
       5 <- 16        -0.00022
       5 <- 19        -0.00057
       5 <- 22         0.00185
       5 <- 24         0.00159
       5 <- 29        -0.00042
       5 <- 32        -0.00059
       5 <- 37         0.00120
       5 <- 43         0.00074
       5 <- 46         0.00019
       5 <- 53         0.00031
       6 <- 28         0.00301
       6 <- 35        -0.00054
       7 <- 28        -0.00136
       7 <- 45         0.00035
       8 <- 10         0.00541
       8 <- 14        -0.00340
       8 <- 17         0.00415
       8 <- 23        -0.00077
       8 <- 27         0.00048
       8 <- 34        -0.00309
       8 <- 36         0.00165
       8 <- 41        -0.00021
       8 <- 52        -0.00017

 Excited State   6:      Singlet-B2     8.9905 eV  137.91 nm  f=0.0915  <S**2>=0.000
       3 -> 11         0.00042
       3 -> 16        -0.00077
       3 -> 19         0.00091
       3 -> 22        -0.00046

 The electronic state is 1-A1.
 Alpha  occ. eigenvalues --  -19.19855 -10.32394  -1.31600  -0.79250  -0.76191
 Alpha  occ. eigenvalues --   -0.58071  -0.54411  -0.20444
 Alpha virt. eigenvalues --    0.00773   0.02781   0.04430   0.04669   0.14379
 Alpha virt. eigenvalues --    0.14779   0.17794   0.18486   0.21701   0.23322
 Alpha virt. eigenvalues --    0.27109   0.36573   0.50705   0.57374   0.58353

 Mulliken charges:
               1
     1  C    0.308940
     2  H   -0.099576
     3  H   -0.099576
     4  O   -0.109787
 Sum of Mulliken charges =  -0.00000

 Dipole moment (field-independent basis, Debye):
    X=              0.0000    Y=             -0.0000    Z=              1.1556  Tot=              1.1556
 Quadrupole moment (field-independent basis, Debye-Ang):
   XX=            -10.2157   YY=            -13.6610   ZZ=            -13.6406
   XY=             -0.0000   XZ=             -0.0000   YZ=              0.0000

 Normal termination of Gaussian 16 at Fri Sep 17 10:52:25 2021.
