 Gaussian 16, Revision A.03,
 Gaussian 16:  ES64L-G16RevA.03 25-Dec-2016

 --------------------------------------------------------------------
 #p B3LYP/6-311+G** #p TD=(singlets,nstates=30)IOp(6/8=3) IOp(9/40=4)
 --------------------------------------------------------------------

 ---------------------------------------------
 Scan Step 140, Bond Length 1.2000000000000002
 ---------------------------------------------
 Symbolic Z-matrix:
 Charge =  0 Multiplicity = 1

                         Standard orientation:
 ---------------------------------------------------------------------
 Center     Atomic      Atomic             Coordinates (Angstroms)
 Number     Number       Type             X           Y           Z
 ---------------------------------------------------------------------
      1          6           0        0.000000   -0.000000   -0.526081
      2          1           0        0.000000    0.937260   -1.117431
      3          1           0       -0.000000   -0.937260   -1.117431
      4          8           0        0.000000    0.000000    0.673919
 ---------------------------------------------------------------------

 SCF Done:  E(RB3LYP) =  -114.541746525     A.U. after    9 cycles

 Excitation energies and oscillator strengths:

 Excited State   1:      Singlet-A2     3.9726 eV  312.10 nm  f=0.0000  <S**2>=0.000
       3 -> 27         0.00251
       3 -> 38         0.00212
       3 -> 45         0.00245
       4 -> 27         0.00197
       4 -> 38        -0.00057
       4 -> 45        -0.00128
       5 ->  9         0.02113
       5 -> 13        -0.00346
       5 -> 17         0.00570
       5 -> 23        -0.00036
       5 -> 29         0.00435
       5 -> 31        -0.00237
       5 -> 37         0.00348
       5 -> 44         0.00063
       5 -> 47         0.00015
       5 -> 52         0.00078
       6 -> 38        -0.00082
       6 -> 45         0.00178
       7 -> 12        -0.00062
       7 -> 15         0.00274
       7 -> 18        -0.00272
       7 -> 22         0.00078
       7 -> 25         0.00142
       7 -> 30        -0.00090
       7 -> 33         0.00043
       7 -> 35        -0.00029
       7 -> 40        -0.00026
       7 -> 49         0.00037
       7 -> 50         0.00032
       7 -> 53         0.00046
       8 ->  9         0.70524
       8 -> 13        -0.04552
       8 -> 17         0.02319
       8 -> 23        -0.01051
       8 -> 29         0.00891
       8 -> 31        -0.00270
       8 -> 37        -0.00022
       8 -> 44        -0.00013
       8 -> 47        -0.00024
       8 -> 52         0.00166
       3 <- 27         0.00164
       3 <- 38         0.00177
       3 <- 45         0.00254
       4 <- 27         0.00279
       4 <- 45        -0.00110
       5 <-  9        -0.00038
       5 <- 13        -0.00084
       5 <- 17        -0.00097
       5 <- 23         0.00055
       5 <- 29        -0.00065
       5 <- 31         0.00092
       5 <- 37         0.00165
       5 <- 44         0.00027
       5 <- 47         0.00016
       5 <- 52         0.00021
       6 <- 27         0.00048
       6 <- 38        -0.00074
       6 <- 45         0.00138
       7 <- 12        -0.00081
       7 <- 15        -0.00706
       7 <- 18         0.00014
       7 <- 22         0.00728
       7 <- 25        -0.00019
       7 <- 30         0.00332
       7 <- 33        -0.00133
       7 <- 35        -0.00242
       7 <- 40        -0.00099
       7 <- 42         0.00012
       7 <- 49         0.00018
       7 <- 50         0.00020
       7 <- 53         0.00127
       8 <-  9        -0.02357
       8 <- 13         0.00321
       8 <- 17        -0.00428
       8 <- 23         0.00080
       8 <- 29        -0.00091
       8 <- 31        -0.00091
       8 <- 37        -0.00150
       8 <- 52         0.00048
 This state for optimization and/or second-order correction.
 Total Energy, E(TD-HF/TD-DFT) =  -114.395755580
 Copying the excited state density for this state as the 1-particle RhoCI density.

 Excited State   2:      Singlet-B2     6.8503 eV  180.99 nm  f=0.0315  <S**2>=0.000
       3 -> 12         0.00147
       3 -> 15         0.00072
       3 -> 18         0.00117
       3 -> 22        -0.00031
       3 -> 25         0.00129
       3 -> 30        -0.00010
       3 -> 33         0.00018
       3 -> 35         0.00039
       4 -> 12        -0.00329
       4 -> 15         0.00178
       4 -> 18         0.00211
       4 -> 22        -0.00333
       4 -> 25         0.00341
       4 -> 30         0.00027
       4 -> 33        -0.00054
       4 -> 35        -0.00063
       4 -> 40        -0.00047
       4 -> 42        -0.00011
       5 -> 10        -0.00637
       5 -> 11        -0.00881
       5 -> 14         0.00700
       5 -> 16        -0.00088
       5 -> 19         0.00066
       5 -> 20         0.00204
       5 -> 21         0.00574
       5 -> 26         0.00254
       5 -> 28         0.00128
       5 -> 32         0.00084
       5 -> 34        -0.00101
       5 -> 36        -0.00021
       5 -> 39        -0.00030
       5 -> 41        -0.00033
       5 -> 43        -0.00055
       5 -> 46        -0.00036
       5 -> 54         0.00011
       6 -> 12         0.00017
       6 -> 15         0.00151
       6 -> 18         0.00225
       6 -> 22        -0.00257
       6 -> 25         0.00123
       6 -> 30        -0.00050
       6 -> 33        -0.00021
       6 -> 35        -0.00033
       6 -> 40         0.00015
       6 -> 42        -0.00020
       6 -> 49         0.00047
       6 -> 50        -0.00034
       7 -> 27         0.00021
       7 -> 38        -0.00053
       7 -> 45         0.00046
       8 -> 10         0.70318
       8 -> 11        -0.06933
       8 -> 14         0.01258
       8 -> 16        -0.00654
       8 -> 19         0.01199
       8 -> 20         0.01413
       8 -> 21        -0.00317
       8 -> 24         0.00024
       8 -> 26         0.00234
       8 -> 28         0.00071
       8 -> 32        -0.00098
       8 -> 34         0.00136
       8 -> 36         0.00041
       8 -> 39         0.00039
       8 -> 41        -0.00018
       8 -> 43         0.00063
       8 -> 46        -0.00065
       8 -> 48        -0.00014
       8 -> 54         0.00018
       3 <- 12         0.00036
       3 <- 15         0.00054
       3 <- 18         0.00045
       3 <- 22        -0.00044
       3 <- 25         0.00077
       3 <- 30        -0.00011
       3 <- 33         0.00016
       3 <- 35         0.00035
       3 <- 40         0.00011
       4 <- 12         0.00073
       4 <- 15         0.00189
       4 <- 18         0.00204
       4 <- 22        -0.00205
       4 <- 25         0.00235
       4 <- 30         0.00020
       4 <- 33        -0.00032
       4 <- 35        -0.00036
       4 <- 40        -0.00014
       4 <- 42        -0.00023
       4 <- 50        -0.00012
       5 <- 10         0.00240
       5 <- 11        -0.00025
       5 <- 14         0.00488
       5 <- 16        -0.00077
       5 <- 19         0.00014
       5 <- 20         0.00078
       5 <- 21         0.00216
       5 <- 24         0.00186
       5 <- 26         0.00156
       5 <- 28         0.00020
       5 <- 32         0.00057
       5 <- 34        -0.00098
       5 <- 36        -0.00029
       5 <- 39        -0.00016
       5 <- 41        -0.00014
       5 <- 43        -0.00041
       5 <- 46        -0.00032
       6 <- 12         0.00013
       6 <- 18         0.00123
       6 <- 22        -0.00075
       6 <- 25         0.00043
       6 <- 30         0.00030
       6 <- 33        -0.00027
       6 <- 35        -0.00044
       6 <- 40         0.00015
       6 <- 42        -0.00019
       6 <- 49         0.00039
       6 <- 50        -0.00035
       6 <- 53         0.00014
       7 <- 27         0.00018
       7 <- 38        -0.00040
       7 <- 45         0.00041
       8 <- 10        -0.00185
       8 <- 11        -0.00052
       8 <- 14        -0.00570
       8 <- 16        -0.00036
       8 <- 19        -0.00018
       8 <- 20        -0.00054
       8 <- 21        -0.00200
       8 <- 24        -0.00235
       8 <- 26        -0.00063
       8 <- 28        -0.00059
       8 <- 32        -0.00110
       8 <- 34         0.00037
       8 <- 36         0.00037
       8 <- 39         0.00031
       8 <- 43         0.00043
       8 <- 46        -0.00042

 Excited State   3:      Singlet-B2     7.6362 eV  162.36 nm  f=0.0251  <S**2>=0.000
       3 -> 12        -0.00030
       3 -> 15        -0.00078
       3 -> 18         0.00084
       3 -> 22         0.00041
       3 -> 25         0.00016
       3 -> 30         0.00209
       3 -> 33         0.00013
       3 -> 35         0.00046
       3 -> 40         0.00043
       3 -> 49         0.00045
       3 -> 50        -0.00023
       4 -> 12         0.00277
       4 -> 18         0.00246
       4 -> 22        -0.00150
       4 -> 25         0.00302
       4 -> 30        -0.00123
       4 -> 33         0.00050
       4 -> 35         0.00053
       4 -> 42        -0.00013
       4 -> 49         0.00024
       5 -> 10        -0.00721
       5 -> 14         0.00842
       5 -> 16        -0.00712
       5 -> 19        -0.00241
       5 -> 20        -0.00445
       5 -> 21         0.00148
       5 -> 24         0.00114
       5 -> 26         0.00091
       5 -> 28         0.00162
       5 -> 32         0.00020
       5 -> 34        -0.00116
       5 -> 36        -0.00024
       5 -> 39         0.00041
       5 -> 41        -0.00075
       5 -> 43         0.00013
       5 -> 46         0.00088
       5 -> 51        -0.00041
       6 -> 12        -0.00310
       6 -> 15        -0.00177
       6 -> 18        -0.00092
       6 -> 22         0.00130
       6 -> 25         0.00015
       6 -> 30         0.00097
       6 -> 33        -0.00053
       6 -> 35        -0.00149
       6 -> 40        -0.00103
       6 -> 49        -0.00110
       6 -> 50         0.00046
       6 -> 53         0.00011
       7 -> 38        -0.00094
       7 -> 45        -0.00175
       8 -> 10         0.06978
       8 -> 11         0.70273
       8 -> 14        -0.00642
       8 -> 16         0.01106
       8 -> 19        -0.02966
       8 -> 20         0.00696
       8 -> 21        -0.00281
       8 -> 24         0.00043
       8 -> 26        -0.00135
       8 -> 28         0.00103
       8 -> 32        -0.00023
       8 -> 34        -0.00019
       8 -> 36        -0.00011
       8 -> 39        -0.00021
       8 -> 41        -0.00124
       8 -> 43         0.00030
       8 -> 46         0.00189
       8 -> 48         0.00011
       8 -> 51        -0.00095
       8 -> 54        -0.00011
       3 <- 12         0.00034
       3 <- 15        -0.00025
       3 <- 18         0.00090
       3 <- 25         0.00031
       3 <- 30         0.00118
       3 <- 33         0.00024
       3 <- 35         0.00051
       3 <- 40         0.00039
       3 <- 49         0.00038
       3 <- 50        -0.00015
       3 <- 53        -0.00028
       4 <- 12         0.00034
       4 <- 15         0.00074
       4 <- 18         0.00060
       4 <- 22        -0.00115
       4 <- 25         0.00126
       4 <- 30        -0.00059
       4 <- 33         0.00046
       4 <- 35         0.00019
       4 <- 42        -0.00014
       4 <- 49         0.00018
       4 <- 50        -0.00012
       5 <- 10         0.00126
       5 <- 11        -0.00117
       5 <- 14         0.00258
       5 <- 16        -0.00043
       5 <- 19         0.00108
       5 <- 20        -0.00045
       5 <- 21         0.00076
       5 <- 24         0.00134
       5 <- 28         0.00072
       5 <- 32         0.00105
       5 <- 34        -0.00017
       5 <- 36         0.00016
       5 <- 39         0.00011
       5 <- 41        -0.00078
       5 <- 46         0.00082
       5 <- 48         0.00014
       5 <- 51        -0.00031
       6 <- 12        -0.00031
       6 <- 15        -0.00069
       6 <- 18         0.00011
       6 <- 22         0.00070
       6 <- 25        -0.00011
       6 <- 30         0.00072
       6 <- 33        -0.00039
       6 <- 35        -0.00121
       6 <- 40        -0.00078
       6 <- 49        -0.00090
       6 <- 50         0.00037
       7 <- 27         0.00020
       7 <- 38        -0.00075
       7 <- 45        -0.00147
       8 <- 10        -0.00070
       8 <- 11        -0.00084
       8 <- 14        -0.00372
       8 <- 16         0.00046
       8 <- 19         0.00418
       8 <- 20        -0.00096
       8 <- 21        -0.00202
       8 <- 24         0.00036
       8 <- 26        -0.00168
       8 <- 28         0.00029
       8 <- 32         0.00114
       8 <- 34         0.00133
       8 <- 39        -0.00054
       8 <- 41        -0.00109
       8 <- 43         0.00015
       8 <- 46         0.00151
       8 <- 48         0.00024
       8 <- 51        -0.00065

 Excited State   4:      Singlet-A1     7.8325 eV  158.30 nm  f=0.0488  <S**2>=0.000
       3 -> 10         0.00195
       3 -> 11        -0.00080
       3 -> 14         0.00094
       3 -> 16        -0.00014
       3 -> 19        -0.00033
       3 -> 20         0.00193
       3 -> 21         0.00086
       3 -> 24        -0.00068
       3 -> 26         0.00121
       3 -> 28         0.00093
       3 -> 34        -0.00066
       3 -> 36        -0.00019
       3 -> 41        -0.00021
       3 -> 46         0.00015
       3 -> 48         0.00031
       3 -> 51        -0.00020
       3 -> 54        -0.00019
       4 -> 10         0.00482
       4 -> 11         0.00559
       4 -> 14         0.00481
       4 -> 16         0.00044
       4 -> 19         0.00024
       4 -> 20         0.00387
       4 -> 21         0.00052
       4 -> 24         0.00710
       4 -> 26         0.00177
       4 -> 28        -0.00037
       4 -> 32         0.00064
       4 -> 43         0.00016
       4 -> 46        -0.00021
       4 -> 51        -0.00015
       5 -> 12         0.00617
       5 -> 15         0.00240
       5 -> 18         0.01029
       5 -> 22        -0.00228
       5 -> 25         0.00537
       5 -> 30        -0.00019
       5 -> 33        -0.00017
       5 -> 35        -0.00076
       5 -> 50         0.00023
       5 -> 53        -0.00013
       6 -> 10         0.01205
       6 -> 11        -0.00254
       6 -> 14         0.00437
       6 -> 16         0.00077
       6 -> 19         0.00217
       6 -> 20         0.00379
       6 -> 21         0.00039
       6 -> 24         0.00374
       6 -> 28        -0.00190
       6 -> 32         0.00041
       6 -> 39         0.00013
       6 -> 43         0.00014
       6 -> 48        -0.00067
       6 -> 51         0.00020
       6 -> 54        -0.00011
       7 ->  9         0.02012
       7 -> 13         0.01074
       7 -> 17         0.00228
       7 -> 23         0.00522
       7 -> 29        -0.00059
       7 -> 31        -0.00091
       7 -> 37         0.00058
       7 -> 44         0.00065
       7 -> 47        -0.00034
       7 -> 52        -0.00011
       8 -> 12         0.70574
       8 -> 15        -0.00668
       8 -> 18         0.03018
       8 -> 22         0.00408
       8 -> 25         0.00387
       8 -> 33         0.00159
       8 -> 35         0.00197
       8 -> 40        -0.00056
       8 -> 42         0.00018
       8 -> 49        -0.00044
       8 -> 50         0.00028
       8 -> 53        -0.00023
       3 <- 10         0.00062
       3 <- 14         0.00050
       3 <- 19        -0.00033
       3 <- 20         0.00088
       3 <- 21         0.00059
       3 <- 24        -0.00013
       3 <- 26         0.00079
       3 <- 28         0.00062
       3 <- 32        -0.00021
       3 <- 34        -0.00045
       3 <- 36        -0.00014
       3 <- 41        -0.00014
       3 <- 46         0.00023
       3 <- 48         0.00025
       3 <- 51        -0.00017
       3 <- 54        -0.00017
       4 <- 10         0.00420
       4 <- 11         0.00127
       4 <- 14         0.00355
       4 <- 16        -0.00014
       4 <- 20         0.00223
       4 <- 24         0.00385
       4 <- 26         0.00110
       4 <- 32         0.00078
       4 <- 34        -0.00041
       4 <- 39        -0.00015
       4 <- 43         0.00012
       4 <- 46        -0.00017
       4 <- 51        -0.00014
       5 <- 12         0.00272
       5 <- 15         0.00263
       5 <- 18         0.00361
       5 <- 22        -0.00082
       5 <- 25         0.00291
       5 <- 30        -0.00015
       5 <- 33        -0.00034
       5 <- 35        -0.00069
       5 <- 50         0.00014
       5 <- 53        -0.00011
       6 <- 10         0.00295
       6 <- 14         0.00168
       6 <- 16         0.00021
       6 <- 19         0.00057
       6 <- 20         0.00176
       6 <- 24         0.00184
       6 <- 26         0.00017
       6 <- 28        -0.00123
       6 <- 32         0.00041
       6 <- 34        -0.00013
       6 <- 41         0.00012
       6 <- 46        -0.00013
       6 <- 48        -0.00055
       6 <- 51         0.00024
       7 <-  9         0.00013
       7 <- 13         0.00236
       7 <- 17         0.00045
       7 <- 23         0.00263
       7 <- 29        -0.00048
       7 <- 31        -0.00062
       7 <- 37         0.00045
       7 <- 44         0.00054
       7 <- 47        -0.00029
       8 <- 12        -0.00081
       8 <- 15        -0.00541
       8 <- 18        -0.00180
       8 <- 22         0.00065
       8 <- 25        -0.00166
       8 <- 30        -0.00069
       8 <- 33         0.00067
       8 <- 35         0.00083
       8 <- 40        -0.00057
       8 <- 42         0.00017
       8 <- 49        -0.00045
       8 <- 50         0.00019
       8 <- 53        -0.00024

 Excited State   5:      Singlet-A2     8.3397 eV  148.67 nm  f=0.0000  <S**2>=0.000
       3 -> 27        -0.00045
       3 -> 38        -0.00040
       3 -> 45        -0.00022
       4 -> 27         0.00019
       4 -> 38         0.00048
       5 ->  9        -0.00574
       5 -> 13        -0.00462
       5 -> 17         0.00660
       5 -> 23        -0.00202
       5 -> 29        -0.00016
       5 -> 31         0.00143
       5 -> 37        -0.00094
       5 -> 44        -0.00019
       6 -> 27         0.00023
       6 -> 38         0.00029
       6 -> 45        -0.00022
       7 -> 12        -0.00023
       7 -> 15        -0.00188
       7 -> 18         0.00201
       7 -> 22        -0.00070
       7 -> 35         0.00013
       7 -> 40         0.00010
       8 ->  9         0.04517
       8 -> 13         0.70510
       8 -> 17         0.02001
       8 -> 23         0.01673
       8 -> 29         0.00021
       8 -> 31         0.00160
       8 -> 37        -0.00034
       8 -> 47         0.00017
       3 <- 27        -0.00013
       3 <- 38        -0.00025
       3 <- 45        -0.00029
       4 <- 27        -0.00011
       5 <-  9        -0.00033
       5 <- 13        -0.00033
       5 <- 17         0.00052
       5 <- 37        -0.00020
       6 <- 38         0.00019
       7 <- 12        -0.00060
       7 <- 15        -0.00101
       7 <- 18         0.00075
       7 <- 22        -0.00094
       7 <- 25        -0.00042
       7 <- 30         0.00022
       7 <- 33         0.00037
       7 <- 35         0.00059
       7 <- 40         0.00036
       8 <-  9         0.00170
       8 <- 13         0.00130
       8 <- 17         0.00024
       8 <- 23        -0.00015
       8 <- 37         0.00013

 Excited State   6:      Singlet-B1     9.1245 eV  135.88 nm  f=0.0009  <S**2>=0.000
       3 ->  9        -0.03259
       3 -> 13         0.00622
       3 -> 17        -0.00742
       3 -> 23         0.00463
       3 -> 29        -0.00299
       3 -> 44         0.00073
       3 -> 52         0.00112
       4 ->  9         0.01698
       4 -> 13        -0.00282
       4 -> 17         0.00108
       4 -> 23        -0.00247
       4 -> 29        -0.00011
       4 -> 31        -0.00282
       4 -> 37        -0.00032
       4 -> 44        -0.00015
       4 -> 47        -0.00168
       4 -> 52        -0.00101
       5 -> 27        -0.00193
       5 -> 38         0.00228
       5 -> 45         0.00344

 The electronic state is 1-A1.
 Alpha  occ. eigenvalues --  -19.15092 -10.27861  -1.07783  -0.64511  -0.50730
 Alpha  occ. eigenvalues --   -0.46529  -0.41489  -0.28174
 Alpha virt. eigenvalues --   -0.06383   0.00786   0.03931   0.04264   0.06479
 Alpha virt. eigenvalues --    0.12939   0.17839   0.18568   0.21980   0.23194
 Alpha virt. eigenvalues --    0.26931   0.32922   0.45665   0.46573   0.50939

 Mulliken charges:
               1
     1  C    0.019425
     2  H    0.110986
     3  H    0.110986
     4  O   -0.241396
 Sum of Mulliken charges =  -0.00000

 Dipole moment (field-independent basis, Debye):
    X=             -0.0000    Y=             -0.0000    Z=             -2.4694  Tot=              2.4694
 Quadrupole moment (field-independent basis, Debye-Ang):
   XX=            -11.7431   YY=            -11.7427   ZZ=            -12.4465
   XY=              0.0000   XZ=              0.0000   YZ=              0.0000

 Normal termination of Gaussian 16 at Fri Sep 17 10:52:42 2021.
