 Gaussian 16, Revision C.01,
 Gaussian 16:  ES64L-G16RevC.01  3-Jul-2019

 ---------------------------------------
 #P wB97XD/6-311+G* NoSymm #P Field=Z+97
 ---------------------------------------

 -------
 TitleMe
 -------
 Symbolic Z-matrix:
 Charge =  1 Multiplicity = 1

                          Input orientation:
 ---------------------------------------------------------------------
 Center     Atomic      Atomic             Coordinates (Angstroms)
 Number     Number       Type             X           Y           Z
 ---------------------------------------------------------------------
      1          6           0        0.029500    1.339700    0.068200
      2          6           0        1.434800    1.286700    0.006400
      3          6           0        2.111800    0.051100   -0.005400
      4          6           0        1.445100   -1.137200    0.031200
      5          6           0       -0.687900    0.168200    0.110000
      6          1           0       -0.471300    2.298400    0.078100
      7          1           0        2.027300    2.196500   -0.032200
      8          1           0        1.989700   -2.076400    0.023200
      9          1           0       -1.771600    0.180400    0.158200
     10          7           0        3.586400    0.051000   -0.067500
     11          8           0        4.147100   -1.059700   -0.088100
     12          8           0        4.145000    1.163900   -0.090100
     13          6           0       -0.023600   -1.145800    0.083500
     14          1           0       -0.436700   -1.872500    0.788900
     15         35           0       -0.535900   -1.869700   -1.740800
 ---------------------------------------------------------------------

 SCF Done:  E(RwB97XD) =  -3010.53863004     A.U. after   18 cycles

 Alpha  occ. eigenvalues -- -483.29646 -62.84647 -56.64365 -56.63758 -56.63756
 Alpha  occ. eigenvalues --  -19.45293 -19.45229 -14.84796 -10.57380 -10.56768
 Alpha  occ. eigenvalues --  -10.56525 -10.56316 -10.56099 -10.52347  -9.00437
 Alpha  occ. eigenvalues --   -6.83182  -6.81202  -6.81188  -2.93070  -2.92545
 Alpha  occ. eigenvalues --   -2.92533  -2.90950  -2.90950  -1.49060  -1.32038
 Alpha  occ. eigenvalues --   -1.21907  -1.13188  -1.11033  -1.03020  -1.00405
 Alpha  occ. eigenvalues --   -0.94700  -0.90284  -0.84680  -0.80162  -0.79978
 Alpha  occ. eigenvalues --   -0.79377  -0.77703  -0.75491  -0.75270  -0.71347
 Alpha  occ. eigenvalues --   -0.68660  -0.66888  -0.62665  -0.59168  -0.56504
 Alpha  occ. eigenvalues --   -0.55581  -0.55058  -0.54481  -0.53649
 Alpha virt. eigenvalues --   -0.28755  -0.20726  -0.14667  -0.12633  -0.09772
 Alpha virt. eigenvalues --   -0.07002  -0.06704  -0.05343  -0.03444  -0.03156
 Alpha virt. eigenvalues --   -0.02304  -0.01086  -0.00603   0.00151   0.01246

 Mulliken charges:
               1
     1  C   -0.559834
     2  C    0.481669
     3  C   -0.704304
     4  C    0.272237
     5  C   -0.028348
     6  H    0.331504
     7  H    0.366277
     8  H    0.371643
     9  H    0.347718
    10  N   -0.109494
    11  O    0.031629
    12  O    0.028867
    13  C   -0.463965
    14  H    0.369867
    15  Br   0.264533
 Sum of Mulliken charges =   1.00000

 Dipole moment (field-independent basis, Debye):
    X=             -1.0660    Y=             -0.9581    Z=             -1.7052  Tot=              2.2275
 Quadrupole moment (field-independent basis, Debye-Ang):
   XX=            -71.5890   YY=            -51.4939   ZZ=            -60.8901
   XY=              1.5729   XZ=              0.3329   YZ=              3.0945

 Normal termination of Gaussian 16 at Wed May  1 15:26:29 2024.
