 Gaussian 16, Revision C.01,
 Gaussian 16:  ES64L-G16RevC.01  3-Jul-2019

 ----------------------------------------
 #P wB97XD/6-311+G* NoSymm #P Field=X+155
 ----------------------------------------

 -------
 TitleMe
 -------
 Symbolic Z-matrix:
 Charge =  1 Multiplicity = 1

                          Input orientation:
 ---------------------------------------------------------------------
 Center     Atomic      Atomic             Coordinates (Angstroms)
 Number     Number       Type             X           Y           Z
 ---------------------------------------------------------------------
      1          6           0        0.029500    1.339700    0.068200
      2          6           0        1.434800    1.286700    0.006400
      3          6           0        2.111800    0.051100   -0.005400
      4          6           0        1.445100   -1.137200    0.031200
      5          6           0       -0.687900    0.168200    0.110000
      6          1           0       -0.471300    2.298400    0.078100
      7          1           0        2.027300    2.196500   -0.032200
      8          1           0        1.989700   -2.076400    0.023200
      9          1           0       -1.771600    0.180400    0.158200
     10          7           0        3.586400    0.051000   -0.067500
     11          8           0        4.147100   -1.059700   -0.088100
     12          8           0        4.145000    1.163900   -0.090100
     13          6           0       -0.023600   -1.145800    0.083500
     14          1           0       -0.436700   -1.872500    0.788900
     15         35           0       -0.535900   -1.869700   -1.740800
 ---------------------------------------------------------------------

 SCF Done:  E(RwB97XD) =  -3010.55463056     A.U. after   19 cycles

 Alpha  occ. eigenvalues -- -483.32284 -62.87283 -56.66997 -56.66399 -56.66390
 Alpha  occ. eigenvalues --  -19.53649 -19.53565 -14.92904 -10.60838 -10.60042
 Alpha  occ. eigenvalues --  -10.59866 -10.59476 -10.58239 -10.54367  -9.03069
 Alpha  occ. eigenvalues --   -6.85803  -6.83848  -6.83817  -2.95694  -2.95180
 Alpha  occ. eigenvalues --   -2.95153  -2.93590  -2.93590  -1.57371  -1.40436
 Alpha  occ. eigenvalues --   -1.25254  -1.16942  -1.13879  -1.06340  -1.04790
 Alpha  occ. eigenvalues --   -0.97564  -0.94056  -0.90615  -0.87286  -0.85770
 Alpha  occ. eigenvalues --   -0.84436  -0.81417  -0.80034  -0.78018  -0.74377
 Alpha  occ. eigenvalues --   -0.70919  -0.69477  -0.65954  -0.64877  -0.64597
 Alpha  occ. eigenvalues --   -0.63627  -0.61812  -0.57009  -0.56353
 Alpha virt. eigenvalues --   -0.31428  -0.27543  -0.17622  -0.16017  -0.13142
 Alpha virt. eigenvalues --   -0.10283  -0.09635  -0.08213  -0.08031  -0.06008
 Alpha virt. eigenvalues --   -0.04606  -0.04353  -0.03771  -0.02408  -0.02125

 Mulliken charges:
               1
     1  C   -0.613724
     2  C    0.563944
     3  C   -0.747724
     4  C    0.198839
     5  C    0.057384
     6  H    0.366042
     7  H    0.337782
     8  H    0.351330
     9  H    0.416769
    10  N   -0.103820
    11  O   -0.038492
    12  O   -0.041650
    13  C   -0.440067
    14  H    0.429839
    15  Br   0.263547
 Sum of Mulliken charges =   1.00000

 Dipole moment (field-independent basis, Debye):
    X=             -5.5337    Y=             -1.1335    Z=             -0.4141  Tot=              5.6637
 Quadrupole moment (field-independent basis, Debye-Ang):
   XX=            -82.6520   YY=            -51.5198   ZZ=            -61.5113
   XY=              2.0013   XZ=              2.3150   YZ=              2.7684

 Normal termination of Gaussian 16 at Wed May  1 14:46:34 2024.
