 Gaussian 16, Revision C.01,
 Gaussian 16:  ES64L-G16RevC.01  3-Jul-2019

 --------------------------------------
 #P wB97XD/6-311+G* NoSymm #P Field=X-9
 --------------------------------------

 -------
 TitleMe
 -------
 Symbolic Z-matrix:
 Charge =  1 Multiplicity = 1

                          Input orientation:
 ---------------------------------------------------------------------
 Center     Atomic      Atomic             Coordinates (Angstroms)
 Number     Number       Type             X           Y           Z
 ---------------------------------------------------------------------
      1          6           0        0.029500    1.339700    0.068200
      2          6           0        1.434800    1.286700    0.006400
      3          6           0        2.111800    0.051100   -0.005400
      4          6           0        1.445100   -1.137200    0.031200
      5          6           0       -0.687900    0.168200    0.110000
      6          1           0       -0.471300    2.298400    0.078100
      7          1           0        2.027300    2.196500   -0.032200
      8          1           0        1.989700   -2.076400    0.023200
      9          1           0       -1.771600    0.180400    0.158200
     10          7           0        3.586400    0.051000   -0.067500
     11          8           0        4.147100   -1.059700   -0.088100
     12          8           0        4.145000    1.163900   -0.090100
     13          6           0       -0.023600   -1.145800    0.083500
     14          1           0       -0.436700   -1.872500    0.788900
     15         35           0       -0.535900   -1.869700   -1.740800
 ---------------------------------------------------------------------

 SCF Done:  E(RwB97XD) =  -3010.53509717     A.U. after   19 cycles

 Alpha  occ. eigenvalues -- -483.31020 -62.86048 -56.65737 -56.65170 -56.65168
 Alpha  occ. eigenvalues --  -19.45200 -19.45128 -14.84715 -10.58023 -10.57142
 Alpha  occ. eigenvalues --  -10.56747 -10.56590 -10.56427 -10.52642  -9.01857
 Alpha  occ. eigenvalues --   -6.84522  -6.82668  -6.82654  -2.94430  -2.93937
 Alpha  occ. eigenvalues --   -2.93924  -2.92441  -2.92441  -1.48967  -1.31936
 Alpha  occ. eigenvalues --   -1.22271  -1.13687  -1.11390  -1.04118  -1.00567
 Alpha  occ. eigenvalues --   -0.95101  -0.90548  -0.84805  -0.80280  -0.80173
 Alpha  occ. eigenvalues --   -0.79365  -0.77933  -0.75589  -0.75414  -0.71940
 Alpha  occ. eigenvalues --   -0.69010  -0.67192  -0.63319  -0.59811  -0.56557
 Alpha  occ. eigenvalues --   -0.56104  -0.55453  -0.55002  -0.54864
 Alpha virt. eigenvalues --   -0.29287  -0.20758  -0.15339  -0.12940  -0.08536
 Alpha virt. eigenvalues --   -0.05956  -0.05430  -0.04464  -0.04445  -0.02844
 Alpha virt. eigenvalues --   -0.02182  -0.02044  -0.01230  -0.00823   0.00538

 Mulliken charges:
               1
     1  C   -0.574923
     2  C    0.513641
     3  C   -0.713746
     4  C    0.290823
     5  C    0.001384
     6  H    0.332024
     7  H    0.367897
     8  H    0.375050
     9  H    0.346741
    10  N   -0.107444
    11  O    0.035116
    12  O    0.031979
    13  C   -0.471296
    14  H    0.402481
    15  Br   0.170273
 Sum of Mulliken charges =   1.00000

 Dipole moment (field-independent basis, Debye):
    X=             -0.5603    Y=             -0.5563    Z=              0.0019  Tot=              0.7896
 Quadrupole moment (field-independent basis, Debye-Ang):
   XX=            -70.6238   YY=            -52.0187   ZZ=            -62.6853
   XY=              1.2563   XZ=              1.0421   YZ=              1.5997

 Normal termination of Gaussian 16 at Wed May  1 14:46:31 2024.
