 Gaussian 16, Revision A.03,
 Gaussian 16:  ES64L-G16RevA.03 25-Dec-2016

 --------------------------------------------------------------------
 #p B3LYP/6-311+G** #p TD=(singlets,nstates=30)IOp(6/8=3) IOp(9/40=4)
 --------------------------------------------------------------------

 --------------------------------
 Scan Step 247, Bond Length 1.735
 --------------------------------
 Symbolic Z-matrix:
 Charge =  0 Multiplicity = 1

                         Standard orientation:
 ---------------------------------------------------------------------
 Center     Atomic      Atomic             Coordinates (Angstroms)
 Number     Number       Type             X           Y           Z
 ---------------------------------------------------------------------
      1          6           0        0.000000   -0.000000   -0.793581
      2          1           0        0.000000    0.937260   -1.384931
      3          1           0       -0.000000   -0.937260   -1.384931
      4          8           0        0.000000    0.000000    0.941419
 ---------------------------------------------------------------------

 SCF Done:  E(RB3LYP) =  -114.378737248     A.U. after   11 cycles

 Excitation energies and oscillator strengths:

 Excited State   1:      Singlet-A2     1.5406 eV  804.78 nm  f=0.0000  <S**2>=0.000
       3 -> 27         0.00088
       3 -> 38         0.00059
       3 -> 46         0.00336
       4 -> 27         0.00050
       4 -> 46        -0.00111
       5 ->  9         0.00367
       5 -> 13         0.00110
       5 -> 18         0.00213
       5 -> 23         0.00151
       5 -> 28         0.00175
       5 -> 37         0.00096
       5 -> 44         0.00026
       5 -> 52         0.00023
       6 -> 27        -0.00061
       6 -> 38        -0.00065
       6 -> 46         0.00110
       7 -> 12        -0.00112
       7 -> 16         0.00512
       7 -> 19        -0.00442
       7 -> 22        -0.00103
       7 -> 25        -0.00071
       7 -> 29        -0.00177
       7 -> 33         0.00031
       7 -> 49         0.00012
       7 -> 51         0.00011
       7 -> 53         0.00041
       8 ->  9         0.70977
       8 -> 13        -0.00902
       8 -> 18         0.02119
       8 -> 23        -0.00181
       8 -> 28         0.01069
       8 -> 31         0.00149
       8 -> 37         0.00055
       8 -> 48        -0.00031
       8 -> 52         0.00190
       3 <- 27         0.00032
       3 <- 38         0.00035
       3 <- 46         0.00339
       4 <- 27         0.00090
       4 <- 38         0.00022
       4 <- 46        -0.00088
       5 <-  9         0.00010
       5 <- 13        -0.00041
       5 <- 18        -0.00050
       5 <- 23         0.00020
       5 <- 28        -0.00035
       5 <- 31         0.00027
       5 <- 37         0.00055
       6 <- 38        -0.00051
       6 <- 46         0.00083
       7 <- 12         0.00133
       7 <- 16        -0.01045
       7 <- 19         0.00485
       7 <- 22         0.00628
       7 <- 25        -0.00061
       7 <- 29         0.00552
       7 <- 33        -0.00039
       7 <- 35         0.00038
       7 <- 40        -0.00025
       7 <- 42         0.00016
       7 <- 49        -0.00047
       7 <- 53         0.00146
       8 <-  9        -0.06508
       8 <- 18        -0.00730
       8 <- 23        -0.00015
       8 <- 28        -0.00264
       8 <- 31        -0.00074
       8 <- 37        -0.00029
       8 <- 48         0.00012
       8 <- 52         0.00047
 This state for optimization and/or second-order correction.
 Total Energy, E(TD-HF/TD-DFT) =  -114.322121676
 Copying the excited state density for this state as the 1-particle RhoCI density.

 Excited State   2:      Singlet-A1     4.0319 eV  307.51 nm  f=0.0460  <S**2>=0.000
       3 -> 10        -0.01743
       3 -> 11        -0.00569
       3 -> 14         0.00431
       3 -> 15         0.00152
       3 -> 17        -0.00329
       3 -> 20        -0.00388
       3 -> 24         0.00120
       3 -> 26         0.00227
       3 -> 30        -0.00120
       3 -> 32         0.00276
       3 -> 34        -0.00144
       3 -> 36        -0.00115
       3 -> 39         0.00058
       3 -> 43         0.00052
       3 -> 45         0.00064
       3 -> 47         0.00230
       3 -> 50         0.00137
       4 -> 10        -0.00431
       4 -> 11         0.01223
       4 -> 14         0.00292
       4 -> 15        -0.00881
       4 -> 17         0.00264
       4 -> 20         0.00325
       4 -> 21         0.00035
       4 -> 24        -0.00422
       4 -> 26         0.00406
       4 -> 30         0.00075
       4 -> 32        -0.00134
       4 -> 34         0.00107
       4 -> 36         0.00031
       4 -> 41         0.00011
       4 -> 43        -0.00051
       4 -> 45        -0.00081
       4 -> 47        -0.00094
       4 -> 50        -0.00031
       4 -> 54         0.00014
       5 -> 12         0.01244
       5 -> 16         0.00541
       5 -> 19         0.00133
       5 -> 22         0.00738
       5 -> 25        -0.00603
       5 -> 29         0.00023
       5 -> 33        -0.00268
       5 -> 35         0.00278
       5 -> 40        -0.00123
       5 -> 42         0.00084
       5 -> 49         0.00028
       5 -> 51        -0.00079
       6 -> 10         0.22325
       6 -> 11         0.05830
       6 -> 14        -0.06426
       6 -> 15        -0.03358
       6 -> 17        -0.01769
       6 -> 20        -0.00456
       6 -> 21         0.00837
       6 -> 24        -0.01020
       6 -> 26        -0.00453
       6 -> 30        -0.00614
       6 -> 32         0.00244
       6 -> 34        -0.00140
       6 -> 39         0.00113
       6 -> 41        -0.00022
       6 -> 43         0.00086
       6 -> 45         0.00083
       6 -> 47         0.00095
       6 -> 50         0.00070
       6 -> 54        -0.00087
       7 ->  9         0.67960
       7 -> 13        -0.00457
       7 -> 18        -0.01348
       7 -> 23        -0.00177
       7 -> 28         0.00032
       7 -> 31        -0.00323
       7 -> 37         0.00120
       7 -> 44        -0.00100
       7 -> 48         0.00021
       7 -> 52         0.00106
       8 -> 12        -0.00789
       8 -> 16         0.04835
       8 -> 19        -0.02100
       8 -> 22        -0.01768
       8 -> 25        -0.00012
       8 -> 29        -0.00962
       8 -> 33         0.00136
       8 -> 35        -0.00133
       8 -> 40         0.00062
       8 -> 42        -0.00035
       8 -> 49         0.00033
       8 -> 51         0.00018
       8 -> 53        -0.00058
       3 <- 10        -0.01289
       3 <- 11        -0.00459
       3 <- 14         0.00345
       3 <- 15         0.00077
       3 <- 17        -0.00180
       3 <- 20        -0.00312
       3 <- 21        -0.00048
       3 <- 24         0.00056
       3 <- 26         0.00113
       3 <- 30        -0.00068
       3 <- 32         0.00248
       3 <- 34        -0.00082
       3 <- 36        -0.00105
       3 <- 39         0.00054
       3 <- 43         0.00060
       3 <- 45         0.00081
       3 <- 47         0.00234
       3 <- 50         0.00136
       3 <- 54         0.00015
       4 <- 10        -0.00156
       4 <- 11         0.00836
       4 <- 14         0.00185
       4 <- 15        -0.00569
       4 <- 17         0.00149
       4 <- 20         0.00333
       4 <- 21         0.00020
       4 <- 24        -0.00308
       4 <- 26         0.00343
       4 <- 32        -0.00155
       4 <- 34         0.00091
       4 <- 36         0.00060
       4 <- 43        -0.00048
       4 <- 45        -0.00081
       4 <- 47        -0.00059
       4 <- 50        -0.00018
       4 <- 54         0.00011
       5 <- 12         0.00669
       5 <- 16         0.00322
       5 <- 19         0.00100
       5 <- 22         0.00501
       5 <- 25        -0.00446
       5 <- 29         0.00029
       5 <- 33        -0.00217
       5 <- 35         0.00234
       5 <- 40        -0.00110
       5 <- 42         0.00073
       5 <- 49         0.00026
       5 <- 51        -0.00073
       6 <- 10         0.07311
       6 <- 11         0.02173
       6 <- 14        -0.02847
       6 <- 15        -0.01638
       6 <- 17        -0.00982
       6 <- 20        -0.00393
       6 <- 21         0.00539
       6 <- 24        -0.00654
       6 <- 26        -0.00253
       6 <- 30        -0.00430
       6 <- 32         0.00266
       6 <- 34        -0.00162
       6 <- 36        -0.00040
       6 <- 39         0.00109
       6 <- 41        -0.00017
       6 <- 43         0.00071
       6 <- 45         0.00065
       6 <- 47         0.00056
       6 <- 50         0.00055
       6 <- 54        -0.00078
       7 <-  9        -0.12984
       7 <- 13         0.00500
       7 <- 18        -0.01249
       7 <- 23         0.00182
       7 <- 28        -0.00256
       7 <- 31        -0.00157
       7 <- 37         0.00054
       7 <- 44        -0.00071
       7 <- 48        -0.00033
       7 <- 52         0.00095
       8 <- 12        -0.00265
       8 <- 16         0.02124
       8 <- 19        -0.01085
       8 <- 22        -0.01084
       8 <- 29        -0.00741
       8 <- 33         0.00106
       8 <- 35        -0.00105
       8 <- 40         0.00050
       8 <- 42        -0.00028
       8 <- 49         0.00017
       8 <- 51         0.00015
       8 <- 53        -0.00054

 Excited State   3:      Singlet-B1     4.4840 eV  276.50 nm  f=0.0009  <S**2>=0.000
       3 ->  9        -0.02553
       3 -> 13         0.00116
       3 -> 18        -0.00399
       3 -> 23         0.00139
       3 -> 28        -0.00078
       3 -> 31        -0.00055
       3 -> 44         0.00027
       3 -> 48         0.00088
       3 -> 52         0.00084
       4 ->  9         0.01099
       4 -> 13        -0.00237
       4 -> 18         0.00013
       4 -> 23        -0.00212
       4 -> 28         0.00037
       4 -> 31        -0.00134
       4 -> 37        -0.00034
       4 -> 44         0.00011
       4 -> 48        -0.00079
       4 -> 52        -0.00042
       5 -> 27         0.00015
       5 -> 38         0.00190
       5 -> 46         0.00060
       6 ->  9         0.69563
       6 -> 13        -0.01800
       6 -> 18         0.01510
       6 -> 23        -0.01047
       6 -> 28         0.00367
       6 -> 31         0.00271
       6 -> 37        -0.00183
       6 -> 44        -0.00226
       6 -> 48         0.00370
       6 -> 52         0.00119
       7 -> 10         0.12689
       7 -> 11         0.02543
       7 -> 14        -0.02229
       7 -> 15        -0.00648
       7 -> 17        -0.00909
       7 -> 20         0.00347
       7 -> 21         0.00108
       7 -> 24        -0.00165
       7 -> 26        -0.00224
       7 -> 30        -0.00404
       7 -> 32        -0.00020
       7 -> 34        -0.00087
       7 -> 36         0.00158
       7 -> 39         0.00018
       7 -> 41        -0.00029
       7 -> 43         0.00049
       7 -> 45         0.00030
       7 -> 47         0.00381
       7 -> 50         0.00121
       7 -> 54         0.00014
       8 -> 27         0.00019
       8 -> 46         0.00471
       3 <-  9        -0.00862
       3 <- 13        -0.00083
       3 <- 18        -0.00265
       3 <- 23        -0.00061
       3 <- 28        -0.00044
       3 <- 31        -0.00074
       3 <- 37         0.00015
       3 <- 44        -0.00012
       3 <- 48         0.00101
       3 <- 52         0.00071
       4 <-  9         0.00629
       4 <- 13        -0.00042
       4 <- 18         0.00161
       4 <- 23        -0.00075
       4 <- 28         0.00144
       4 <- 31        -0.00091
       4 <- 37        -0.00021
       4 <- 48        -0.00069
       4 <- 52        -0.00023
       5 <- 27        -0.00040
       5 <- 38         0.00161
       5 <- 46         0.00053
       6 <-  9        -0.03185
       6 <- 13         0.00188
       6 <- 18        -0.00397
       6 <- 28        -0.00373
       6 <- 31         0.00064
       6 <- 37        -0.00153
       6 <- 44        -0.00096
       6 <- 48         0.00331
       6 <- 52         0.00026
       7 <- 10        -0.03426
       7 <- 11        -0.01010
       7 <- 14         0.01429
       7 <- 15         0.00942
       7 <- 17         0.00240
       7 <- 20         0.00388
       7 <- 21        -0.00365
       7 <- 24         0.00429
       7 <- 26         0.00171
       7 <- 30         0.00167
       7 <- 32         0.00033
       7 <- 34        -0.00110
       7 <- 36         0.00195
       7 <- 39         0.00055
       7 <- 43         0.00030
       7 <- 47         0.00353
       7 <- 50         0.00123
       7 <- 54         0.00096
       8 <- 27         0.00068
       8 <- 38         0.00015
       8 <- 46         0.00442

 Excited State   4:      Singlet-B2     4.6740 eV  265.27 nm  f=0.0051  <S**2>=0.000
       3 -> 12        -0.00139
       3 -> 16         0.00174
       3 -> 19        -0.00444
       3 -> 22         0.00089
       3 -> 25        -0.00078
       3 -> 29        -0.00306
       3 -> 35         0.00186
       3 -> 40        -0.00164
       3 -> 42         0.00047
       3 -> 49        -0.00348
       3 -> 51         0.00020
       3 -> 53         0.00031
       4 -> 12         0.00045
       4 -> 16        -0.00200
       4 -> 19         0.00043
       4 -> 22         0.00231
       4 -> 25         0.00105
       4 -> 29         0.00122
       4 -> 33        -0.00041
       4 -> 35         0.00049
       4 -> 40         0.00040
       4 -> 49         0.00066
       4 -> 51        -0.00012
       5 -> 10         0.01095
       5 -> 11         0.00263
       5 -> 14        -0.00622
       5 -> 15         0.00405
       5 -> 17        -0.00031
       5 -> 20         0.00212
       5 -> 21         0.00435
       5 -> 24         0.00167
       5 -> 26        -0.00102
       5 -> 30        -0.00198
       5 -> 32        -0.00190
       5 -> 34         0.00062
       5 -> 36        -0.00012
       5 -> 39        -0.00088
       5 -> 41         0.00055
       5 -> 47        -0.00061
       5 -> 50         0.00038
       5 -> 54        -0.00023
       6 -> 12         0.00273
       6 -> 16        -0.00242
       6 -> 19         0.00382
       6 -> 22        -0.00049
       6 -> 25         0.00103
       6 -> 29        -0.00020
       6 -> 35        -0.00166
       6 -> 40         0.00129
       6 -> 42        -0.00064
       6 -> 49         0.00151
       6 -> 53        -0.00044
       7 -> 27        -0.00064
       7 -> 38         0.00053
       7 -> 46         0.00354
       8 -> 10         0.69260
       8 -> 11         0.11029
       8 -> 14        -0.08628
       8 -> 15        -0.03367
       8 -> 17        -0.01625
       8 -> 20         0.00223
       8 -> 21         0.00729
       8 -> 24        -0.00668
       8 -> 26        -0.00521
       8 -> 30        -0.01175
       8 -> 32        -0.00362
       8 -> 34         0.00168
       8 -> 36         0.00072
       8 -> 39        -0.00074
       8 -> 43        -0.00012
       8 -> 45         0.00109
       8 -> 47        -0.00437
       8 -> 50         0.00192
       8 -> 54        -0.00222
       3 <- 12        -0.00050
       3 <- 16         0.00055
       3 <- 19        -0.00213
       3 <- 22         0.00096
       3 <- 25        -0.00070
       3 <- 29        -0.00122
       3 <- 35         0.00134
       3 <- 40        -0.00143
       3 <- 42         0.00037
       3 <- 49        -0.00356
       3 <- 51         0.00018
       3 <- 53         0.00083
       4 <- 16        -0.00200
       4 <- 19         0.00012
       4 <- 22         0.00243
       4 <- 25         0.00065
       4 <- 29         0.00129
       4 <- 33        -0.00046
       4 <- 35         0.00071
       4 <- 40         0.00016
       4 <- 49         0.00047
       5 <- 10        -0.00074
       5 <- 11        -0.00106
       5 <- 14        -0.00070
       5 <- 15         0.00316
       5 <- 17         0.00020
       5 <- 20         0.00074
       5 <- 21         0.00193
       5 <- 24         0.00202
       5 <- 26        -0.00027
       5 <- 30        -0.00043
       5 <- 32        -0.00030
       5 <- 39        -0.00035
       5 <- 41         0.00058
       5 <- 45         0.00031
       5 <- 47        -0.00057
       5 <- 50         0.00020
       6 <- 12        -0.00037
       6 <- 16         0.00691
       6 <- 19        -0.00337
       6 <- 22        -0.00488
       6 <- 25         0.00093
       6 <- 29        -0.00567
       6 <- 33         0.00037
       6 <- 35        -0.00158
       6 <- 40         0.00132
       6 <- 42        -0.00071
       6 <- 49         0.00187
       6 <- 53        -0.00131
       7 <- 27        -0.00062
       7 <- 38         0.00043
       7 <- 46         0.00299
       8 <- 10        -0.03045
       8 <- 11        -0.00913
       8 <- 14         0.00968
       8 <- 15         0.00269
       8 <- 17         0.00113
       8 <- 20        -0.00289
       8 <- 21        -0.00183
       8 <- 24         0.00161
       8 <- 26         0.00161
       8 <- 32         0.00303
       8 <- 34        -0.00107
       8 <- 36        -0.00058
       8 <- 39         0.00140
       8 <- 41         0.00035
       8 <- 43         0.00049
       8 <- 45         0.00186
       8 <- 47        -0.00348
       8 <- 50         0.00133
       8 <- 54        -0.00059

 Excited State   5:      Singlet-B1     5.5816 eV  222.13 nm  f=0.0078  <S**2>=0.000
       3 ->  9        -0.01083
       3 -> 13         0.00057
       3 -> 18        -0.00282
       3 -> 23         0.00076
       3 -> 28        -0.00308
       3 -> 31        -0.00160
       3 -> 37         0.00011
       3 -> 44         0.00040
       3 -> 48        -0.00263
       4 ->  9        -0.03237
       4 -> 13         0.00619
       4 -> 18         0.00122
       4 -> 23         0.00462
       4 -> 28         0.00160
       4 -> 37         0.00033
       4 -> 44        -0.00047
       4 -> 48         0.00069
       4 -> 52         0.00013
       5 -> 27        -0.00695
       5 -> 38        -0.00322
       5 -> 46         0.00038
       6 ->  9        -0.12874
       6 -> 13        -0.00132
       6 -> 18         0.00180
       6 -> 23        -0.00012
       6 -> 28         0.00327
       6 -> 31        -0.00369
       6 -> 37         0.00208
       6 -> 44         0.00033
       6 -> 48         0.00047
       6 -> 52        -0.00063
       7 -> 10         0.68322
       7 -> 11         0.09430
       7 -> 14        -0.07740
       7 -> 15        -0.03945
       7 -> 17        -0.00983
       7 -> 20        -0.00371
       7 -> 21         0.00382
       7 -> 24        -0.00995
       7 -> 26        -0.00690
       7 -> 30        -0.00703
       7 -> 32        -0.00203
       7 -> 34         0.00393
       7 -> 36        -0.00161
       7 -> 39        -0.00064
       7 -> 43         0.00062
       7 -> 45         0.00096
       7 -> 47         0.00161
       7 -> 50         0.00080
       7 -> 54        -0.00152
       8 -> 27         0.00089
       8 -> 38         0.00026
       8 -> 46         0.00192
       3 <-  9        -0.00235
       3 <- 13         0.00065
       3 <- 18        -0.00113
       3 <- 23         0.00059
       3 <- 28        -0.00198
       3 <- 31        -0.00029
       3 <- 37        -0.00020
       3 <- 44         0.00015
       3 <- 48        -0.00279
       3 <- 52         0.00037
       4 <-  9        -0.01202
       4 <- 13         0.00260
       4 <- 18         0.00044
       4 <- 23         0.00250
       4 <- 28         0.00151
       4 <- 31        -0.00013
       4 <- 37         0.00039
       4 <- 44        -0.00068
       4 <- 48         0.00028
       4 <- 52         0.00011
       5 <- 27        -0.00479
       5 <- 38        -0.00253
       5 <- 46         0.00037
       6 <-  9        -0.02734
       6 <- 18        -0.00375
       6 <- 23         0.00045
       6 <- 28        -0.00056
       6 <- 31        -0.00438
       6 <- 37         0.00187
       6 <- 44         0.00051
       6 <- 48         0.00093
       6 <- 52        -0.00118

 The electronic state is 1-A1.
 Alpha  occ. eigenvalues --  -19.17577 -10.33493  -0.90453  -0.70789  -0.49051
 Alpha  occ. eigenvalues --   -0.39999  -0.31564  -0.28827
 Alpha virt. eigenvalues --   -0.16206  -0.04541   0.00260   0.04062   0.06103
 Alpha virt. eigenvalues --    0.07029   0.12094   0.13743   0.18835   0.21169
 Alpha virt. eigenvalues --    0.23982   0.30330   0.38668   0.40127   0.50785

 Mulliken charges:
               1
     1  C   -0.083951
     2  H    0.188310
     3  H    0.188310
     4  O   -0.292670
 Sum of Mulliken charges =  -0.00000

 Dipole moment (field-independent basis, Debye):
    X=             -0.0000    Y=              0.0000    Z=             -4.0173  Tot=              4.0173
 Quadrupole moment (field-independent basis, Debye-Ang):
   XX=            -12.9357   YY=            -11.9791   ZZ=            -10.9145
   XY=              0.0000   XZ=              0.0000   YZ=              0.0000

 Normal termination of Gaussian 16 at Fri Sep 17 10:53:05 2021.
