 Gaussian 16, Revision A.03,
 Gaussian 16:  ES64L-G16RevA.03 25-Dec-2016

 --------------------------------------------------------------------
 #p B3LYP/6-311+G** #p TD=(singlets,nstates=30)IOp(6/8=3) IOp(9/40=4)
 --------------------------------------------------------------------

 --------------------------------
 Scan Step 283, Bond Length 1.915
 --------------------------------
 Symbolic Z-matrix:
 Charge =  0 Multiplicity = 1

                         Standard orientation:
 ---------------------------------------------------------------------
 Center     Atomic      Atomic             Coordinates (Angstroms)
 Number     Number       Type             X           Y           Z
 ---------------------------------------------------------------------
      1          6           0        0.000000    0.000000   -0.883581
      2          1           0        0.000000    0.937260   -1.474931
      3          1           0       -0.000000   -0.937260   -1.474931
      4          8           0        0.000000   -0.000000    1.031419
 ---------------------------------------------------------------------

 SCF Done:  E(RB3LYP) =  -114.320451628     A.U. after   12 cycles

 Excitation energies and oscillator strengths:

 Excited State   1:      Singlet-A2     1.1179 eV 1109.04 nm  f=0.0000  <S**2>=0.000
       3 -> 27         0.00061
       3 -> 38         0.00036
       3 -> 47         0.00330
       4 -> 27         0.00031
       4 -> 47        -0.00084
       5 ->  9         0.00048
       5 -> 13         0.00106
       5 -> 18         0.00141
       5 -> 23         0.00123
       5 -> 28         0.00103
       5 -> 37         0.00061
       5 -> 44         0.00017
       5 -> 52         0.00014
       6 -> 27        -0.00053
       6 -> 38        -0.00050
       6 -> 47         0.00082
       7 -> 12        -0.00140
       7 -> 16         0.00539
       7 -> 19        -0.00489
       7 -> 22        -0.00114
       7 -> 25        -0.00046
       7 -> 30        -0.00202
       7 -> 33         0.00026
       7 -> 49         0.00013
       7 -> 53         0.00036
       8 ->  9         0.71175
       8 -> 13        -0.00542
       8 -> 18         0.02042
       8 -> 23        -0.00046
       8 -> 28         0.00989
       8 -> 31         0.00160
       8 -> 37         0.00046
       8 -> 46        -0.00028
       8 -> 52         0.00181
       3 <- 27         0.00013
       3 <- 38         0.00015
       3 <- 47         0.00332
       4 <- 27         0.00059
       4 <- 38         0.00017
       4 <- 47        -0.00064
       5 <-  9         0.00055
       5 <- 13        -0.00028
       5 <- 18        -0.00030
       5 <- 23         0.00014
       5 <- 28        -0.00024
       5 <- 31         0.00019
       5 <- 37         0.00035
       6 <- 38        -0.00037
       6 <- 47         0.00059
       7 <- 12         0.00215
       7 <- 16        -0.01050
       7 <- 19         0.00610
       7 <- 22         0.00523
       7 <- 25        -0.00063
       7 <- 30         0.00566
       7 <- 33        -0.00033
       7 <- 49        -0.00047
       7 <- 53         0.00144
       8 <-  9        -0.08318
       8 <- 13        -0.00067
       8 <- 18        -0.00798
       8 <- 23        -0.00044
       8 <- 28        -0.00281
       8 <- 31        -0.00085
       8 <- 37        -0.00015
       8 <- 46         0.00013
       8 <- 52         0.00041
 This state for optimization and/or second-order correction.
 Total Energy, E(TD-HF/TD-DFT) =  -114.279368041
 Copying the excited state density for this state as the 1-particle RhoCI density.

 Excited State   2:      Singlet-A1     2.9296 eV  423.21 nm  f=0.0225  <S**2>=0.000
       3 -> 10        -0.01225
       3 -> 11        -0.00215
       3 -> 14         0.00026
       3 -> 17        -0.00289
       3 -> 20        -0.00321
       3 -> 21         0.00066
       3 -> 24         0.00014
       3 -> 26         0.00078
       3 -> 32         0.00262
       3 -> 34         0.00094
       3 -> 36        -0.00089
       3 -> 39        -0.00031
       3 -> 43         0.00045
       3 -> 45        -0.00123
       3 -> 48         0.00231
       3 -> 50         0.00165
       3 -> 54        -0.00013
       4 -> 10        -0.00023
       4 -> 11         0.00916
       4 -> 14         0.00135
       4 -> 15        -0.00701
       4 -> 17         0.00194
       4 -> 20         0.00152
       4 -> 21         0.00020
       4 -> 24        -0.00357
       4 -> 26         0.00274
       4 -> 32        -0.00104
       4 -> 34        -0.00065
       4 -> 39        -0.00027
       4 -> 43        -0.00041
       4 -> 45         0.00074
       4 -> 48        -0.00067
       4 -> 50        -0.00023
       4 -> 54         0.00013
       5 -> 12         0.00796
       5 -> 16         0.00132
       5 -> 19         0.00099
       5 -> 22         0.00625
       5 -> 25        -0.00370
       5 -> 30         0.00033
       5 -> 33        -0.00224
       5 -> 35         0.00269
       5 -> 40        -0.00087
       5 -> 42        -0.00099
       5 -> 51        -0.00090
       6 -> 10         0.26280
       6 -> 11         0.02900
       6 -> 14        -0.03135
       6 -> 15        -0.01859
       6 -> 17        -0.01444
       6 -> 20        -0.00023
       6 -> 21         0.00388
       6 -> 24        -0.00659
       6 -> 26        -0.00239
       6 -> 29        -0.00228
       6 -> 32         0.00474
       6 -> 34         0.00136
       6 -> 36         0.00072
       6 -> 39        -0.00151
       6 -> 43         0.00077
       6 -> 45        -0.00096
       6 -> 48         0.00069
       6 -> 50         0.00045
       6 -> 54        -0.00099
       7 ->  9         0.67338
       7 -> 13        -0.00798
       7 -> 18        -0.00852
       7 -> 23        -0.00303
       7 -> 28         0.00169
       7 -> 31        -0.00330
       7 -> 37         0.00136
       7 -> 44        -0.00095
       7 -> 52         0.00105
       8 -> 12        -0.00701
       8 -> 16         0.02999
       8 -> 19        -0.01675
       8 -> 22        -0.00974
       8 -> 30        -0.00698
       8 -> 33         0.00078
       8 -> 35        -0.00044
       8 -> 40         0.00014
       8 -> 42         0.00017
       8 -> 51         0.00012
       8 -> 53        -0.00047
       3 <- 10        -0.01010
       3 <- 11        -0.00211
       3 <- 14         0.00019
       3 <- 15        -0.00033
       3 <- 17        -0.00171
       3 <- 20        -0.00291
       3 <- 21         0.00023
       3 <- 24        -0.00029
       3 <- 29         0.00033
       3 <- 32         0.00221
       3 <- 34         0.00047
       3 <- 36        -0.00095
       3 <- 39        -0.00024
       3 <- 43         0.00048
       3 <- 45        -0.00133
       3 <- 48         0.00231
       3 <- 50         0.00166
       4 <- 10         0.00099
       4 <- 11         0.00705
       4 <- 14         0.00122
       4 <- 15        -0.00503
       4 <- 17         0.00123
       4 <- 20         0.00212
       4 <- 24        -0.00281
       4 <- 26         0.00251
       4 <- 29        -0.00042
       4 <- 32        -0.00101
       4 <- 34        -0.00055
       4 <- 36         0.00025
       4 <- 39        -0.00032
       4 <- 43        -0.00036
       4 <- 45         0.00066
       4 <- 48        -0.00040
       4 <- 50        -0.00011
       4 <- 54         0.00011
       5 <- 12         0.00516
       5 <- 16         0.00097
       5 <- 19         0.00084
       5 <- 22         0.00469
       5 <- 25        -0.00300
       5 <- 30         0.00034
       5 <- 33        -0.00191
       5 <- 35         0.00237
       5 <- 40        -0.00081
       5 <- 42        -0.00089
       5 <- 51        -0.00085
       6 <- 10         0.09253
       6 <- 11         0.01309
       6 <- 14        -0.01629
       6 <- 15        -0.01062
       6 <- 17        -0.00925
       6 <- 20        -0.00147
       6 <- 21         0.00291
       6 <- 24        -0.00447
       6 <- 26        -0.00106
       6 <- 29        -0.00115
       6 <- 32         0.00443
       6 <- 34         0.00151
       6 <- 36         0.00024
       6 <- 39        -0.00135
       6 <- 43         0.00065
       6 <- 45        -0.00070
       6 <- 48         0.00038
       6 <- 50         0.00031
       6 <- 54        -0.00092
       7 <-  9        -0.12981
       7 <- 13         0.00229
       7 <- 18        -0.01045
       7 <- 23         0.00014
       7 <- 28        -0.00118
       7 <- 31        -0.00157
       7 <- 37         0.00066
       7 <- 44        -0.00084
       7 <- 46        -0.00046
       7 <- 52         0.00098
       8 <- 12        -0.00330
       8 <- 16         0.01648
       8 <- 19        -0.01046
       8 <- 22        -0.00682
       8 <- 25         0.00013
       8 <- 30        -0.00576
       8 <- 33         0.00063
       8 <- 35        -0.00034
       8 <- 40         0.00010
       8 <- 42         0.00013
       8 <- 49        -0.00015
       8 <- 51         0.00010
       8 <- 53        -0.00045

 Excited State   3:      Singlet-B2     3.0242 eV  409.98 nm  f=0.0015  <S**2>=0.000
       3 -> 12        -0.00108
       3 -> 16         0.00097
       3 -> 19        -0.00352
       3 -> 22         0.00112
       3 -> 25        -0.00088
       3 -> 30        -0.00229
       3 -> 33         0.00032
       3 -> 35         0.00113
       3 -> 40        -0.00111
       3 -> 42        -0.00036
       3 -> 49        -0.00402
       3 -> 51         0.00015
       3 -> 53         0.00024
       4 -> 12         0.00033
       4 -> 16        -0.00122
       4 -> 19         0.00029
       4 -> 22         0.00151
       4 -> 25         0.00047
       4 -> 30         0.00072
       4 -> 33        -0.00028
       4 -> 35         0.00040
       4 -> 40         0.00022
       4 -> 49         0.00073
       5 -> 10         0.00912
       5 -> 11         0.00093
       5 -> 14        -0.00240
       5 -> 15         0.00263
       5 -> 17        -0.00053
       5 -> 20         0.00184
       5 -> 21         0.00248
       5 -> 24         0.00128
       5 -> 26        -0.00029
       5 -> 29        -0.00208
       5 -> 32        -0.00076
       5 -> 34        -0.00014
       5 -> 39         0.00054
       5 -> 41         0.00035
       5 -> 48        -0.00030
       5 -> 50         0.00020
       5 -> 54        -0.00017
       6 -> 12         0.00237
       6 -> 16        -0.00287
       6 -> 19         0.00429
       6 -> 22        -0.00068
       6 -> 25         0.00115
       6 -> 30         0.00038
       6 -> 33        -0.00020
       6 -> 35        -0.00104
       6 -> 40         0.00064
       6 -> 42         0.00056
       6 -> 49         0.00102
       6 -> 53        -0.00045
       7 -> 27        -0.00046
       7 -> 38         0.00026
       7 -> 47         0.00274
       8 -> 10         0.70581
       8 -> 11         0.04545
       8 -> 14        -0.04329
       8 -> 15        -0.01843
       8 -> 17        -0.01646
       8 -> 20         0.00644
       8 -> 21         0.00500
       8 -> 24        -0.00516
       8 -> 26        -0.00384
       8 -> 29        -0.01355
       8 -> 32         0.00098
       8 -> 34        -0.00096
       8 -> 36         0.00174
       8 -> 39         0.00031
       8 -> 41        -0.00017
       8 -> 45        -0.00076
       8 -> 48        -0.00336
       8 -> 50         0.00117
       8 -> 54        -0.00250
       3 <- 12        -0.00037
       3 <- 16         0.00036
       3 <- 19        -0.00177
       3 <- 22         0.00089
       3 <- 25        -0.00079
       3 <- 30        -0.00094
       3 <- 33         0.00030
       3 <- 35         0.00071
       3 <- 40        -0.00096
       3 <- 42        -0.00021
       3 <- 49        -0.00407
       3 <- 51         0.00014
       3 <- 53         0.00066
       4 <- 12         0.00012
       4 <- 16        -0.00154
       4 <- 19         0.00019
       4 <- 22         0.00189
       4 <- 25         0.00023
       4 <- 30         0.00100
       4 <- 33        -0.00029
       4 <- 35         0.00056
       4 <- 49         0.00051
       5 <- 10        -0.00095
       5 <- 11        -0.00048
       5 <- 14        -0.00038
       5 <- 15         0.00214
       5 <- 17         0.00019
       5 <- 20         0.00076
       5 <- 21         0.00145
       5 <- 24         0.00141
       5 <- 29        -0.00046
       5 <- 32        -0.00023
       5 <- 39         0.00027
       5 <- 41         0.00038
       5 <- 45        -0.00018
       5 <- 48        -0.00032
       5 <- 50         0.00010
       6 <- 12        -0.00104
       6 <- 16         0.00820
       6 <- 19        -0.00469
       6 <- 22        -0.00521
       6 <- 25         0.00135
       6 <- 30        -0.00624
       6 <- 33         0.00015
       6 <- 35        -0.00083
       6 <- 40         0.00062
       6 <- 42         0.00054
       6 <- 49         0.00155
       6 <- 53        -0.00145
       7 <- 27        -0.00047
       7 <- 38         0.00021
       7 <- 47         0.00239
       8 <- 10        -0.05368
       8 <- 11        -0.00700
       8 <- 14         0.00687
       8 <- 15         0.00221
       8 <- 17         0.00257
       8 <- 20        -0.00355
       8 <- 21        -0.00104
       8 <- 24         0.00141
       8 <- 26         0.00096
       8 <- 29         0.00267
       8 <- 32         0.00222
       8 <- 34         0.00076
       8 <- 36        -0.00090
       8 <- 39        -0.00085
       8 <- 41         0.00016
       8 <- 43         0.00031
       8 <- 45        -0.00144
       8 <- 48        -0.00282
       8 <- 50         0.00108
       8 <- 54        -0.00066

 Excited State   4:      Singlet-B1     3.2917 eV  376.66 nm  f=0.0000  <S**2>=0.000
       3 ->  9        -0.01945
       3 -> 13         0.00060
       3 -> 18        -0.00352
       3 -> 23         0.00111
       3 -> 28        -0.00136
       3 -> 31        -0.00106
       3 -> 37         0.00018
       3 -> 44         0.00025
       3 -> 46        -0.00096
       3 -> 52         0.00054
       4 ->  9        -0.00174
       4 -> 18         0.00025
       4 -> 28         0.00067
       4 -> 31        -0.00089
       4 -> 52        -0.00017
       5 -> 27        -0.00165
       5 -> 38         0.00036
       5 -> 47         0.00034
       6 ->  9         0.51991
       6 -> 13        -0.01360
       6 -> 18         0.01221
       6 -> 23        -0.00833
       6 -> 28         0.00380
       6 -> 31         0.00077
       6 -> 37        -0.00051
       6 -> 44        -0.00108
       6 -> 46         0.00252
       6 -> 52         0.00049
       7 -> 10         0.48413
       7 -> 11         0.03256
       7 -> 14        -0.03223
       7 -> 15        -0.01468
       7 -> 17        -0.01239
       7 -> 20         0.00433
       7 -> 21         0.00249
       7 -> 24        -0.00547
       7 -> 26        -0.00425
       7 -> 29        -0.00753
       7 -> 32         0.00131
       7 -> 34        -0.00051
       7 -> 36         0.00105
       7 -> 41        -0.00014
       7 -> 43         0.00047
       7 -> 45        -0.00101
       7 -> 48         0.00312
       7 -> 50         0.00102
       7 -> 54        -0.00094
       8 -> 27         0.00013
       8 -> 47         0.00379
       3 <-  9        -0.00646
       3 <- 13        -0.00057
       3 <- 18        -0.00228
       3 <- 23        -0.00023
       3 <- 28        -0.00085
       3 <- 31        -0.00071
       3 <- 46        -0.00090
       3 <- 52         0.00065
       4 <- 13         0.00048
       4 <- 18         0.00116
       4 <- 23         0.00025
       4 <- 28         0.00142
       4 <- 31        -0.00067
       4 <- 44        -0.00032
       4 <- 46        -0.00011
       5 <- 27        -0.00167
       5 <- 38         0.00036
       5 <- 47         0.00032
       6 <-  9        -0.05823
       6 <- 13         0.00233
       6 <- 18        -0.00646
       6 <- 23         0.00071
       6 <- 28        -0.00420
       6 <- 31        -0.00174
       6 <- 37        -0.00021
       6 <- 44         0.00020
       6 <- 46         0.00242
       6 <- 52        -0.00059
       7 <- 10        -0.06565
       7 <- 11        -0.00869
       7 <- 14         0.01161
       7 <- 15         0.00604
       7 <- 17         0.00371
       7 <- 20         0.00030
       7 <- 21        -0.00293
       7 <- 24         0.00303
       7 <- 26         0.00170
       7 <- 29         0.00239
       7 <- 34         0.00022
       7 <- 36         0.00012
       7 <- 39        -0.00045
       7 <- 41         0.00024
       7 <- 43         0.00026
       7 <- 45        -0.00071
       7 <- 48         0.00287
       7 <- 50         0.00125
       7 <- 54         0.00037
       8 <- 27         0.00046
       8 <- 47         0.00348

 Excited State   5:      Singlet-B1     3.8209 eV  324.49 nm  f=0.0058  <S**2>=0.000
       3 ->  9         0.00440
       3 -> 13        -0.00022
       3 -> 18        -0.00052
       3 -> 28        -0.00182
       3 -> 31        -0.00095
       3 -> 44        -0.00026
       3 -> 46        -0.00326
       3 -> 52        -0.00040
       4 ->  9        -0.02907
       4 -> 13         0.00588
       4 -> 18         0.00062
       4 -> 23         0.00468
       4 -> 28         0.00048
       4 -> 31         0.00076
       4 -> 37         0.00036
       4 -> 44        -0.00038
       4 -> 46         0.00094
       4 -> 52         0.00021
       5 -> 27        -0.00569
       5 -> 38        -0.00376
       6 ->  9        -0.48204
       6 -> 13         0.00853
       6 -> 18        -0.00392
       6 -> 23         0.00563
       6 -> 28         0.00155
       6 -> 31        -0.00437
       6 -> 37         0.00278
       6 -> 44         0.00131
       6 -> 46        -0.00161
       6 -> 52        -0.00105
       7 -> 10         0.51488
       7 -> 11         0.02683
       7 -> 14        -0.02778
       7 -> 15        -0.02020
       7 -> 17        -0.00511
       7 -> 20        -0.00221
       7 -> 21         0.00167
       7 -> 24        -0.00676
       7 -> 26        -0.00355
       7 -> 29        -0.00590
       7 -> 32        -0.00021
       7 -> 34        -0.00326
       7 -> 36        -0.00145
       7 -> 39         0.00061
       7 -> 43         0.00029
       7 -> 45        -0.00059
       7 -> 48        -0.00057
       7 -> 50        -0.00031
       7 -> 54        -0.00154
       8 -> 27         0.00044
       8 -> 38         0.00017
       8 -> 47        -0.00066
       3 <-  9         0.00166
       3 <- 13         0.00093
       3 <- 18         0.00015
       3 <- 23         0.00068
       3 <- 28        -0.00137
       3 <- 31         0.00017
       3 <- 37        -0.00031
       3 <- 44        -0.00030
       3 <- 46        -0.00336
       4 <-  9        -0.01518
       4 <- 13         0.00297
       4 <- 18        -0.00025
       4 <- 23         0.00301
       4 <- 28         0.00030
       4 <- 31         0.00054
       4 <- 37         0.00033
       4 <- 44        -0.00048
       4 <- 46         0.00058
       4 <- 52         0.00015
       5 <- 27        -0.00416
       5 <- 38        -0.00320
       6 <-  9        -0.01420
       6 <- 13        -0.00116
       6 <- 18        -0.00152
       6 <- 23         0.00048
       6 <- 28         0.00124
       6 <- 31        -0.00467
       6 <- 37         0.00265
       6 <- 44         0.00094
       6 <- 46        -0.00088
       6 <- 52        -0.00120
       7 <- 10         0.00149
       7 <- 11         0.00087
       7 <- 14        -0.00278
       7 <- 15        -0.00705
       7 <- 17        -0.00046
       7 <- 20        -0.00503
       7 <- 24        -0.00356
       7 <- 26        -0.00081
       7 <- 29        -0.00068
       7 <- 32         0.00115
       7 <- 34        -0.00216
       7 <- 36        -0.00241
       7 <- 39         0.00021
       7 <- 43         0.00037
       7 <- 45        -0.00067
       7 <- 48        -0.00069
       7 <- 50        -0.00058
       7 <- 54        -0.00109
       8 <- 47        -0.00089

 The electronic state is 1-A1.
 Alpha  occ. eigenvalues --  -19.17808 -10.34247  -0.88393  -0.71899  -0.49418
 Alpha  occ. eigenvalues --   -0.37946  -0.30096  -0.28584
 Alpha virt. eigenvalues --   -0.17895  -0.09559  -0.00246   0.04031   0.06084
 Alpha virt. eigenvalues --    0.06151   0.11552   0.12993   0.18619   0.20880
 Alpha virt. eigenvalues --    0.23893   0.30422   0.38475   0.39205   0.50456

 Mulliken charges:
               1
     1  C   -0.107494
     2  H    0.194441
     3  H    0.194441
     4  O   -0.281388
 Sum of Mulliken charges =  -0.00000

 Dipole moment (field-independent basis, Debye):
    X=             -0.0000    Y=             -0.0000    Z=             -4.3165  Tot=              4.3165
 Quadrupole moment (field-independent basis, Debye-Ang):
   XX=            -13.1059   YY=            -12.0927   ZZ=            -10.3876
   XY=              0.0000   XZ=              0.0000   YZ=             -0.0000

 Normal termination of Gaussian 16 at Fri Sep 17 10:53:13 2021.
