 Gaussian 16, Revision C.01,
 Gaussian 16:  ES64L-G16RevC.01  3-Jul-2019

 ----------------------------------------
 #P wB97XD/6-311+G* NoSymm #P Field=Y-145
 ----------------------------------------

 -------
 TitleMe
 -------
 Symbolic Z-matrix:
 Charge =  1 Multiplicity = 1

                          Input orientation:
 ---------------------------------------------------------------------
 Center     Atomic      Atomic             Coordinates (Angstroms)
 Number     Number       Type             X           Y           Z
 ---------------------------------------------------------------------
      1          6           0        0.519300    1.233000   -0.031900
      2          6           0        1.944500    1.269200   -0.036700
      3          6           0        2.620400    0.092800   -0.025000
      4          6           0       -0.196000    0.030100    0.001000
      5          1           0       -0.020700    2.174200   -0.043400
      6          1           0        2.482800    2.208900   -0.036100
      7          1           0       -1.277700    0.039900    0.011700
      8          7           0        4.092100    0.095900    0.036600
      9          8           0        4.639300   -1.021700    0.144600
     10          8           0        4.664900    1.198400   -0.023300
     11          6           0        0.494300   -1.167100    0.021000
     12          1           0       -0.032500   -2.114900    0.054500
     13          6           0        1.962900   -1.216500   -0.021100
     14          1           0        2.443600   -1.963100    0.615100
     15         35           0        2.173000   -1.949100   -1.906200
 ---------------------------------------------------------------------

 SCF Done:  E(RwB97XD) =  -3010.53888268     A.U. after   22 cycles

 Alpha  occ. eigenvalues -- -483.33398 -62.88444 -56.68106 -56.67576 -56.67575
 Alpha  occ. eigenvalues --  -19.46538 -19.46254 -14.85791 -10.60055 -10.59549
 Alpha  occ. eigenvalues --  -10.58343 -10.57174 -10.53438 -10.53135  -9.04268
 Alpha  occ. eigenvalues --   -6.86862  -6.85116  -6.85111  -2.96786  -2.96319
 Alpha  occ. eigenvalues --   -2.96313  -2.94916  -2.94916  -1.50062  -1.33018
 Alpha  occ. eigenvalues --   -1.23314  -1.13832  -1.13122  -1.06210  -1.01059
 Alpha  occ. eigenvalues --   -0.96097  -0.91123  -0.85509  -0.81311  -0.80821
 Alpha  occ. eigenvalues --   -0.80312  -0.78627  -0.76410  -0.76163  -0.72988
 Alpha  occ. eigenvalues --   -0.69092  -0.67788  -0.64076  -0.61264  -0.58982
 Alpha  occ. eigenvalues --   -0.57768  -0.57213  -0.56030  -0.55625
 Alpha virt. eigenvalues --   -0.31020  -0.20636  -0.17473  -0.14708  -0.13214
 Alpha virt. eigenvalues --   -0.10521  -0.09744  -0.07246  -0.05916  -0.05197
 Alpha virt. eigenvalues --   -0.04491  -0.03789  -0.03207  -0.02668  -0.01314

 Mulliken charges:
               1
     1  C   -0.118044
     2  C    0.206742
     3  C   -0.050729
     4  C   -0.298124
     5  H    0.403045
     6  H    0.402708
     7  H    0.335231
     8  N   -0.235127
     9  O    0.009762
    10  O    0.153609
    11  C   -0.207537
    12  H    0.302180
    13  C   -0.356168
    14  H    0.375523
    15  Br   0.076930
 Sum of Mulliken charges =   1.00000

 Dipole moment (field-independent basis, Debye):
    X=              2.5650    Y=              3.3567    Z=             -0.1813  Tot=              4.2285
 Quadrupole moment (field-independent basis, Debye-Ang):
   XX=            -68.0751   YY=            -53.6446   ZZ=            -63.7692
   XY=              5.9053   XZ=             -1.3210   YZ=              0.2015

 Normal termination of Gaussian 16 at Thu May  2 14:21:08 2024.
