 Gaussian 16, Revision C.01,
 Gaussian 16:  ES64L-G16RevC.01  3-Jul-2019

 ---------------------------------------
 #P wB97XD/6-311+G* NoSymm #P Field=Y+97
 ---------------------------------------

 -------
 TitleMe
 -------
 Symbolic Z-matrix:
 Charge =  1 Multiplicity = 1

                          Input orientation:
 ---------------------------------------------------------------------
 Center     Atomic      Atomic             Coordinates (Angstroms)
 Number     Number       Type             X           Y           Z
 ---------------------------------------------------------------------
      1          6           0        0.029500    1.339700    0.068200
      2          6           0        1.434800    1.286700    0.006400
      3          6           0        2.111800    0.051100   -0.005400
      4          6           0        1.445100   -1.137200    0.031200
      5          6           0       -0.687900    0.168200    0.110000
      6          1           0       -0.471300    2.298400    0.078100
      7          1           0        2.027300    2.196500   -0.032200
      8          1           0        1.989700   -2.076400    0.023200
      9          1           0       -1.771600    0.180400    0.158200
     10          7           0        3.586400    0.051000   -0.067500
     11          8           0        4.147100   -1.059700   -0.088100
     12          8           0        4.145000    1.163900   -0.090100
     13          6           0       -0.023600   -1.145800    0.083500
     14          1           0       -0.436700   -1.872500    0.788900
     15         35           0       -0.535900   -1.869700   -1.740800
 ---------------------------------------------------------------------

 SCF Done:  E(RwB97XD) =  -3010.54291190     A.U. after   19 cycles

 Alpha  occ. eigenvalues -- -483.29641 -62.84646 -56.64357 -56.63761 -56.63758
 Alpha  occ. eigenvalues --  -19.45481 -19.45390 -14.84946 -10.57392 -10.56809
 Alpha  occ. eigenvalues --  -10.56550 -10.56425 -10.56137 -10.53142  -9.00438
 Alpha  occ. eigenvalues --   -6.83163  -6.81215  -6.81198  -2.93056  -2.92540
 Alpha  occ. eigenvalues --   -2.92525  -2.90967  -2.90967  -1.49225  -1.32208
 Alpha  occ. eigenvalues --   -1.22003  -1.13186  -1.11350  -1.03065  -1.00595
 Alpha  occ. eigenvalues --   -0.94792  -0.90435  -0.84934  -0.80372  -0.80112
 Alpha  occ. eigenvalues --   -0.79527  -0.77684  -0.75643  -0.75380  -0.71576
 Alpha  occ. eigenvalues --   -0.68797  -0.67105  -0.63028  -0.59274  -0.56734
 Alpha  occ. eigenvalues --   -0.55768  -0.55175  -0.54443  -0.53738
 Alpha virt. eigenvalues --   -0.28882  -0.20752  -0.14928  -0.12563  -0.11123
 Alpha virt. eigenvalues --   -0.07706  -0.06418  -0.05180  -0.04600  -0.03267
 Alpha virt. eigenvalues --   -0.01686  -0.01439  -0.00850  -0.00125   0.00584

 Mulliken charges:
               1
     1  C   -0.593860
     2  C    0.571190
     3  C   -0.772456
     4  C    0.326652
     5  C   -0.031994
     6  H    0.292042
     7  H    0.329559
     8  H    0.404925
     9  H    0.348200
    10  N   -0.104550
    11  O    0.080708
    12  O   -0.027040
    13  C   -0.493520
    14  H    0.428498
    15  Br   0.241646
 Sum of Mulliken charges =   1.00000

 Dipole moment (field-independent basis, Debye):
    X=             -1.1454    Y=             -3.3836    Z=             -0.3936  Tot=              3.5938
 Quadrupole moment (field-independent basis, Debye-Ang):
   XX=            -71.7547   YY=            -50.8704   ZZ=            -61.8290
   XY=             -1.8101   XZ=              1.4270   YZ=              2.9442

 Normal termination of Gaussian 16 at Wed May  1 15:07:50 2024.
