 Gaussian 16, Revision C.01,
 Gaussian 16:  ES64L-G16RevC.01  3-Jul-2019

 ----------------------------------------
 #P wB97XD/6-311+G* NoSymm #P Field=X-223
 ----------------------------------------

 -------
 TitleMe
 -------
 Symbolic Z-matrix:
 Charge =  1 Multiplicity = 1

                          Input orientation:
 ---------------------------------------------------------------------
 Center     Atomic      Atomic             Coordinates (Angstroms)
 Number     Number       Type             X           Y           Z
 ---------------------------------------------------------------------
      1          6           0        0.029500    1.339700    0.068200
      2          6           0        1.434800    1.286700    0.006400
      3          6           0        2.111800    0.051100   -0.005400
      4          6           0        1.445100   -1.137200    0.031200
      5          6           0       -0.687900    0.168200    0.110000
      6          1           0       -0.471300    2.298400    0.078100
      7          1           0        2.027300    2.196500   -0.032200
      8          1           0        1.989700   -2.076400    0.023200
      9          1           0       -1.771600    0.180400    0.158200
     10          7           0        3.586400    0.051000   -0.067500
     11          8           0        4.147100   -1.059700   -0.088100
     12          8           0        4.145000    1.163900   -0.090100
     13          6           0       -0.023600   -1.145800    0.083500
     14          1           0       -0.436700   -1.872500    0.788900
     15         35           0       -0.535900   -1.869700   -1.740800
 ---------------------------------------------------------------------

 SCF Done:  E(RwB97XD) =  -3010.55779894     A.U. after   29 cycles

 Alpha  occ. eigenvalues -- -483.29849 -62.84902 -56.64549 -56.64043 -56.64037
 Alpha  occ. eigenvalues --  -19.35029 -19.34972 -14.74501 -10.56407 -10.54242
 Alpha  occ. eigenvalues --  -10.53197 -10.52280 -10.51557 -10.50883  -9.00728
 Alpha  occ. eigenvalues --   -6.83279  -6.81609  -6.81585  -2.93213  -2.92770
 Alpha  occ. eigenvalues --   -2.92749  -2.91413  -2.91412  -1.38638  -1.21503
 Alpha  occ. eigenvalues --   -1.19158  -1.10522  -1.07976  -1.02136  -0.95124
 Alpha  occ. eigenvalues --   -0.91972  -0.86425  -0.80907  -0.76624  -0.75562
 Alpha  occ. eigenvalues --   -0.73133  -0.71677  -0.70278  -0.68310  -0.65837
 Alpha  occ. eigenvalues --   -0.65528  -0.62988  -0.60358  -0.57361  -0.55525
 Alpha  occ. eigenvalues --   -0.52722  -0.45672  -0.44123  -0.44082
 Alpha virt. eigenvalues --   -0.26645  -0.16128  -0.14965  -0.13449  -0.11392
 Alpha virt. eigenvalues --   -0.09369  -0.07938  -0.06722  -0.04031  -0.03593
 Alpha virt. eigenvalues --   -0.02614  -0.01240  -0.00269   0.00227   0.01063

 Mulliken charges:
               1
     1  C   -0.507381
     2  C    0.386656
     3  C   -0.604141
     4  C    0.325402
     5  C   -0.037832
     6  H    0.286325
     7  H    0.403194
     8  H    0.405117
     9  H    0.242266
    10  N   -0.125045
    11  O    0.144012
    12  O    0.142141
    13  C   -0.483488
    14  H    0.367284
    15  Br   0.055490
 Sum of Mulliken charges =   1.00000

 Dipole moment (field-independent basis, Debye):
    X=              6.1638    Y=              0.1657    Z=              0.5226  Tot=              6.1882
 Quadrupole moment (field-independent basis, Debye-Ang):
   XX=            -54.9991   YY=            -52.9348   ZZ=            -64.4821
   XY=              0.0446   XZ=             -0.7026   YZ=              0.0951

 Normal termination of Gaussian 16 at Wed May  1 14:57:04 2024.
