 Q-Chem 6.0, Q-Chem, Inc., Pleasanton, CA (2022)
 Q-Chem 6.0.2 for Intel X86 EM64T Linux

User input:
--------------------------------------------------------------
$molecule
0 1
C         -1.82075        1.21221        0.00007
C         -0.42782        1.22011        0.00011
C          0.24287        0.00002       -0.00001
C         -0.42786       -1.22012        0.00003
C         -2.51579        0.00002        0.00000
H         -2.36155        2.15093       -0.00002
H          0.13769        2.14227        0.00006
H          0.13768       -2.14225       -0.00012
H         -3.59985       -0.00001       -0.00023
N          1.70520        0.00000       -0.00004
O          2.29572       -1.10489        0.00011
O          2.29576        1.10486       -0.00013
C         -1.82075       -1.21220       -0.00006
H         -2.36162       -2.15087       -0.00013
$end

$rem
!SCF_GUESS         read
!SKIP_CIS_RPA      TRUE
METHOD             wB97XD
RPA                TRUE
BASIS              6-311+G*
CIS_N_ROOTS        100
CIS_SINGLETS       TRUE
CIS_TRIPLETS       FALSE
MAKE_CUBE_FILES    TRUE
PLOTS              TRUE
STS_MOM            TRUE
SYM_IGNORE         TRUE
SYMMETRY           FALSE
NTO_PAIRS          1
$end

$plots
grid_points                    75 75 75
total_density                  0-100
transition_density             1-100
natural_transition_orbital     1-100
$end

--------------------------------------------------------------

             Standard Nuclear Orientation (Angstroms)
    I     Atom           X                Y                Z
 ----------------------------------------------------------------
    1      C      -1.8207500000     1.2122100000     0.0000700000
    2      C      -0.4278200000     1.2201100000     0.0001100000
    3      C       0.2428700000     0.0000200000    -0.0000100000
    4      C      -0.4278600000    -1.2201200000     0.0000300000
    5      C      -2.5157900000     0.0000200000     0.0000000000
    6      H      -2.3615500000     2.1509300000    -0.0000200000
    7      H       0.1376900000     2.1422700000     0.0000600000
    8      H       0.1376800000    -2.1422500000    -0.0001200000
    9      H      -3.5998500000    -0.0000100000    -0.0002300000
   10      N       1.7052000000     0.0000000000    -0.0000400000
   11      O       2.2957200000    -1.1048900000     0.0001100000
   12      O       2.2957600000     1.1048600000    -0.0001300000
   13      C      -1.8207500000    -1.2122000000    -0.0000600000
   14      H      -2.3616200000    -2.1508700000    -0.0001300000
 ----------------------------------------------------------------

   15    -436.6987512686      4.85e-09  Convergence criterion met
 Total energy in the final basis set =     -436.6987512686
 Excited state 100: excitation energy (eV) =   11.6085

             TDDFT Excitation Energies
 ---------------------------------------------------

 Excited state   1: excitation energy (eV) =    3.5985
 Total energy for state  1:                  -436.56650850 au
    Multiplicity: Singlet
    Trans. Mom.:  0.0001 X   0.0000 Y  -0.0000 Z
    Strength   :     0.0000000011
    X: D(   30) --> V(    1) amplitude =  0.9619
    X: D(   30) --> V(    4) amplitude = -0.2669

 Excited state   2: excitation energy (eV) =    4.1824
 Total energy for state  2:                  -436.54505072 au
    Multiplicity: Singlet
    Trans. Mom.:  0.0001 X   0.0000 Y  -0.0576 Z
    Strength   :     0.0003400981
    X: D(   28) --> V(    1) amplitude =  0.9626
    X: D(   28) --> V(    4) amplitude = -0.2567

 Excited state   3: excitation energy (eV) =    4.6779
 Total energy for state  3:                  -436.52684112 au
    Multiplicity: Singlet
    Trans. Mom.: -0.0003 X  -0.4063 Y  -0.0000 Z
    Strength   :     0.0189165622
    X: D(   31) --> V(    2) amplitude =  0.2934
    X: D(   32) --> V(    1) amplitude =  0.9491

 Excited state   4: excitation energy (eV) =    4.9541
 Total energy for state  4:                  -436.51669152 au
    Multiplicity: Singlet
    Trans. Mom.: -1.4193 X   0.0001 Y   0.0001 Z
    Strength   :     0.2445032537
    X: D(   31) --> V(    1) amplitude =  0.9734

 Excited state   5: excitation energy (eV) =    5.9451
 Total energy for state  5:                  -436.48027235 au
    Multiplicity: Singlet
    Trans. Mom.: -0.0001 X  -0.5187 Y   0.0001 Z
    Strength   :     0.0391902240
    X: D(   29) --> V(    1) amplitude = -0.8873
    X: D(   31) --> V(    2) amplitude =  0.3767

 Excited state   6: excitation energy (eV) =    6.3481
 Total energy for state  6:                  -436.46546305 au
    Multiplicity: Singlet
    Trans. Mom.: -0.0001 X   0.8818 Y  -0.0000 Z
    Strength   :     0.1209337034
    X: D(   29) --> V(    1) amplitude =  0.4168
    X: D(   31) --> V(    2) amplitude =  0.7049
    X: D(   32) --> V(    1) amplitude = -0.2671
    X: D(   32) --> V(    4) amplitude =  0.4940

 Excited state   7: excitation energy (eV) =    6.6292
 Total energy for state  7:                  -436.45513148 au
    Multiplicity: Singlet
    Trans. Mom.: -1.2066 X   0.0002 Y  -0.0001 Z
    Strength   :     0.2364696112
    X: D(   31) --> V(    4) amplitude = -0.4003
    X: D(   32) --> V(    2) amplitude =  0.8897

 Excited state   8: excitation energy (eV) =    6.9319
 Total energy for state  8:                  -436.44400831 au
    Multiplicity: Singlet
    Trans. Mom.: -0.0001 X   0.0000 Y   0.0000 Z
    Strength   :     0.0000000007
    X: D(   27) --> V(    1) amplitude =  0.9601

 Excited state   9: excitation energy (eV) =    7.4804
 Total energy for state  9:                  -436.42385251 au
    Multiplicity: Singlet
    Trans. Mom.: -0.0001 X  -0.0003 Y   0.0434 Z
    Strength   :     0.0003452196
    X: D(   26) --> V(    1) amplitude =  0.6371
    X: D(   30) --> V(    2) amplitude =  0.7281

 Excited state  10: excitation energy (eV) =    7.5538
 Total energy for state 10:                  -436.42115567 au
    Multiplicity: Singlet
    Trans. Mom.: -0.0001 X   0.0011 Y   0.0002 Z
    Strength   :     0.0000002196
    X: D(   32) --> V(    3) amplitude =  0.9387

 Excited state  11: excitation energy (eV) =    7.5656
 Total energy for state 11:                  -436.42072182 au
    Multiplicity: Singlet
    Trans. Mom.: -0.0003 X   0.0022 Y   0.0811 Z
    Strength   :     0.0012215113
    X: D(   26) --> V(    1) amplitude =  0.6718
    X: D(   30) --> V(    2) amplitude = -0.6707

 Excited state  12: excitation energy (eV) =    7.5942
 Total energy for state 12:                  -436.41966899 au
    Multiplicity: Singlet
    Trans. Mom.: -0.0010 X  -1.6283 Y  -0.0000 Z
    Strength   :     0.4933112505
    X: D(   31) --> V(    2) amplitude = -0.4988
    X: D(   32) --> V(    4) amplitude =  0.8300

 Excited state  13: excitation energy (eV) =    7.6241
 Total energy for state 13:                  -436.41857198 au
    Multiplicity: Singlet
    Trans. Mom.: -1.2658 X   0.0011 Y  -0.0001 Z
    Strength   :     0.2992549944
    X: D(   31) --> V(    4) amplitude =  0.8577
    X: D(   32) --> V(    2) amplitude =  0.4071

 Excited state  14: excitation energy (eV) =    7.6911
 Total energy for state 14:                  -436.41610862 au
    Multiplicity: Singlet
    Trans. Mom.: -0.0008 X  -0.0001 Y   0.2978 Z
    Strength   :     0.0167141611
    X: D(   31) --> V(    3) amplitude =  0.9437

 Excited state  15: excitation energy (eV) =    7.8009
 Total energy for state 15:                  -436.41207236 au
    Multiplicity: Singlet
    Trans. Mom.: -0.0003 X  -0.0003 Y  -0.0000 Z
    Strength   :     0.0000000371
    X: D(   28) --> V(    2) amplitude = -0.5831
    X: D(   30) --> V(    1) amplitude =  0.2128
    X: D(   30) --> V(    4) amplitude =  0.7488

 Excited state  16: excitation energy (eV) =    7.8773
 Total energy for state 16:                  -436.40926516 au
    Multiplicity: Singlet
    Trans. Mom.: -0.0003 X   0.0002 Y   0.0000 Z
    Strength   :     0.0000000198
    X: D(   28) --> V(    2) amplitude =  0.7715
    X: D(   30) --> V(    4) amplitude =  0.5593

 Excited state  17: excitation energy (eV) =    7.9792
 Total energy for state 17:                  -436.40551973 au
    Multiplicity: Singlet
    Trans. Mom.:  0.0517 X  -0.0001 Y  -0.0000 Z
    Strength   :     0.0005217113
    X: D(   29) --> V(    2) amplitude =  0.9639

 Excited state  18: excitation energy (eV) =    8.1696
 Total energy for state 18:                  -436.39852470 au
    Multiplicity: Singlet
    Trans. Mom.:  0.0880 X  -0.0002 Y  -0.0002 Z
    Strength   :     0.0015509719
    X: D(   25) --> V(    1) amplitude =  0.9281
    X: D(   29) --> V(    2) amplitude = -0.2241

 Excited state  19: excitation energy (eV) =    8.1894
 Total energy for state 19:                  -436.39779459 au
    Multiplicity: Singlet
    Trans. Mom.: -0.0003 X   0.0001 Y  -0.2989 Z
    Strength   :     0.0179303150
    X: D(   27) --> V(    2) amplitude =  0.9231
    X: D(   32) --> V(    5) amplitude =  0.3202

 Excited state  20: excitation energy (eV) =    8.2120
 Total energy for state 20:                  -436.39696442 au
    Multiplicity: Singlet
    Trans. Mom.: -0.0001 X  -0.0002 Y   0.0182 Z
    Strength   :     0.0000663869
    X: D(   26) --> V(    1) amplitude = -0.2231
    X: D(   28) --> V(    1) amplitude =  0.2401
    X: D(   28) --> V(    4) amplitude =  0.9059

 Excited state  21: excitation energy (eV) =    8.2519
 Total energy for state 21:                  -436.39549971 au
    Multiplicity: Singlet
    Trans. Mom.:  0.0001 X  -0.0001 Y  -0.3522 Z
    Strength   :     0.0250715757
    X: D(   27) --> V(    2) amplitude = -0.3462
    X: D(   31) --> V(    6) amplitude = -0.2129
    X: D(   32) --> V(    5) amplitude =  0.8597

 Excited state  22: excitation energy (eV) =    8.3698
 Total energy for state 22:                  -436.39116748 au
    Multiplicity: Singlet
    Trans. Mom.: -0.0001 X   0.0001 Y  -0.0001 Z
    Strength   :     0.0000000036
    X: D(   31) --> V(    5) amplitude = -0.3391
    X: D(   32) --> V(    6) amplitude =  0.6282
    X: D(   32) --> V(    7) amplitude = -0.5576
    X: D(   32) --> V(   10) amplitude = -0.2500

 Excited state  23: excitation energy (eV) =    8.4328
 Total energy for state 23:                  -436.38885137 au
    Multiplicity: Singlet
    Trans. Mom.: -0.0000 X  -0.2102 Y   0.0001 Z
    Strength   :     0.0091305756
    X: D(   29) --> V(    4) amplitude =  0.9190

 Excited state  24: excitation energy (eV) =    8.4607
 Total energy for state 24:                  -436.38782733 au
    Multiplicity: Singlet
    Trans. Mom.:  0.0001 X   0.0003 Y   0.0661 Z
    Strength   :     0.0009061116
    X: D(   31) --> V(    6) amplitude =  0.7394
    X: D(   31) --> V(    7) amplitude = -0.4627
    X: D(   31) --> V(   10) amplitude = -0.2662
    X: D(   32) --> V(    5) amplitude =  0.2731

 Excited state  25: excitation energy (eV) =    8.5719
 Total energy for state 25:                  -436.38374075 au
    Multiplicity: Singlet
    Trans. Mom.: -0.0001 X  -0.0003 Y   0.0001 Z
    Strength   :     0.0000000221
    X: D(   31) --> V(    5) amplitude =  0.8576
    X: D(   32) --> V(    7) amplitude = -0.3456
    X: D(   32) --> V(   10) amplitude = -0.2499

 Excited state  26: excitation energy (eV) =    8.5823
 Total energy for state 26:                  -436.38335620 au
    Multiplicity: Singlet
    Trans. Mom.: -0.0000 X  -0.5248 Y   0.0001 Z
    Strength   :     0.0579187813
    X: D(   29) --> V(    4) amplitude =  0.2975
    X: D(   30) --> V(    3) amplitude = -0.5294
    X: D(   30) --> V(    6) amplitude =  0.5882
    X: D(   30) --> V(    7) amplitude = -0.3491

 Excited state  27: excitation energy (eV) =    8.6612
 Total energy for state 27:                  -436.38045904 au
    Multiplicity: Singlet
    Trans. Mom.:  0.0000 X  -0.0002 Y   0.0001 Z
    Strength   :     0.0000000078
    X: D(   26) --> V(    2) amplitude =  0.6327
    X: D(   32) --> V(    6) amplitude =  0.5392
    X: D(   32) --> V(    7) amplitude =  0.3918

 Excited state  28: excitation energy (eV) =    8.6635
 Total energy for state 28:                  -436.38037515 au
    Multiplicity: Singlet
    Trans. Mom.: -0.0000 X  -0.0001 Y  -0.0001 Z
    Strength   :     0.0000000048
    X: D(   26) --> V(    2) amplitude =  0.6628
    X: D(   31) --> V(    5) amplitude = -0.2596
    X: D(   32) --> V(    6) amplitude = -0.4720
    X: D(   32) --> V(    7) amplitude = -0.3329

 Excited state  29: excitation energy (eV) =    8.8179
 Total energy for state 29:                  -436.37469902 au
    Multiplicity: Singlet
    Trans. Mom.: -0.0000 X  -0.0001 Y   0.1410 Z
    Strength   :     0.0042945351
    X: D(   31) --> V(    6) amplitude =  0.5785
    X: D(   31) --> V(    7) amplitude =  0.6595
    X: D(   31) --> V(   10) amplitude =  0.3391

 Excited state  30: excitation energy (eV) =    8.9034
 Total energy for state 30:                  -436.37155770 au
    Multiplicity: Singlet
    Trans. Mom.:  0.0000 X  -0.0001 Y   0.0000 Z
    Strength   :     0.0000000009
    X: D(   29) --> V(    3) amplitude = -0.4679
    X: D(   29) --> V(    6) amplitude =  0.5834
    X: D(   29) --> V(    7) amplitude = -0.4229
    X: D(   29) --> V(   12) amplitude = -0.2570

 Excited state  31: excitation energy (eV) =    8.9279
 Total energy for state 31:                  -436.37065774 au
    Multiplicity: Singlet
    Trans. Mom.: -0.0000 X   0.0703 Y  -0.0000 Z
    Strength   :     0.0010801325
    X: D(   32) --> V(    9) amplitude =  0.9700

 Excited state  32: excitation energy (eV) =    8.9587
 Total energy for state 32:                  -436.36952533 au
    Multiplicity: Singlet
    Trans. Mom.: -0.0001 X  -0.0001 Y  -0.0000 Z
    Strength   :     0.0000000067
    X: D(   22) --> V(    1) amplitude =  0.4537
    X: D(   24) --> V(    1) amplitude =  0.4567
    X: D(   26) --> V(    2) amplitude = -0.2134
    X: D(   27) --> V(    4) amplitude =  0.6357

 Excited state  33: excitation energy (eV) =    8.9794
 Total energy for state 33:                  -436.36876379 au
    Multiplicity: Singlet
    Trans. Mom.: -0.3753 X   0.0000 Y  -0.0000 Z
    Strength   :     0.0309919252
    X: D(   28) --> V(    3) amplitude = -0.4678
    X: D(   28) --> V(    6) amplitude =  0.5355
    X: D(   28) --> V(    7) amplitude = -0.3169
    X: D(   30) --> V(    5) amplitude = -0.3238
    X: D(   30) --> V(    8) amplitude =  0.3332
    X: D(   31) --> V(    9) amplitude =  0.2775

 Excited state  34: excitation energy (eV) =    9.0378
 Total energy for state 34:                  -436.36661839 au
    Multiplicity: Singlet
    Trans. Mom.:  0.1664 X  -0.0000 Y  -0.0001 Z
    Strength   :     0.0061339905
    X: D(   31) --> V(    9) amplitude =  0.9355

 Excited state  35: excitation energy (eV) =    9.2567
 Total energy for state 35:                  -436.35857509 au
    Multiplicity: Singlet
    Trans. Mom.:  0.0000 X  -0.0000 Y   0.1150 Z
    Strength   :     0.0029993137
    X: D(   32) --> V(    8) amplitude =  0.9587

 Excited state  36: excitation energy (eV) =    9.3164
 Total energy for state 36:                  -436.35638130 au
    Multiplicity: Singlet
    Trans. Mom.: -0.0000 X   0.0001 Y  -0.0000 Z
    Strength   :     0.0000000024
    X: D(   20) --> V(    1) amplitude = -0.2881
    X: D(   22) --> V(    1) amplitude = -0.5881
    X: D(   24) --> V(    1) amplitude =  0.6889

 Excited state  37: excitation energy (eV) =    9.4156
 Total energy for state 37:                  -436.35273321 au
    Multiplicity: Singlet
    Trans. Mom.: -0.0000 X  -0.0001 Y  -0.0001 Z
    Strength   :     0.0000000034
    X: D(   31) --> V(    8) amplitude =  0.9497

 Excited state  38: excitation energy (eV) =    9.4847
 Total energy for state 38:                  -436.35019582 au
    Multiplicity: Singlet
    Trans. Mom.: -0.0000 X   0.1360 Y   0.0000 Z
    Strength   :     0.0042952027
    X: D(   30) --> V(    3) amplitude = -0.4012
    X: D(   30) --> V(    7) amplitude =  0.7278
    X: D(   30) --> V(   10) amplitude =  0.3528

 Excited state  39: excitation energy (eV) =    9.5465
 Total energy for state 39:                  -436.34792312 au
    Multiplicity: Singlet
    Trans. Mom.:  0.0001 X   0.0206 Y   0.0000 Z
    Strength   :     0.0000993143
    X: D(   25) --> V(    2) amplitude =  0.9223
    X: D(   31) --> V(   11) amplitude =  0.2429
    X: D(   32) --> V(   13) amplitude =  0.2294

 Excited state  40: excitation energy (eV) =    9.5756
 Total energy for state 40:                  -436.34685530 au
    Multiplicity: Singlet
    Trans. Mom.:  0.0001 X   0.0000 Y   0.0002 Z
    Strength   :     0.0000000068
    X: D(   32) --> V(    7) amplitude = -0.4813
    X: D(   32) --> V(   10) amplitude =  0.7638
    X: D(   32) --> V(   12) amplitude = -0.3078

 Excited state  41: excitation energy (eV) =    9.5964
 Total energy for state 41:                  -436.34609080 au
    Multiplicity: Singlet
    Trans. Mom.: -0.0000 X  -0.0000 Y   0.0284 Z
    Strength   :     0.0001900934
    X: D(   21) --> V(    1) amplitude =  0.2344
    X: D(   26) --> V(    4) amplitude = -0.4312
    X: D(   31) --> V(    7) amplitude = -0.4177
    X: D(   31) --> V(   10) amplitude =  0.5821
    X: D(   31) --> V(   12) amplitude = -0.3061

 Excited state  42: excitation energy (eV) =    9.6250
 Total energy for state 42:                  -436.34503787 au
    Multiplicity: Singlet
    Trans. Mom.: -0.0653 X   0.0000 Y  -0.0001 Z
    Strength   :     0.0010055513
    X: D(   28) --> V(    3) amplitude = -0.2201
    X: D(   28) --> V(    6) amplitude =  0.2369
    X: D(   28) --> V(    7) amplitude = -0.4212
    X: D(   30) --> V(    5) amplitude =  0.6584
    X: D(   30) --> V(    8) amplitude = -0.4530

 Excited state  43: excitation energy (eV) =    9.6787
 Total energy for state 43:                  -436.34306426 au
    Multiplicity: Singlet
    Trans. Mom.:  0.0001 X  -0.0001 Y   0.2059 Z
    Strength   :     0.0100517372
    X: D(   21) --> V(    1) amplitude = -0.3018
    X: D(   23) --> V(    1) amplitude = -0.4187
    X: D(   26) --> V(    4) amplitude =  0.6017
    X: D(   31) --> V(    7) amplitude = -0.2406
    X: D(   31) --> V(   10) amplitude =  0.4059

 Excited state  44: excitation energy (eV) =    9.7494
 Total energy for state 44:                  -436.34046867 au
    Multiplicity: Singlet
    Trans. Mom.:  0.0001 X  -0.0000 Y  -0.0001 Z
    Strength   :     0.0000000016
    X: D(   20) --> V(    1) amplitude = -0.3289
    X: D(   22) --> V(    1) amplitude = -0.4051
    X: D(   24) --> V(    1) amplitude = -0.4078
    X: D(   27) --> V(    1) amplitude = -0.2333
    X: D(   27) --> V(    4) amplitude =  0.6625

 Excited state  45: excitation energy (eV) =    9.8322
 Total energy for state 45:                  -436.33742576 au
    Multiplicity: Singlet
    Trans. Mom.: -0.0257 X  -0.0000 Y   0.0001 Z
    Strength   :     0.0001594479
    X: D(   32) --> V(   11) amplitude =  0.9566

 Excited state  46: excitation energy (eV) =    9.8778
 Total energy for state 46:                  -436.33575043 au
    Multiplicity: Singlet
    Trans. Mom.:  0.0000 X   0.0001 Y   0.3057 Z
    Strength   :     0.0226153087
    X: D(   29) --> V(    5) amplitude =  0.7066
    X: D(   29) --> V(    8) amplitude = -0.5975

 Excited state  47: excitation energy (eV) =    9.8792

 Excited state 100: excitation energy (eV) =   11.5951
  Excited state 1:   3.6242 eV (singlet)
  Excited state 2:   4.2117 eV (singlet)
  Excited state 3:   4.7699 eV (singlet)
  Excited state 4:   5.1261 eV (singlet)
  Excited state 5:   6.3221 eV (singlet)
  Excited state 6:   6.6391 eV (singlet)
  Excited state 7:   6.8865 eV (singlet)
  Excited state 8:   6.9430 eV (singlet)
  Excited state 9:   7.4880 eV (singlet)
  Excited state 10:   7.5556 eV (singlet)
  Excited state 11:   7.5754 eV (singlet)
  Excited state 12:   7.6932 eV (singlet)
  Excited state 13:   7.8038 eV (singlet)
  Excited state 14:   7.8809 eV (singlet)
  Excited state 15:   7.9596 eV (singlet)
  Excited state 16:   7.9892 eV (singlet)
  Excited state 17:   8.0621 eV (singlet)
  Excited state 18:   8.2033 eV (singlet)
  Excited state 19:   8.2167 eV (singlet)
  Excited state 20:   8.2585 eV (singlet)
  Excited state 21:   8.2613 eV (singlet)
  Excited state 22:   8.3756 eV (singlet)
  Excited state 23:   8.4670 eV (singlet)
  Excited state 24:   8.4977 eV (singlet)
  Excited state 25:   8.5744 eV (singlet)
  Excited state 26:   8.6427 eV (singlet)
  Excited state 27:   8.6661 eV (singlet)
  Excited state 28:   8.6744 eV (singlet)
  Excited state 29:   8.8240 eV (singlet)
  Excited state 30:   8.9065 eV (singlet)
  Excited state 31:   8.9802 eV (singlet)
  Excited state 32:   8.9897 eV (singlet)
  Excited state 33:   9.0262 eV (singlet)
  Excited state 34:   9.0970 eV (singlet)
  Excited state 35:   9.2592 eV (singlet)
  Excited state 36:   9.3403 eV (singlet)
  Excited state 37:   9.4173 eV (singlet)
  Excited state 38:   9.4983 eV (singlet)
  Excited state 61:  10.3378 eV (singlet)
  Excited state 62:  10.3957 eV (singlet)
  Excited state 63:  10.4616 eV (singlet)
  Excited state 64:  10.5046 eV (singlet)
  Excited state 65:  10.5170 eV (singlet)
  Excited state 66:  10.5178 eV (singlet)
  Excited state 67:  10.5490 eV (singlet)
  Excited state 68:  10.6655 eV (singlet)
  Excited state 69:  10.7041 eV (singlet)
  Excited state 70:  10.7335 eV (singlet)
  Excited state 71:  10.7340 eV (singlet)
  Excited state 72:  10.8043 eV (singlet)
  Excited state 73:  10.8397 eV (singlet)
  Excited state 74:  10.8708 eV (singlet)
  Excited state 75:  10.8755 eV (singlet)
  Excited state 76:  10.8891 eV (singlet)
  Excited state 77:  10.8976 eV (singlet)
  Excited state 78:  10.9221 eV (singlet)
  Excited state 79:  10.9259 eV (singlet)
  Excited state 80:  10.9615 eV (singlet)
  Excited state 81:  10.9615 eV (singlet)
  Excited state 82:  11.0122 eV (singlet)
  Excited state 83:  11.0523 eV (singlet)
  Excited state 84:  11.1008 eV (singlet)
  Excited state 85:  11.2193 eV (singlet)
  Excited state 86:  11.2271 eV (singlet)
  Excited state 87:  11.2479 eV (singlet)
  Excited state 88:  11.2545 eV (singlet)
  Excited state 89:  11.3211 eV (singlet)
  Excited state 90:  11.3214 eV (singlet)
  Excited state 91:  11.3249 eV (singlet)
  Excited state 92:  11.3560 eV (singlet)
  Excited state 93:  11.4558 eV (singlet)
  Excited state 94:  11.4605 eV (singlet)
  Excited state 95:  11.4731 eV (singlet)
  Excited state 96:  11.4939 eV (singlet)
  Excited state 97:  11.5100 eV (singlet)
  Excited state 98:  11.5322 eV (singlet)
  Excited state 99:  11.5673 eV (singlet)
  Excited state 100:  11.5951 eV (singlet)

                    Orbital Energies (a.u.)
 --------------------------------------------------------------

 Alpha MOs
 -- Occupied --
-19.2922 -19.2921 -14.6858 -10.3671 -10.3294 -10.3294 -10.3275 -10.3241
-10.3241  -1.3273  -1.1541  -1.0079  -0.9232  -0.8867  -0.8145  -0.7408
 -0.7050  -0.6675  -0.6293  -0.6150  -0.6124  -0.5702  -0.5662  -0.5473
 -0.4929  -0.4839  -0.4658  -0.4093  -0.4028  -0.3902  -0.3700  -0.3662

          Ground-State Mulliken Net Atomic Charges

     Atom                 Charge (a.u.)
  ----------------------------------------
      1 C                    -0.444118
      2 C                     0.176711
      3 C                    -0.476201
      4 C                     0.176702
      5 C                    -0.136236
      6 H                     0.261600
      7 H                     0.290819
      8 H                     0.290822
      9 H                     0.258020
     10 N                    -0.142453
     11 O                    -0.036573
     12 O                    -0.036560
     13 C                    -0.444134
     14 H                     0.261601
  ----------------------------------------
  Sum of atomic charges =     0.000000

                    Cartesian Multipole Moments
 -----------------------------------------------------------------
    Charge (ESU x 10^10)
                -0.0000
    Dipole Moment (Debye)
         X      -5.1385      Y       0.0001      Z      -0.0004
       Tot       5.1385
    Quadrupole Moments (Debye-Ang)
        XX     -55.6648     XY       0.0003     YY     -47.3548
        XZ       0.0010     YZ       0.0008     ZZ     -53.5506

 Total job time:  905.73s(wall), 9230.93s(cpu)
        *  Thank you very much for using Q-Chem.  Have a nice day.  *
