 Gaussian 16, Revision C.01,
 Gaussian 16:  ES64L-G16RevC.01  3-Jul-2019

 ---------------------------------------
 #P wB97XD/6-311+G* NoSymm #P Field=X+97
 ---------------------------------------

 -------
 TitleMe
 -------
 Symbolic Z-matrix:
 Charge =  1 Multiplicity = 1

                          Input orientation:
 ---------------------------------------------------------------------
 Center     Atomic      Atomic             Coordinates (Angstroms)
 Number     Number       Type             X           Y           Z
 ---------------------------------------------------------------------
      1          6           0        0.519300    1.233000   -0.031900
      2          6           0        1.944500    1.269200   -0.036700
      3          6           0        2.620400    0.092800   -0.025000
      4          6           0       -0.196000    0.030100    0.001000
      5          1           0       -0.020700    2.174200   -0.043400
      6          1           0        2.482800    2.208900   -0.036100
      7          1           0       -1.277700    0.039900    0.011700
      8          7           0        4.092100    0.095900    0.036600
      9          8           0        4.639300   -1.021700    0.144600
     10          8           0        4.664900    1.198400   -0.023300
     11          6           0        0.494300   -1.167100    0.021000
     12          1           0       -0.032500   -2.114900    0.054500
     13          6           0        1.962900   -1.216500   -0.021100
     14          1           0        2.443600   -1.963100    0.615100
     15         35           0        2.173000   -1.949100   -1.906200
 ---------------------------------------------------------------------

 SCF Done:  E(RwB97XD) =  -3010.52654639     A.U. after   18 cycles

 Alpha  occ. eigenvalues -- -483.34415 -62.89444 -56.69132 -56.68569 -56.68560
 Alpha  occ. eigenvalues --  -19.52275 -19.52209 -14.91522 -10.62628 -10.61398
 Alpha  occ. eigenvalues --  -10.59908 -10.59413 -10.57100 -10.54825  -9.05255
 Alpha  occ. eigenvalues --   -6.87920  -6.86072  -6.86046  -2.97827  -2.97340
 Alpha  occ. eigenvalues --   -2.97318  -2.95839  -2.95839  -1.55894  -1.38918
 Alpha  occ. eigenvalues --   -1.25678  -1.16107  -1.15734  -1.08107  -1.04034
 Alpha  occ. eigenvalues --   -0.98309  -0.93945  -0.89668  -0.86118  -0.84637
 Alpha  occ. eigenvalues --   -0.83913  -0.81294  -0.80491  -0.78832  -0.75027
 Alpha  occ. eigenvalues --   -0.70874  -0.70412  -0.66248  -0.63705  -0.63012
 Alpha  occ. eigenvalues --   -0.62585  -0.62082  -0.59636  -0.58069
 Alpha virt. eigenvalues --   -0.33287  -0.25049  -0.19013  -0.16570  -0.11799
 Alpha virt. eigenvalues --   -0.09114  -0.08533  -0.08060  -0.06869  -0.05711
 Alpha virt. eigenvalues --   -0.05011  -0.04829  -0.04472  -0.03557  -0.03003

 Mulliken charges:
               1
     1  C   -0.121709
     2  C    0.184632
     3  C   -0.125480
     4  C   -0.325893
     5  H    0.369821
     6  H    0.338423
     7  H    0.375310
     8  N   -0.237273
     9  O    0.050604
    10  O    0.023066
    11  C   -0.168892
    12  H    0.380533
    13  C   -0.306264
    14  H    0.399324
    15  Br   0.163799
 Sum of Mulliken charges =   1.00000

 Dipole moment (field-independent basis, Debye):
    X=              0.0246    Y=             -0.7643    Z=             -0.6158  Tot=              0.9818
 Quadrupole moment (field-independent basis, Debye-Ang):
   XX=            -78.7865   YY=            -51.3379   ZZ=            -62.4740
   XY=             -2.2733   XZ=             -1.7969   YZ=              2.1367

 Normal termination of Gaussian 16 at Thu May  2 14:17:24 2024.
