 Gaussian 16, Revision A.03,
 Gaussian 16:  ES64L-G16RevA.03 25-Dec-2016

 --------------------------------------------------------------------
 #p B3LYP/6-311+G** #p TD=(singlets,nstates=30)IOp(6/8=3) IOp(9/40=4)
 --------------------------------------------------------------------

 -------------------------------
 Scan Step 104, Bond Length 1.02
 -------------------------------
 Symbolic Z-matrix:
 Charge =  0 Multiplicity = 1

                         Standard orientation:
 ---------------------------------------------------------------------
 Center     Atomic      Atomic             Coordinates (Angstroms)
 Number     Number       Type             X           Y           Z
 ---------------------------------------------------------------------
      1          6           0        0.000000    0.000000   -0.436081
      2          1           0        0.000000    0.937260   -1.027431
      3          1           0       -0.000000   -0.937260   -1.027431
      4          8           0        0.000000    0.000000    0.583919
 ---------------------------------------------------------------------

 SCF Done:  E(RB3LYP) =  -114.462619082     A.U. after    9 cycles

 Excitation energies and oscillator strengths:

 Excited State   1:      Singlet-A2     5.0030 eV  247.82 nm  f=0.0000  <S**2>=0.000
       3 -> 27         0.00297
       3 -> 37         0.00247
       3 -> 45         0.00178
       4 -> 27         0.00290
       4 -> 37        -0.00074
       4 -> 45        -0.00098
       5 ->  9         0.01727
       5 -> 13        -0.00824
       5 -> 17         0.00621
       5 -> 23        -0.00259
       5 -> 28         0.00367
       5 -> 31         0.00284
       5 -> 36         0.00402
       5 -> 44         0.00067
       5 -> 47         0.00011
       5 -> 52         0.00085
       6 -> 27         0.00059
       6 -> 37        -0.00057
       6 -> 45         0.00157
       7 -> 12        -0.00062
       7 -> 16         0.00176
       7 -> 18         0.00156
       7 -> 22         0.00159
       7 -> 24         0.00109
       7 -> 29        -0.00067
       7 -> 34         0.00034
       7 -> 35         0.00051
       7 -> 40        -0.00031
       7 -> 42        -0.00033
       7 -> 48         0.00063
       7 -> 50        -0.00018
       7 -> 53         0.00038
       8 ->  9         0.70038
       8 -> 13        -0.09227
       8 -> 17         0.02624
       8 -> 23        -0.01166
       8 -> 28         0.00671
       8 -> 31         0.00350
       8 -> 36        -0.00155
       8 -> 44        -0.00025
       8 -> 47        -0.00015
       8 -> 52         0.00128
       3 <- 27         0.00209
       3 <- 37         0.00210
       3 <- 45         0.00186
       4 <- 27         0.00364
       4 <- 37        -0.00024
       4 <- 45        -0.00090
       5 <-  9         0.00013
       5 <- 13        -0.00099
       5 <- 17        -0.00054
       5 <- 23         0.00047
       5 <- 28        -0.00036
       5 <- 31        -0.00111
       5 <- 36         0.00180
       5 <- 44         0.00040
       5 <- 47         0.00016
       5 <- 52         0.00022
       6 <- 27         0.00095
       6 <- 37        -0.00056
       6 <- 45         0.00122
       7 <- 12        -0.00097
       7 <- 16        -0.00468
       7 <- 18         0.00191
       7 <- 22         0.00621
       7 <- 24        -0.00100
       7 <- 29         0.00221
       7 <- 34        -0.00123
       7 <- 35         0.00246
       7 <- 40        -0.00056
       7 <- 42        -0.00090
       7 <- 48         0.00046
       7 <- 53         0.00101
       8 <-  9        -0.01550
       8 <- 13         0.00609
       8 <- 17        -0.00385
       8 <- 23         0.00068
       8 <- 28        -0.00048
       8 <- 31         0.00200
       8 <- 36        -0.00212
       8 <- 52         0.00038
 This state for optimization and/or second-order correction.
 Total Energy, E(TD-HF/TD-DFT) =  -114.278762979
 Copying the excited state density for this state as the 1-particle RhoCI density.

 Excited State   2:      Singlet-B2     6.4279 eV  192.88 nm  f=0.0624  <S**2>=0.000
       3 -> 12         0.00112
       3 -> 16         0.00044
       3 -> 18        -0.00112
       3 -> 22        -0.00019
       3 -> 24         0.00127
       3 -> 29        -0.00013
       3 -> 35        -0.00021
       3 -> 50        -0.00011
       4 -> 12        -0.00491
       4 -> 16         0.00049
       4 -> 18        -0.00235
       4 -> 22        -0.00318
       4 -> 24         0.00391
       4 -> 29        -0.00014
       4 -> 34        -0.00086
       4 -> 35         0.00086
       4 -> 40        -0.00037
       4 -> 42        -0.00034
       5 -> 10        -0.00145
       5 -> 11        -0.00878
       5 -> 14         0.00643
       5 -> 15        -0.00139
       5 -> 19         0.00327
       5 -> 20        -0.00030
       5 -> 21         0.00411
       5 -> 25         0.00054
       5 -> 26        -0.00197
       5 -> 30         0.00246
       5 -> 32        -0.00032
       5 -> 33        -0.00042
       5 -> 38        -0.00052
       5 -> 39        -0.00026
       5 -> 43        -0.00052
       5 -> 46        -0.00057
       5 -> 49         0.00025
       6 -> 12         0.00156
       6 -> 16         0.00028
       6 -> 18        -0.00408
       6 -> 22        -0.00267
       6 -> 24         0.00189
       6 -> 29        -0.00021
       6 -> 34        -0.00011
       6 -> 42         0.00037
       6 -> 48         0.00036
       6 -> 50         0.00051
       7 -> 27         0.00061
       7 -> 37        -0.00015
       7 -> 45         0.00076
       8 -> 10         0.70550
       8 -> 11        -0.04016
       8 -> 14        -0.00381
       8 -> 15        -0.01035
       8 -> 19         0.01832
       8 -> 20         0.00988
       8 -> 21        -0.00577
       8 -> 25         0.00083
       8 -> 26        -0.00107
       8 -> 30         0.00043
       8 -> 32         0.00174
       8 -> 33         0.00198
       8 -> 38         0.00060
       8 -> 39         0.00056
       8 -> 41        -0.00018
       8 -> 43         0.00069
       8 -> 46        -0.00092
       8 -> 49         0.00012
       8 -> 54         0.00016
       3 <- 12         0.00033
       3 <- 16         0.00043
       3 <- 18        -0.00052
       3 <- 22        -0.00027
       3 <- 24         0.00085
       3 <- 29        -0.00012
       3 <- 35        -0.00020
       4 <- 12         0.00042
       4 <- 16         0.00101
       4 <- 18        -0.00267
       4 <- 22        -0.00194
       4 <- 24         0.00283
       4 <- 29        -0.00010
       4 <- 34        -0.00060
       4 <- 35         0.00060
       4 <- 40        -0.00028
       5 <- 10         0.00239
       5 <- 11        -0.00012
       5 <- 14         0.00480
       5 <- 15        -0.00133
       5 <- 19         0.00080
       5 <- 20         0.00014
       5 <- 21         0.00217
       5 <- 25         0.00167
       5 <- 26        -0.00141
       5 <- 30         0.00081
       5 <- 32        -0.00056
       5 <- 33        -0.00044
       5 <- 38        -0.00043
       5 <- 39        -0.00017
       5 <- 41         0.00019
       5 <- 43        -0.00036
       5 <- 46        -0.00048
       5 <- 49         0.00022
       6 <- 12         0.00045
       6 <- 16        -0.00054
       6 <- 18        -0.00181
       6 <- 22        -0.00099
       6 <- 24         0.00077
       6 <- 29         0.00046
       6 <- 34        -0.00018
       6 <- 35         0.00021
       6 <- 42         0.00035
       6 <- 48         0.00031
       6 <- 50         0.00053
       7 <- 27         0.00047
       7 <- 37        -0.00011
       7 <- 45         0.00065
       8 <- 10        -0.00312
       8 <- 11        -0.00102
       8 <- 14        -0.00949
       8 <- 15         0.00054
       8 <- 19        -0.00062
       8 <- 20        -0.00037
       8 <- 21        -0.00341
       8 <- 25        -0.00293
       8 <- 26        -0.00030
       8 <- 30        -0.00065
       8 <- 32         0.00053
       8 <- 33         0.00163
       8 <- 38         0.00062
       8 <- 39         0.00046
       8 <- 43         0.00054
       8 <- 46        -0.00063
       8 <- 49         0.00016
       8 <- 51         0.00012

 Excited State   3:      Singlet-B2     7.2184 eV  171.76 nm  f=0.0206  <S**2>=0.000
       3 -> 12        -0.00018
       3 -> 16        -0.00067
       3 -> 18        -0.00043
       3 -> 22         0.00022
       3 -> 24         0.00035
       3 -> 29         0.00136
       3 -> 34         0.00014
       3 -> 35        -0.00033
       3 -> 40         0.00013
       3 -> 42         0.00032
       3 -> 48         0.00023
       3 -> 50         0.00026
       4 -> 12         0.00313
       4 -> 16        -0.00173
       4 -> 18        -0.00336
       4 -> 22        -0.00156
       4 -> 24         0.00341
       4 -> 29        -0.00106
       4 -> 34         0.00055
       4 -> 35        -0.00034
       4 -> 40        -0.00016
       4 -> 42         0.00014
       4 -> 48         0.00017
       4 -> 50         0.00016
       5 -> 10        -0.00700
       5 -> 11         0.00033
       5 -> 14         0.00492
       5 -> 15        -0.00610
       5 -> 19        -0.00387
       5 -> 20        -0.00222
       5 -> 21         0.00108
       5 -> 25         0.00132
       5 -> 26         0.00101
       5 -> 30         0.00113
       5 -> 32        -0.00162
       5 -> 33        -0.00097
       5 -> 39         0.00053
       5 -> 41        -0.00086
       5 -> 46         0.00072
       5 -> 49        -0.00040
       5 -> 51        -0.00030
       6 -> 12        -0.00320
       6 -> 16        -0.00160
       6 -> 18         0.00183
       6 -> 22         0.00146
       6 -> 29         0.00036
       6 -> 34        -0.00038
       6 -> 35         0.00140
       6 -> 40        -0.00057
       6 -> 42        -0.00067
       6 -> 48        -0.00073
       6 -> 50        -0.00068
       6 -> 53         0.00013
       7 -> 27        -0.00059
       7 -> 37        -0.00122
       7 -> 45        -0.00133
       8 -> 10         0.04079
       8 -> 11         0.70497
       8 -> 14        -0.01327
       8 -> 15         0.01887
       8 -> 19        -0.02243
       8 -> 20         0.01312
       8 -> 21        -0.00207
       8 -> 25         0.00038
       8 -> 26         0.00102
       8 -> 30        -0.00128
       8 -> 32        -0.00015
       8 -> 33         0.00039
       8 -> 39         0.00015
       8 -> 41        -0.00142
       8 -> 46         0.00103
       8 -> 49        -0.00073
       8 -> 51        -0.00039
       8 -> 54        -0.00017
       3 <- 12         0.00030
       3 <- 16        -0.00036
       3 <- 18        -0.00067
       3 <- 24         0.00044
       3 <- 29         0.00085
       3 <- 34         0.00020
       3 <- 35        -0.00037
       3 <- 40         0.00012
       3 <- 42         0.00027
       3 <- 48         0.00019
       3 <- 50         0.00016
       3 <- 53        -0.00022
       4 <- 12         0.00035
       4 <- 16         0.00026
       4 <- 18        -0.00109
       4 <- 22        -0.00123
       4 <- 24         0.00145
       4 <- 29        -0.00044
       4 <- 34         0.00052
       4 <- 40        -0.00013
       4 <- 42         0.00018
       4 <- 48         0.00011
       4 <- 50         0.00022
       5 <- 10         0.00133
       5 <- 11        -0.00065
       5 <- 14         0.00210
       5 <- 15        -0.00047
       5 <- 19         0.00071
       5 <- 21         0.00094
       5 <- 25         0.00104
       5 <- 26         0.00074
       5 <- 30         0.00076
       5 <- 32        -0.00013
       5 <- 33        -0.00126
       5 <- 38         0.00016
       5 <- 39         0.00029
       5 <- 41        -0.00088
       5 <- 46         0.00068
       5 <- 49        -0.00026
       5 <- 51        -0.00029
       6 <- 12        -0.00036
       6 <- 18         0.00028
       6 <- 22         0.00039
       6 <- 34        -0.00018
       6 <- 35         0.00102
       6 <- 40        -0.00042
       6 <- 42        -0.00047
       6 <- 48        -0.00062
       6 <- 50        -0.00059
       7 <- 27        -0.00018
       7 <- 37        -0.00099
       7 <- 45        -0.00114
       8 <- 10        -0.00103
       8 <- 11         0.00066
       8 <- 14        -0.00485
       8 <- 15         0.00078
       8 <- 19         0.00263
       8 <- 20        -0.00153
       8 <- 21        -0.00225
       8 <- 26         0.00136
       8 <- 30        -0.00074
       8 <- 32         0.00121
       8 <- 38        -0.00021
       8 <- 41        -0.00120
       8 <- 46         0.00085
       8 <- 49        -0.00046
       8 <- 51        -0.00034

 Excited State   4:      Singlet-A1     7.3605 eV  168.45 nm  f=0.0528  <S**2>=0.000
       3 -> 10         0.00153
       3 -> 11        -0.00099
       3 -> 14         0.00040
       3 -> 15        -0.00044
       3 -> 19         0.00108
       3 -> 20         0.00084
       3 -> 21         0.00013
       3 -> 26        -0.00050
       3 -> 30         0.00121
       3 -> 32        -0.00033
       3 -> 33        -0.00024
       3 -> 38        -0.00033
       3 -> 39         0.00016
       3 -> 41        -0.00020
       3 -> 49        -0.00011
       3 -> 51        -0.00036
       3 -> 54        -0.00021
       4 -> 10         0.00547
       4 -> 11         0.00869
       4 -> 14         0.00599
       4 -> 15        -0.00054
       4 -> 19         0.00059
       4 -> 20         0.00588
       4 -> 21         0.00250
       4 -> 25         0.00709
       4 -> 26        -0.00085
       4 -> 30        -0.00055
       4 -> 32        -0.00015
       4 -> 33        -0.00086
       4 -> 39        -0.00043
       4 -> 41         0.00021
       4 -> 43         0.00012
       4 -> 46        -0.00027
       4 -> 49        -0.00022
       5 -> 12         0.00773
       5 -> 16        -0.00210
       5 -> 18        -0.01139
       5 -> 22        -0.00064
       5 -> 24         0.00487
       5 -> 29         0.00030
       5 -> 34        -0.00016
       5 -> 35         0.00086
       5 -> 42         0.00016
       5 -> 50        -0.00035
       5 -> 53        -0.00015
       6 -> 10         0.01338
       6 -> 11        -0.00444
       6 -> 14         0.00394
       6 -> 15         0.00149
       6 -> 19         0.00572
       6 -> 20         0.00425
       6 -> 21         0.00176
       6 -> 25         0.00232
       6 -> 26        -0.00058
       6 -> 30        -0.00063
       6 -> 32         0.00055
       6 -> 33        -0.00071
       6 -> 39        -0.00011
       6 -> 43         0.00011
       6 -> 49        -0.00021
       6 -> 51         0.00055
       7 ->  9         0.01055
       7 -> 13         0.00644
       7 -> 17         0.00481
       7 -> 23         0.00488
       7 -> 28         0.00016
       7 -> 31         0.00085
       7 -> 36         0.00054
       7 -> 44         0.00062
       7 -> 47        -0.00036
       8 -> 12         0.70566
       8 -> 16        -0.02773
       8 -> 18        -0.02402
       8 -> 22         0.00510
       8 -> 24         0.00185
       8 -> 29         0.00201
       8 -> 34         0.00151
       8 -> 35        -0.00224
       8 -> 40        -0.00031
       8 -> 42        -0.00103
       8 -> 48        -0.00036
       8 -> 50        -0.00025
       8 -> 53        -0.00018
       3 <- 10         0.00058
       3 <- 11        -0.00026
       3 <- 14         0.00026
       3 <- 15        -0.00014
       3 <- 19         0.00051
       3 <- 20         0.00038
       3 <- 21         0.00019
       3 <- 25         0.00018
       3 <- 26        -0.00025
       3 <- 30         0.00074
       3 <- 32        -0.00026
       3 <- 33        -0.00011
       3 <- 38        -0.00026
       3 <- 39         0.00014
       3 <- 41        -0.00017
       3 <- 46         0.00014
       3 <- 49        -0.00012
       3 <- 51        -0.00031
       3 <- 54        -0.00019
       4 <- 10         0.00518
       4 <- 11         0.00259
       4 <- 14         0.00439
       4 <- 15        -0.00089
       4 <- 19         0.00045
       4 <- 20         0.00332
       4 <- 21         0.00101
       4 <- 25         0.00408
       4 <- 26        -0.00046
       4 <- 32        -0.00044
       4 <- 33        -0.00099
       4 <- 38        -0.00015
       4 <- 39        -0.00043
       4 <- 46        -0.00026
       4 <- 49        -0.00019
       5 <- 12         0.00276
       5 <- 16         0.00067
       5 <- 18        -0.00440
       5 <- 24         0.00264
       5 <- 34        -0.00033
       5 <- 35         0.00078
       5 <- 42         0.00014
       5 <- 50        -0.00025
       5 <- 53        -0.00014
       6 <- 10         0.00399
       6 <- 11        -0.00071
       6 <- 14         0.00173
       6 <- 15         0.00049
       6 <- 19         0.00216
       6 <- 20         0.00223
       6 <- 21         0.00069
       6 <- 25         0.00128
       6 <- 26        -0.00057
       6 <- 30        -0.00028
       6 <- 32         0.00031
       6 <- 33        -0.00058
       6 <- 39        -0.00019
       6 <- 41         0.00014
       6 <- 51         0.00051
       7 <-  9         0.00227
       7 <- 13         0.00202
       7 <- 17         0.00179
       7 <- 23         0.00267
       7 <- 31         0.00062
       7 <- 36         0.00044
       7 <- 44         0.00052
       7 <- 47        -0.00031
       8 <- 12        -0.00222
       8 <- 16        -0.00827
       8 <- 18         0.00465
       8 <- 22         0.00050
       8 <- 24        -0.00236
       8 <- 29         0.00059
       8 <- 34         0.00092
       8 <- 35        -0.00136
       8 <- 40        -0.00031
       8 <- 42        -0.00086
       8 <- 48        -0.00043
       8 <- 50        -0.00021
       8 <- 53        -0.00019

 Excited State   5:      Singlet-A2     7.8921 eV  157.10 nm  f=0.0000  <S**2>=0.000
       3 -> 27        -0.00091
       3 -> 37        -0.00081
       3 -> 45        -0.00046
       4 -> 37         0.00060
       4 -> 45         0.00014
       5 ->  9        -0.00983
       5 -> 13         0.00149
       5 -> 17         0.00500
       5 -> 23        -0.00068
       5 -> 31        -0.00195
       5 -> 36        -0.00155
       5 -> 44        -0.00026
       5 -> 52        -0.00021
       6 -> 27         0.00014
       6 -> 37         0.00028
       6 -> 45        -0.00048
       7 -> 12        -0.00048
       7 -> 16        -0.00189
       7 -> 18        -0.00153
       7 -> 22        -0.00083
       7 -> 24        -0.00023
       7 -> 29         0.00021
       7 -> 35        -0.00022
       7 -> 40         0.00011
       7 -> 42         0.00016
       7 -> 48        -0.00017
       7 -> 53        -0.00011
       8 ->  9         0.09244
       8 -> 13         0.70060
       8 -> 17         0.00926
       8 -> 23         0.02016
       8 -> 28        -0.00048
       8 -> 31        -0.00125
       8 -> 36         0.00013
       8 -> 47         0.00018
       8 -> 52        -0.00027
       3 <- 27        -0.00044
       3 <- 37        -0.00062
       3 <- 45        -0.00055
       4 <- 27        -0.00049
       4 <- 45         0.00015
       5 <-  9        -0.00025
       5 <- 13        -0.00018
       5 <- 17         0.00063
       5 <- 36        -0.00040
       6 <- 27        -0.00014
       6 <- 37         0.00023
       6 <- 45        -0.00018
       7 <- 12        -0.00064
       7 <- 16        -0.00063
       7 <- 18        -0.00061
       7 <- 22        -0.00162
       7 <- 24        -0.00021
       7 <- 29         0.00014
       7 <- 34         0.00053
       7 <- 35        -0.00091
       7 <- 40         0.00023
       7 <- 42         0.00046
       7 <- 53        -0.00021
       8 <-  9         0.00415
       8 <- 13         0.00115
       8 <- 17         0.00029
       8 <- 23        -0.00034
       8 <- 28         0.00013
       8 <- 31        -0.00031
       8 <- 36         0.00040
       8 <- 52        -0.00012

 Excited State   6:      Singlet-B2    10.2105 eV  121.43 nm  f=0.2280  <S**2>=0.000

 The electronic state is 1-A1.
 Alpha  occ. eigenvalues --  -19.14031 -10.24904  -1.18735  -0.61635  -0.55155
 Alpha  occ. eigenvalues --   -0.49396  -0.48689  -0.26269
 Alpha virt. eigenvalues --   -0.01395   0.01257   0.04241   0.04369   0.07263
 Alpha virt. eigenvalues --    0.13742   0.18076   0.19922   0.21998   0.22570
 Alpha virt. eigenvalues --    0.26956   0.35632   0.49108   0.50456   0.51450

 Mulliken charges:
               1
     1  C    0.098635
     2  H    0.053786
     3  H    0.053786
     4  O   -0.206206
 Sum of Mulliken charges =  -0.00000

 Dipole moment (field-independent basis, Debye):
    X=              0.0000    Y=              0.0000    Z=             -1.4575  Tot=              1.4575
 Quadrupole moment (field-independent basis, Debye-Ang):
   XX=            -11.1833   YY=            -11.9524   ZZ=            -12.9044
   XY=              0.0000   XZ=              0.0000   YZ=             -0.0000

 Normal termination of Gaussian 16 at Fri Sep 17 10:52:36 2021.
