 Gaussian 16, Revision C.01,
 Gaussian 16:  ES64L-G16RevC.01  3-Jul-2019

 ---------------------------------------
 #P wB97XD/6-311+G* NoSymm #P Field=X+68
 ---------------------------------------

 -------
 TitleMe
 -------
 Symbolic Z-matrix:
 Charge =  1 Multiplicity = 1

                          Input orientation:
 ---------------------------------------------------------------------
 Center     Atomic      Atomic             Coordinates (Angstroms)
 Number     Number       Type             X           Y           Z
 ---------------------------------------------------------------------
      1          6           0        0.029500    1.339700    0.068200
      2          6           0        1.434800    1.286700    0.006400
      3          6           0        2.111800    0.051100   -0.005400
      4          6           0        1.445100   -1.137200    0.031200
      5          6           0       -0.687900    0.168200    0.110000
      6          1           0       -0.471300    2.298400    0.078100
      7          1           0        2.027300    2.196500   -0.032200
      8          1           0        1.989700   -2.076400    0.023200
      9          1           0       -1.771600    0.180400    0.158200
     10          7           0        3.586400    0.051000   -0.067500
     11          8           0        4.147100   -1.059700   -0.088100
     12          8           0        4.145000    1.163900   -0.090100
     13          6           0       -0.023600   -1.145800    0.083500
     14          1           0       -0.436700   -1.872500    0.788900
     15         35           0       -0.535900   -1.869700   -1.740800
 ---------------------------------------------------------------------

 SCF Done:  E(RwB97XD) =  -3010.54028103     A.U. after   18 cycles

 Alpha  occ. eigenvalues -- -483.31547 -62.86563 -56.66264 -56.65681 -56.65677
 Alpha  occ. eigenvalues --  -19.49168 -19.49092 -14.88573 -10.58663 -10.58647
 Alpha  occ. eigenvalues --  -10.58423 -10.58172 -10.57241 -10.53394  -9.02362
 Alpha  occ. eigenvalues --   -6.85062  -6.83156  -6.83137  -2.94961  -2.94456
 Alpha  occ. eigenvalues --   -2.94440  -2.92916  -2.92915  -1.52916  -1.35932
 Alpha  occ. eigenvalues --   -1.23581  -1.15124  -1.12546  -1.04978  -1.02663
 Alpha  occ. eigenvalues --   -0.96231  -0.92074  -0.87280  -0.83022  -0.82499
 Alpha  occ. eigenvalues --   -0.82173  -0.79024  -0.78791  -0.76666  -0.73055
 Alpha  occ. eigenvalues --   -0.69896  -0.68274  -0.64518  -0.60859  -0.60372
 Alpha  occ. eigenvalues --   -0.59661  -0.59022  -0.56540  -0.55627
 Alpha virt. eigenvalues --   -0.30266  -0.23764  -0.16226  -0.14579  -0.09525
 Alpha virt. eigenvalues --   -0.06985  -0.06586  -0.05580  -0.05379  -0.03808
 Alpha virt. eigenvalues --   -0.03240  -0.02633  -0.02046  -0.00764  -0.00106

 Mulliken charges:
               1
     1  C   -0.594677
     2  C    0.540910
     3  C   -0.734626
     4  C    0.253423
     5  C    0.025742
     6  H    0.348045
     7  H    0.353921
     8  H    0.363776
     9  H    0.380624
    10  N   -0.104535
    11  O    0.000609
    12  O   -0.002631
    13  C   -0.458434
    14  H    0.415203
    15  Br   0.212650
 Sum of Mulliken charges =   1.00000

 Dipole moment (field-independent basis, Debye):
    X=             -2.8666    Y=             -0.8195    Z=             -0.1882  Tot=              2.9874
 Quadrupole moment (field-independent basis, Debye-Ang):
   XX=            -76.0748   YY=            -51.7794   ZZ=            -62.1292
   XY=              1.6166   XZ=              1.6328   YZ=              2.1361

 Normal termination of Gaussian 16 at Wed May  1 14:45:38 2024.
