 Gaussian 16, Revision A.03,
 Gaussian 16:  ES64L-G16RevA.03 25-Dec-2016

 --------------------------------------------------------------------
 #p B3LYP/6-311+G** #p TD=(singlets,nstates=30)IOp(6/8=3) IOp(9/40=4)
 --------------------------------------------------------------------

 --------------------------------
 Scan Step 269, Bond Length 1.845
 --------------------------------
 Symbolic Z-matrix:
 Charge =  0 Multiplicity = 1

                         Standard orientation:
 ---------------------------------------------------------------------
 Center     Atomic      Atomic             Coordinates (Angstroms)
 Number     Number       Type             X           Y           Z
 ---------------------------------------------------------------------
      1          6           0        0.000000   -0.000000   -0.848581
      2          1           0        0.000000    0.937260   -1.439931
      3          1           0       -0.000000   -0.937260   -1.439931
      4          8           0        0.000000    0.000000    0.996419
 ---------------------------------------------------------------------

 SCF Done:  E(RB3LYP) =  -114.341961586     A.U. after   11 cycles

 Excitation energies and oscillator strengths:

 Excited State   1:      Singlet-A2     1.2613 eV  983.02 nm  f=0.0000  <S**2>=0.000
       3 -> 27         0.00070
       3 -> 38         0.00043
       3 -> 46         0.00334
       4 -> 27         0.00037
       4 -> 46        -0.00094
       5 ->  9         0.00152
       5 -> 13         0.00110
       5 -> 18         0.00166
       5 -> 23         0.00135
       5 -> 28         0.00127
       5 -> 37         0.00072
       5 -> 44         0.00020
       5 -> 52         0.00017
       6 -> 27        -0.00057
       6 -> 38        -0.00055
       6 -> 46         0.00093
       7 -> 12        -0.00130
       7 -> 16         0.00532
       7 -> 19        -0.00471
       7 -> 22        -0.00112
       7 -> 25        -0.00055
       7 -> 29        -0.00193
       7 -> 33         0.00027
       7 -> 49         0.00013
       7 -> 53         0.00038
       8 ->  9         0.71096
       8 -> 13        -0.00661
       8 -> 18         0.02076
       8 -> 23        -0.00089
       8 -> 28         0.01024
       8 -> 31         0.00161
       8 -> 37         0.00048
       8 -> 48        -0.00029
       8 -> 52         0.00185
       3 <- 27         0.00019
       3 <- 38         0.00021
       3 <- 46         0.00336
       4 <- 27         0.00070
       4 <- 38         0.00019
       4 <- 46        -0.00073
       5 <-  9         0.00038
       5 <- 13        -0.00033
       5 <- 18        -0.00037
       5 <- 23         0.00016
       5 <- 28        -0.00028
       5 <- 31         0.00022
       5 <- 37         0.00042
       6 <- 38        -0.00042
       6 <- 46         0.00068
       7 <- 12         0.00185
       7 <- 16        -0.01054
       7 <- 19         0.00565
       7 <- 22         0.00566
       7 <- 25        -0.00063
       7 <- 29         0.00563
       7 <- 33        -0.00034
       7 <- 35         0.00014
       7 <- 40        -0.00010
       7 <- 42        -0.00010
       7 <- 49        -0.00048
       7 <- 53         0.00145
       8 <-  9        -0.07641
       8 <- 13        -0.00047
       8 <- 18        -0.00776
       8 <- 23        -0.00035
       8 <- 28        -0.00276
       8 <- 31        -0.00082
       8 <- 37        -0.00020
       8 <- 48         0.00013
       8 <- 52         0.00044
 This state for optimization and/or second-order correction.
 Total Energy, E(TD-HF/TD-DFT) =  -114.295611414
 Copying the excited state density for this state as the 1-particle RhoCI density.

 Excited State   2:      Singlet-A1     3.3188 eV  373.58 nm  f=0.0298  <S**2>=0.000
       3 -> 10        -0.01433
       3 -> 11        -0.00299
       3 -> 14         0.00126
       3 -> 15         0.00040
       3 -> 17        -0.00305
       3 -> 20        -0.00350
       3 -> 21         0.00047
       3 -> 24         0.00048
       3 -> 26         0.00127
       3 -> 30        -0.00050
       3 -> 32         0.00276
       3 -> 34        -0.00106
       3 -> 36        -0.00097
       3 -> 39        -0.00041
       3 -> 43         0.00051
       3 -> 45        -0.00101
       3 -> 47         0.00231
       3 -> 50         0.00156
       4 -> 10        -0.00145
       4 -> 11         0.01029
       4 -> 14         0.00182
       4 -> 15        -0.00767
       4 -> 17         0.00220
       4 -> 20         0.00207
       4 -> 21         0.00026
       4 -> 24        -0.00378
       4 -> 26         0.00325
       4 -> 30         0.00030
       4 -> 32        -0.00121
       4 -> 34         0.00077
       4 -> 36         0.00011
       4 -> 39        -0.00021
       4 -> 43        -0.00046
       4 -> 45         0.00077
       4 -> 47        -0.00076
       4 -> 50        -0.00027
       4 -> 54         0.00014
       5 -> 12         0.00948
       5 -> 16         0.00256
       5 -> 19         0.00114
       5 -> 22         0.00676
       5 -> 25        -0.00451
       5 -> 29         0.00034
       5 -> 33        -0.00240
       5 -> 35         0.00273
       5 -> 40        -0.00098
       5 -> 42        -0.00098
       5 -> 49         0.00013
       5 -> 51        -0.00086
       6 -> 10         0.25192
       6 -> 11         0.03658
       6 -> 14        -0.04112
       6 -> 15        -0.02269
       6 -> 17        -0.01562
       6 -> 20        -0.00144
       6 -> 21         0.00532
       6 -> 24        -0.00781
       6 -> 26        -0.00311
       6 -> 30        -0.00391
       6 -> 32         0.00414
       6 -> 34        -0.00138
       6 -> 36         0.00052
       6 -> 39        -0.00137
       6 -> 41        -0.00010
       6 -> 43         0.00081
       6 -> 45        -0.00089
       6 -> 47         0.00078
       6 -> 50         0.00055
       6 -> 54        -0.00097
       7 ->  9         0.67568
       7 -> 13        -0.00702
       7 -> 18        -0.01020
       7 -> 23        -0.00267
       7 -> 28         0.00129
       7 -> 31        -0.00328
       7 -> 37         0.00133
       7 -> 44        -0.00096
       7 -> 52         0.00105
       8 -> 12        -0.00746
       8 -> 16         0.03594
       8 -> 19        -0.01832
       8 -> 22        -0.01232
       8 -> 29        -0.00789
       8 -> 33         0.00095
       8 -> 35        -0.00069
       8 -> 40         0.00026
       8 -> 42         0.00024
       8 -> 51         0.00014
       8 -> 53        -0.00050
       3 <- 10        -0.01134
       3 <- 11        -0.00271
       3 <- 14         0.00106
       3 <- 17        -0.00175
       3 <- 20        -0.00304
       3 <- 26         0.00036
       3 <- 32         0.00239
       3 <- 34        -0.00055
       3 <- 36        -0.00099
       3 <- 39        -0.00036
       3 <- 43         0.00056
       3 <- 45        -0.00114
       3 <- 47         0.00232
       3 <- 50         0.00157
       4 <- 10         0.00018
       4 <- 11         0.00759
       4 <- 14         0.00144
       4 <- 15        -0.00530
       4 <- 17         0.00133
       4 <- 20         0.00254
       4 <- 24        -0.00290
       4 <- 26         0.00288
       4 <- 30        -0.00028
       4 <- 32        -0.00126
       4 <- 34         0.00065
       4 <- 36         0.00039
       4 <- 39        -0.00024
       4 <- 43        -0.00041
       4 <- 45         0.00071
       4 <- 47        -0.00046
       4 <- 50        -0.00014
       4 <- 54         0.00012
       5 <- 12         0.00576
       5 <- 16         0.00172
       5 <- 19         0.00092
       5 <- 22         0.00489
       5 <- 25        -0.00354
       5 <- 29         0.00035
       5 <- 33        -0.00201
       5 <- 35         0.00237
       5 <- 40        -0.00089
       5 <- 42        -0.00087
       5 <- 49         0.00013
       5 <- 51        -0.00081
       6 <- 10         0.08650
       6 <- 11         0.01541
       6 <- 14        -0.02016
       6 <- 15        -0.01225
       6 <- 17        -0.00951
       6 <- 20        -0.00221
       6 <- 21         0.00375
       6 <- 24        -0.00520
       6 <- 26        -0.00157
       6 <- 30        -0.00252
       6 <- 32         0.00400
       6 <- 34        -0.00154
       6 <- 39        -0.00124
       6 <- 41        -0.00010
       6 <- 43         0.00068
       6 <- 45        -0.00065
       6 <- 47         0.00044
       6 <- 50         0.00041
       6 <- 54        -0.00089
       7 <-  9        -0.13087
       7 <- 13         0.00326
       7 <- 18        -0.01123
       7 <- 23         0.00072
       7 <- 28        -0.00165
       7 <- 31        -0.00159
       7 <- 37         0.00063
       7 <- 44        -0.00079
       7 <- 48        -0.00042
       7 <- 52         0.00097
       8 <- 12        -0.00313
       8 <- 16         0.01827
       8 <- 19        -0.01071
       8 <- 22        -0.00823
       8 <- 25         0.00013
       8 <- 29        -0.00635
       8 <- 33         0.00076
       8 <- 35        -0.00054
       8 <- 40         0.00020
       8 <- 42         0.00019
       8 <- 51         0.00012
       8 <- 53        -0.00047

 Excited State   3:      Singlet-B2     3.6132 eV  343.14 nm  f=0.0024  <S**2>=0.000
       3 -> 12        -0.00121
       3 -> 16         0.00127
       3 -> 19        -0.00390
       3 -> 22         0.00106
       3 -> 25        -0.00087
       3 -> 29        -0.00258
       3 -> 33         0.00023
       3 -> 35         0.00140
       3 -> 40        -0.00129
       3 -> 42        -0.00049
       3 -> 49        -0.00387
       3 -> 51         0.00017
       3 -> 53         0.00027
       4 -> 12         0.00039
       4 -> 16        -0.00147
       4 -> 19         0.00037
       4 -> 22         0.00177
       4 -> 25         0.00064
       4 -> 29         0.00090
       4 -> 33        -0.00033
       4 -> 35         0.00043
       4 -> 40         0.00028
       4 -> 42         0.00012
       4 -> 49         0.00073
       5 -> 10         0.01007
       5 -> 11         0.00130
       5 -> 14        -0.00343
       5 -> 15         0.00318
       5 -> 17        -0.00051
       5 -> 20         0.00197
       5 -> 21         0.00310
       5 -> 24         0.00142
       5 -> 26        -0.00053
       5 -> 30        -0.00210
       5 -> 32        -0.00127
       5 -> 34         0.00026
       5 -> 39         0.00066
       5 -> 41         0.00042
       5 -> 47        -0.00040
       5 -> 50         0.00026
       5 -> 54        -0.00019
       6 -> 12         0.00247
       6 -> 16        -0.00275
       6 -> 19         0.00414
       6 -> 22        -0.00062
       6 -> 25         0.00113
       6 -> 29         0.00015
       6 -> 33        -0.00013
       6 -> 35        -0.00125
       6 -> 40         0.00083
       6 -> 42         0.00065
       6 -> 49         0.00123
       6 -> 53        -0.00045
       7 -> 27        -0.00054
       7 -> 38         0.00034
       7 -> 46         0.00306
       8 -> 10         0.70306
       8 -> 11         0.05957
       8 -> 14        -0.05552
       8 -> 15        -0.02247
       8 -> 17        -0.01648
       8 -> 20         0.00489
       8 -> 21         0.00600
       8 -> 24        -0.00582
       8 -> 26        -0.00445
       8 -> 30        -0.01307
       8 -> 32        -0.00128
       8 -> 34         0.00119
       8 -> 36         0.00143
       8 -> 39         0.00052
       8 -> 41        -0.00016
       8 -> 45        -0.00083
       8 -> 47        -0.00377
       8 -> 50         0.00145
       8 -> 54        -0.00243
       3 <- 12        -0.00043
       3 <- 16         0.00044
       3 <- 19        -0.00193
       3 <- 22         0.00093
       3 <- 25        -0.00078
       3 <- 29        -0.00105
       3 <- 33         0.00023
       3 <- 35         0.00094
       3 <- 40        -0.00111
       3 <- 42        -0.00035
       3 <- 49        -0.00393
       3 <- 51         0.00016
       3 <- 53         0.00073
       4 <- 12         0.00010
       4 <- 16        -0.00170
       4 <- 19         0.00018
       4 <- 22         0.00209
       4 <- 25         0.00036
       4 <- 29         0.00112
       4 <- 33        -0.00035
       4 <- 35         0.00062
       4 <- 40         0.00012
       4 <- 49         0.00051
       5 <- 10        -0.00092
       5 <- 11        -0.00066
       5 <- 14        -0.00047
       5 <- 15         0.00250
       5 <- 17         0.00020
       5 <- 20         0.00077
       5 <- 21         0.00164
       5 <- 24         0.00162
       5 <- 26        -0.00012
       5 <- 30        -0.00045
       5 <- 32        -0.00029
       5 <- 39         0.00030
       5 <- 41         0.00044
       5 <- 45        -0.00022
       5 <- 47        -0.00041
       5 <- 50         0.00014
       6 <- 12        -0.00077
       6 <- 16         0.00774
       6 <- 19        -0.00416
       6 <- 22        -0.00516
       6 <- 25         0.00122
       6 <- 29        -0.00608
       6 <- 33         0.00022
       6 <- 35        -0.00108
       6 <- 40         0.00083
       6 <- 42         0.00067
       6 <- 49         0.00171
       6 <- 53        -0.00141
       7 <- 27        -0.00054
       7 <- 38         0.00028
       7 <- 46         0.00264
       8 <- 10        -0.04347
       8 <- 11        -0.00744
       8 <- 14         0.00769
       8 <- 15         0.00224
       8 <- 17         0.00197
       8 <- 20        -0.00325
       8 <- 21        -0.00134
       8 <- 24         0.00153
       8 <- 26         0.00121
       8 <- 30         0.00166
       8 <- 32         0.00282
       8 <- 34        -0.00085
       8 <- 36        -0.00079
       8 <- 39        -0.00109
       8 <- 41         0.00022
       8 <- 43         0.00041
       8 <- 45        -0.00157
       8 <- 47        -0.00312
       8 <- 50         0.00118
       8 <- 54        -0.00065

 Excited State   4:      Singlet-B1     3.7759 eV  328.36 nm  f=0.0002  <S**2>=0.000
       3 ->  9        -0.02270
       3 -> 13         0.00083
       3 -> 18        -0.00373
       3 -> 23         0.00122
       3 -> 28        -0.00104
       3 -> 31        -0.00083
       3 -> 37         0.00016
       3 -> 44         0.00034
       3 -> 52         0.00069
       4 ->  9         0.00501
       4 -> 13        -0.00126
       4 -> 18         0.00017
       4 -> 23        -0.00116
       4 -> 28         0.00058
       4 -> 31        -0.00114
       4 -> 37        -0.00022
       4 -> 48        -0.00040
       4 -> 52        -0.00027
       5 -> 27        -0.00058
       5 -> 38         0.00126
       5 -> 46         0.00043
       6 ->  9         0.63760
       6 -> 13        -0.01615
       6 -> 18         0.01370
       6 -> 23        -0.00974
       6 -> 28         0.00366
       6 -> 31         0.00181
       6 -> 37        -0.00122
       6 -> 44        -0.00162
       6 -> 48         0.00319
       6 -> 52         0.00085
       7 -> 10         0.30938
       7 -> 11         0.02917
       7 -> 14        -0.02833
       7 -> 15        -0.01061
       7 -> 17        -0.01072
       7 -> 20         0.00391
       7 -> 21         0.00203
       7 -> 24        -0.00370
       7 -> 26        -0.00342
       7 -> 30        -0.00563
       7 -> 32         0.00043
       7 -> 34        -0.00024
       7 -> 36         0.00131
       7 -> 39        -0.00015
       7 -> 41        -0.00017
       7 -> 43         0.00048
       7 -> 45        -0.00073
       7 -> 47         0.00350
       7 -> 50         0.00119
       7 -> 54        -0.00039
       8 -> 27         0.00012
       8 -> 46         0.00428
       3 <-  9        -0.00758
       3 <- 13        -0.00077
       3 <- 18        -0.00248
       3 <- 23        -0.00045
       3 <- 28        -0.00060
       3 <- 31        -0.00077
       3 <- 37         0.00015
       3 <- 48         0.00018
       3 <- 52         0.00069
       4 <-  9         0.00367
       4 <- 13        -0.00012
       4 <- 18         0.00136
       4 <- 23        -0.00040
       4 <- 28         0.00145
       4 <- 31        -0.00082
       4 <- 37        -0.00012
       4 <- 44        -0.00020
       4 <- 48        -0.00038
       4 <- 52        -0.00013
       5 <- 27        -0.00088
       5 <- 38         0.00112
       5 <- 46         0.00039
       6 <-  9        -0.04543
       6 <- 13         0.00223
       6 <- 18        -0.00534
       6 <- 23         0.00033
       6 <- 28        -0.00412
       6 <- 31        -0.00047
       6 <- 37        -0.00093
       6 <- 44        -0.00030
       6 <- 48         0.00291
       6 <- 52        -0.00016
       7 <- 10        -0.05274
       7 <- 11        -0.00913
       7 <- 14         0.01295
       7 <- 15         0.00783
       7 <- 17         0.00326
       7 <- 20         0.00213
       7 <- 21        -0.00327
       7 <- 24         0.00385
       7 <- 26         0.00180
       7 <- 30         0.00219
       7 <- 32         0.00025
       7 <- 34        -0.00075
       7 <- 36         0.00099
       7 <- 39        -0.00057
       7 <- 41         0.00020
       7 <- 43         0.00027
       7 <- 45        -0.00046
       7 <- 47         0.00324
       7 <- 50         0.00134
       7 <- 54         0.00070
       8 <- 27         0.00054
       8 <- 46         0.00398

 Excited State   5:      Singlet-B1     4.3907 eV  282.38 nm  f=0.0067  <S**2>=0.000
       3 ->  9        -0.00232
       3 -> 18        -0.00163
       3 -> 23         0.00029
       3 -> 28        -0.00238
       3 -> 31        -0.00132
       3 -> 48        -0.00319
       3 -> 52        -0.00025
       4 ->  9        -0.03017
       4 -> 13         0.00599
       4 -> 18         0.00083
       4 -> 23         0.00469
       4 -> 28         0.00093
       4 -> 31         0.00045
       4 -> 37         0.00034
       4 -> 44        -0.00041
       4 -> 48         0.00090
       4 -> 52         0.00018
       5 -> 27        -0.00623
       5 -> 38        -0.00354
       5 -> 46         0.00014
       6 ->  9        -0.30844
       6 -> 13         0.00392
       6 -> 18        -0.00093
       6 -> 23         0.00285
       6 -> 28         0.00249
       6 -> 31        -0.00404
       6 -> 37         0.00251
       6 -> 44         0.00095
       6 -> 48        -0.00070
       6 -> 52        -0.00089
       7 -> 10         0.63232
       7 -> 11         0.04583
       7 -> 14        -0.04541
       7 -> 15        -0.02729
       7 -> 17        -0.00803
       7 -> 20        -0.00224
       7 -> 21         0.00287
       7 -> 24        -0.00867
       7 -> 26        -0.00520
       7 -> 30        -0.00712
       7 -> 32        -0.00107
       7 -> 34         0.00358
       7 -> 36        -0.00138
       7 -> 39         0.00062
       7 -> 43         0.00046
       7 -> 45        -0.00087
       7 -> 47         0.00044
       7 -> 50         0.00018
       7 -> 54        -0.00167
       8 -> 27         0.00057
       8 -> 38         0.00019
       8 -> 46         0.00055
       3 <-  9        -0.00022
       3 <- 13         0.00077
       3 <- 18        -0.00049
       3 <- 23         0.00064
       3 <- 28        -0.00167
       3 <- 37        -0.00026
       3 <- 44        -0.00010
       3 <- 48        -0.00331
       3 <- 52         0.00017
       4 <-  9        -0.01412
       4 <- 13         0.00287
       4 <- 23         0.00286
       4 <- 28         0.00085
       4 <- 31         0.00026
       4 <- 37         0.00036
       4 <- 44        -0.00059
       4 <- 48         0.00050
       4 <- 52         0.00015
       5 <- 27        -0.00451
       5 <- 38        -0.00293
       5 <- 46         0.00016
       6 <-  9        -0.02539
       6 <- 13        -0.00042
       6 <- 18        -0.00304
       6 <- 23         0.00062
       6 <- 28         0.00017
       6 <- 31        -0.00474
       6 <- 37         0.00238
       6 <- 44         0.00089
       6 <- 52        -0.00129
       7 <- 10        -0.01415
       7 <- 11        -0.00197
       7 <- 14         0.00105
       7 <- 15        -0.00492

 The electronic state is 1-A1.
 Alpha  occ. eigenvalues --  -19.17754 -10.34003  -0.89065  -0.71518  -0.49272
 Alpha  occ. eigenvalues --   -0.38726  -0.30604  -0.28683
 Alpha virt. eigenvalues --   -0.17309  -0.07713  -0.00089   0.04043   0.06090
 Alpha virt. eigenvalues --    0.06367   0.11726   0.13259   0.18710   0.20987
 Alpha virt. eigenvalues --    0.23940   0.30413   0.38510   0.39511   0.50593

 Mulliken charges:
               1
     1  C   -0.099580
     2  H    0.192742
     3  H    0.192742
     4  O   -0.285905
 Sum of Mulliken charges =  -0.00000

 Dipole moment (field-independent basis, Debye):
    X=             -0.0000    Y=              0.0000    Z=             -4.2049  Tot=              4.2049
 Quadrupole moment (field-independent basis, Debye-Ang):
   XX=            -13.0532   YY=            -12.0502   ZZ=            -10.5913
   XY=              0.0000   XZ=              0.0000   YZ=              0.0000

 Normal termination of Gaussian 16 at Fri Sep 17 10:53:10 2021.
