 Gaussian 16, Revision A.03,
 Gaussian 16:  ES64L-G16RevA.03 25-Dec-2016

 --------------------------------------------------------------------
 #p B3LYP/6-311+G** #p TD=(singlets,nstates=30)IOp(6/8=3) IOp(9/40=4)
 --------------------------------------------------------------------

 ------------------------------
 Scan Step 26, Bond Length 0.63
 ------------------------------
 Symbolic Z-matrix:
 Charge =  0 Multiplicity = 1

                         Standard orientation:
 ---------------------------------------------------------------------
 Center     Atomic      Atomic             Coordinates (Angstroms)
 Number     Number       Type             X           Y           Z
 ---------------------------------------------------------------------
      1          6           0        0.000000    0.000000   -0.241081
      2          1           0        0.000000    0.937260   -0.832431
      3          1           0       -0.000000   -0.937260   -0.832431
      4          8           0        0.000000   -0.000000    0.388919
 ---------------------------------------------------------------------

 SCF Done:  E(RB3LYP) =  -112.114688616     A.U. after   10 cycles

 Excitation energies and oscillator strengths:

 Excited State   1:      Singlet-B2     4.6391 eV  267.26 nm  f=0.1332  <S**2>=0.000
       3 -> 11         0.00075
       3 -> 16         0.00078
       3 -> 19         0.00075
       3 -> 22         0.00063
       3 -> 24         0.00108
       3 -> 29         0.00017
       3 -> 32        -0.00023
       3 -> 40        -0.00030
       3 -> 43         0.00022
       3 -> 54         0.00016
       4 ->  9        -0.00274
       4 -> 12         0.00243
       4 -> 13         0.00326
       4 -> 15         0.00142
       4 -> 18         0.00240
       4 -> 20         0.00210
       4 -> 21         0.00161
       4 -> 25         0.00136
       4 -> 26        -0.00077
       4 -> 30         0.00107
       4 -> 31         0.00136
       4 -> 33         0.00011
       4 -> 38        -0.00060
       4 -> 42         0.00047
       4 -> 44        -0.00028
       4 -> 47         0.00075
       4 -> 49        -0.00012
       4 -> 51        -0.00010
       4 -> 53        -0.00011
       5 -> 28         0.00195
       5 -> 35         0.00088
       5 -> 45         0.00075
       6 -> 11        -0.00557
       6 -> 16         0.00344
       6 -> 22        -0.00038
       6 -> 24         0.00451
       6 -> 29         0.00072
       6 -> 32        -0.00066
       6 -> 40        -0.00013
       6 -> 43         0.00015
       6 -> 46         0.00035
       7 -> 11         0.00885
       7 -> 16         0.00369
       7 -> 19         0.00334
       7 -> 22         0.00029
       7 -> 24         0.00077
       7 -> 29        -0.00118
       7 -> 32         0.00096
       7 -> 37        -0.00068
       7 -> 43        -0.00039
       7 -> 46         0.00041
       7 -> 50         0.00042
       7 -> 54        -0.00011
       8 ->  9         0.70494
       8 -> 12        -0.00140
       8 -> 13         0.05415
       8 -> 15        -0.00538
       8 -> 18        -0.02262
       8 -> 20         0.00540
       8 -> 21         0.01072
       8 -> 25        -0.00026
       8 -> 26        -0.00063
       8 -> 30        -0.00332
       8 -> 31        -0.00195
       8 -> 33        -0.00086
       8 -> 38        -0.00109
       8 -> 42         0.00076
       8 -> 44         0.00040
       8 -> 47        -0.00069
       8 -> 49         0.00027
       3 <- 11         0.00034
       3 <- 16         0.00043
       3 <- 19         0.00048
       3 <- 22         0.00052
       3 <- 24         0.00081
       3 <- 29         0.00011
       3 <- 32        -0.00024
       3 <- 40        -0.00030
       3 <- 43         0.00022
       3 <- 54         0.00016
       4 <-  9        -0.00114
       4 <- 12        -0.00019
       4 <- 13         0.00268
       4 <- 15         0.00166
       4 <- 18         0.00039
       4 <- 20         0.00128
       4 <- 21         0.00130
       4 <- 25         0.00100
       4 <- 26        -0.00133
       4 <- 30         0.00081
       4 <- 31         0.00058
       4 <- 33         0.00016
       4 <- 38        -0.00039
       4 <- 39         0.00015
       4 <- 42         0.00038
       4 <- 44        -0.00023
       4 <- 47         0.00067
       5 <- 28         0.00165
       5 <- 35         0.00072
       5 <- 45         0.00063
       6 <- 11        -0.00133
       6 <- 16         0.00312
       6 <- 19         0.00038
       6 <- 22         0.00020
       6 <- 24         0.00336
       6 <- 29         0.00024
       6 <- 32        -0.00059
       6 <- 37         0.00016
       6 <- 40        -0.00011
       6 <- 43         0.00012
       6 <- 46         0.00032
       6 <- 50         0.00016
       7 <- 11         0.00205
       7 <- 16         0.00154
       7 <- 19         0.00056
       7 <- 24         0.00011
       7 <- 29        -0.00170
       7 <- 32         0.00080
       7 <- 37        -0.00043
       7 <- 43        -0.00026
       7 <- 46         0.00044
       7 <- 50         0.00049
       8 <-  9        -0.01031
       8 <- 12        -0.00618
       8 <- 13         0.02231
       8 <- 15         0.00696
       8 <- 18         0.00105
       8 <- 20         0.00086
       8 <- 21         0.00555
       8 <- 25         0.00297
       8 <- 26        -0.00032
       8 <- 30        -0.00222
       8 <- 31        -0.00142
       8 <- 33        -0.00127
       8 <- 38        -0.00105
       8 <- 42         0.00066
       8 <- 44         0.00013
       8 <- 47        -0.00060
       8 <- 49         0.00018
 This state for optimization and/or second-order correction.
 Total Energy, E(TD-HF/TD-DFT) =  -111.944204603
 Copying the excited state density for this state as the 1-particle RhoCI density.

 Excited State   2:      Singlet-A2     4.9945 eV  248.24 nm  f=0.0000  <S**2>=0.000
       3 -> 28        -0.00184
       3 -> 35        -0.00107
       3 -> 45        -0.00036
       4 -> 10        -0.00080
       4 -> 17         0.00302
       4 -> 23        -0.00118
       4 -> 27        -0.00209
       4 -> 34         0.00015
       4 -> 36        -0.00126
       4 -> 41        -0.00011
       4 -> 48        -0.00014
       4 -> 52        -0.00024
       5 -> 11         0.00024
       5 -> 16        -0.00018
       5 -> 19         0.00033
       5 -> 22        -0.00080
       5 -> 24         0.00025
       5 -> 29         0.00029
       5 -> 37        -0.00032
       5 -> 40         0.00012
       5 -> 43        -0.00037
       5 -> 46        -0.00031
       5 -> 50         0.00018
       6 -> 28        -0.00312
       6 -> 35         0.00052
       7 -> 28         0.00168
       7 -> 35        -0.00035
       7 -> 45        -0.00037
       8 -> 10         0.70645
       8 -> 14        -0.01553
       8 -> 17        -0.02706
       8 -> 23        -0.00352
       8 -> 27         0.00091
       8 -> 34         0.00331
       8 -> 36        -0.00174
       8 -> 41         0.00039
       8 -> 48         0.00014
       8 -> 52         0.00032
       3 <- 28        -0.00153
       3 <- 35        -0.00093
       3 <- 45        -0.00034
       4 <- 10        -0.00019
       4 <- 14         0.00052
       4 <- 17         0.00080
       4 <- 23        -0.00014
       4 <- 27        -0.00043
       4 <- 34         0.00070
       4 <- 36        -0.00073
       4 <- 41        -0.00018
       5 <- 11         0.00054
       5 <- 16        -0.00051
       5 <- 19         0.00127
       5 <- 22        -0.00107
       5 <- 24         0.00095
       5 <- 29         0.00127
       5 <- 32         0.00016
       5 <- 37        -0.00065
       5 <- 43        -0.00041
       5 <- 46        -0.00033
       5 <- 54        -0.00021
       6 <- 28        -0.00302
       6 <- 35         0.00066
       7 <- 28         0.00172
       7 <- 35        -0.00047
       7 <- 45        -0.00039
       8 <- 10         0.00219
       8 <- 14         0.00400
       8 <- 17         0.00679
       8 <- 23        -0.00018
       8 <- 27        -0.00063
       8 <- 34         0.00316
       8 <- 36        -0.00138
       8 <- 41         0.00024
       8 <- 52         0.00012

 Excited State   3:      Singlet-B2     5.6381 eV  219.90 nm  f=0.0361  <S**2>=0.000
       3 -> 11        -0.00018
       3 -> 16         0.00044
       3 -> 19        -0.00035
       3 -> 22         0.00030
       3 -> 24         0.00025
       3 -> 29        -0.00029
       3 -> 32         0.00012
       3 -> 37        -0.00019
       3 -> 40         0.00014
       3 -> 43        -0.00020
       3 -> 46         0.00012
       3 -> 54        -0.00018
       4 ->  9         0.00134
       4 -> 12         0.00026
       4 -> 13         0.00107
       4 -> 15         0.00211
       4 -> 18        -0.00107
       4 -> 20        -0.00056
       4 -> 21         0.00109
       4 -> 25         0.00087
       4 -> 26         0.00041
       4 -> 30        -0.00215
       4 -> 31        -0.00030
       4 -> 38         0.00033
       4 -> 39        -0.00095
       4 -> 42        -0.00030
       4 -> 47        -0.00047
       5 -> 28        -0.00100
       5 -> 35        -0.00118
       5 -> 45        -0.00064
       6 -> 11        -0.00075
       6 -> 16         0.00357
       6 -> 19        -0.00192
       6 -> 22        -0.00010
       6 -> 24         0.00161
       6 -> 29         0.00193
       6 -> 32         0.00042
       6 -> 37         0.00059
       6 -> 40         0.00042
       6 -> 43         0.00029
       6 -> 46        -0.00031
       6 -> 50        -0.00024
       6 -> 54         0.00015
       7 -> 11        -0.00162
       7 -> 16        -0.00437
       7 -> 19        -0.00102
       7 -> 22         0.00036
       7 -> 24        -0.00317
       7 -> 29        -0.00115
       7 -> 32        -0.00048
       7 -> 37         0.00050
       7 -> 43         0.00011
       7 -> 46        -0.00055
       7 -> 50        -0.00027
       7 -> 54         0.00014
       8 ->  9        -0.00058
       8 -> 12         0.70559
       8 -> 13         0.03555
       8 -> 15         0.02668
       8 -> 18         0.00642
       8 -> 20         0.01574
       8 -> 21         0.00546
       8 -> 25        -0.00094
       8 -> 26         0.00193
       8 -> 30        -0.00279
       8 -> 31         0.00054
       8 -> 33        -0.00019
       8 -> 38        -0.00056
       8 -> 39         0.00142
       8 -> 42         0.00088
       8 -> 44        -0.00011
       8 -> 47         0.00034
       8 -> 53        -0.00016
       3 <- 16         0.00041
       3 <- 19        -0.00011
       3 <- 22         0.00015
       3 <- 24         0.00032
       3 <- 29        -0.00015
       3 <- 32         0.00013
       3 <- 37        -0.00020
       3 <- 40         0.00011
       3 <- 43        -0.00018
       3 <- 54        -0.00023
       4 <-  9        -0.00112
       4 <- 12        -0.00018
       4 <- 13         0.00115
       4 <- 15         0.00067
       4 <- 18         0.00057
       4 <- 20        -0.00041
       4 <- 21         0.00075
       4 <- 25         0.00097
       4 <- 26         0.00049
       4 <- 30        -0.00143
       4 <- 33        -0.00056
       4 <- 38         0.00022
       4 <- 39        -0.00070
       4 <- 42        -0.00032
       4 <- 47        -0.00043
       5 <- 28        -0.00061
       5 <- 35        -0.00102
       5 <- 45        -0.00057
       6 <- 11        -0.00054
       6 <- 16         0.00072
       6 <- 19         0.00020
       6 <- 22        -0.00056
       6 <- 24         0.00146
       6 <- 29         0.00150
       6 <- 32         0.00060
       6 <- 37         0.00055
       6 <- 40         0.00036
       6 <- 43         0.00021
       6 <- 46        -0.00026
       6 <- 50        -0.00019
       6 <- 54         0.00011
       7 <- 11         0.00017
       7 <- 16        -0.00143
       7 <- 19        -0.00058
       7 <- 22         0.00026
       7 <- 24        -0.00190
       7 <- 29        -0.00032
       7 <- 32        -0.00040
       7 <- 37         0.00016
       7 <- 46        -0.00049
       7 <- 50        -0.00035
       8 <-  9        -0.00567
       8 <- 12         0.00088
       8 <- 13         0.01178
       8 <- 15         0.00466
       8 <- 18        -0.00124
       8 <- 20        -0.00315
       8 <- 21         0.00330
       8 <- 25         0.00063
       8 <- 30        -0.00230
       8 <- 31         0.00053
       8 <- 33        -0.00014
       8 <- 38        -0.00040
       8 <- 39         0.00126
       8 <- 42         0.00077
       8 <- 47         0.00028

 Excited State   4:      Singlet-A1     5.8322 eV  212.58 nm  f=0.0039  <S**2>=0.000
       3 ->  9         0.00136
       3 -> 12        -0.00044
       3 -> 13         0.00021
       3 -> 15        -0.00079
       3 -> 18        -0.00160
       3 -> 20        -0.00015
       3 -> 21         0.00088
       3 -> 25        -0.00078
       3 -> 26        -0.00033
       3 -> 30         0.00066
       3 -> 31        -0.00081
       3 -> 33         0.00050
       3 -> 38         0.00041
       3 -> 39         0.00033
       3 -> 44        -0.00012
       3 -> 47         0.00011
       3 -> 51         0.00019
       4 -> 11        -0.00587
       4 -> 16        -0.00575
       4 -> 19        -0.00471
       4 -> 22        -0.00257
       4 -> 24        -0.00324
       4 -> 37        -0.00099
       4 -> 40        -0.00014
       4 -> 43         0.00023
       4 -> 50         0.00014
       5 -> 10        -0.00294
       5 -> 14        -0.00380
       5 -> 17         0.00198
       5 -> 23         0.00354
       5 -> 27        -0.00073
       5 -> 34        -0.00083
       5 -> 36        -0.00059
       5 -> 48         0.00017
       6 ->  9         0.01151
       6 -> 12         0.00614
       6 -> 13        -0.00369
       6 -> 15        -0.00471
       6 -> 18        -0.00720
       6 -> 20         0.00408
       6 -> 21         0.00176
       6 -> 25        -0.00547
       6 -> 26         0.00103
       6 -> 30        -0.00039
       6 -> 31         0.00189
       6 -> 33         0.00201
       6 -> 38         0.00138
       6 -> 39        -0.00110
       6 -> 42        -0.00019
       6 -> 44         0.00069
       6 -> 47         0.00012
       6 -> 49        -0.00042
       7 ->  9         0.00721
       7 -> 12        -0.01241
       7 -> 13         0.00074
       7 -> 15         0.00586
       7 -> 18        -0.00736
       7 -> 20        -0.00388
       7 -> 21        -0.00124
       7 -> 25         0.00144
       7 -> 26        -0.00350
       7 -> 30        -0.00080
       7 -> 31        -0.00180
       7 -> 33         0.00018
       7 -> 38        -0.00088
       7 -> 39         0.00055
       7 -> 42         0.00016
       7 -> 44        -0.00037
       7 -> 51        -0.00016
       8 -> 11         0.70457
       8 -> 16         0.05451
       8 -> 19        -0.02083
       8 -> 22        -0.00095
       8 -> 24         0.00814
       8 -> 29        -0.00348
       8 -> 32         0.00207
       8 -> 37        -0.00341
       8 -> 40        -0.00049
       8 -> 43         0.00187
       8 -> 46        -0.00101
       8 -> 50         0.00022
       3 <-  9         0.00078
       3 <- 12        -0.00021
       3 <- 13         0.00017
       3 <- 15        -0.00052
       3 <- 18        -0.00103
       3 <- 20        -0.00011
       3 <- 21         0.00061
       3 <- 25        -0.00059
       3 <- 26        -0.00026
       3 <- 30         0.00052
       3 <- 31        -0.00057
       3 <- 33         0.00042
       3 <- 38         0.00032
       3 <- 39         0.00027
       3 <- 44        -0.00012
       3 <- 47         0.00014
       3 <- 51         0.00016
       4 <- 11        -0.00250
       4 <- 16        -0.00242
       4 <- 19        -0.00275
       4 <- 22        -0.00182
       4 <- 24        -0.00181
       4 <- 29        -0.00011
       4 <- 32         0.00011
       4 <- 37        -0.00083
       4 <- 40        -0.00013
       4 <- 43         0.00022
       4 <- 50         0.00013
       5 <- 10        -0.00169
       5 <- 14        -0.00228
       5 <- 17         0.00124
       5 <- 23         0.00250
       5 <- 27        -0.00054
       5 <- 34        -0.00069
       5 <- 36        -0.00050
       5 <- 48         0.00015
       6 <-  9         0.00817
       6 <- 12         0.00317
       6 <- 13        -0.00296
       6 <- 15        -0.00371
       6 <- 18        -0.00387
       6 <- 20         0.00225
       6 <- 21         0.00202
       6 <- 25        -0.00371
       6 <- 26         0.00068
       6 <- 31         0.00140
       6 <- 33         0.00145
       6 <- 38         0.00134
       6 <- 39        -0.00084
       6 <- 42        -0.00018
       6 <- 44         0.00067
       6 <- 49        -0.00035
       7 <- 12        -0.00512
       7 <- 13         0.00147
       7 <- 15         0.00402
       7 <- 18        -0.00349
       7 <- 20        -0.00182
       7 <- 21        -0.00126
       7 <- 25         0.00105
       7 <- 26        -0.00234
       7 <- 30        -0.00078
       7 <- 31        -0.00137
       7 <- 33         0.00014
       7 <- 38        -0.00079
       7 <- 39         0.00031
       7 <- 44        -0.00037
       7 <- 47        -0.00011
       7 <- 51        -0.00015
       8 <- 11        -0.01161
       8 <- 16         0.00516
       8 <- 19        -0.01605
       8 <- 22        -0.00430
       8 <- 24         0.00389
       8 <- 29        -0.00258
       8 <- 32         0.00188
       8 <- 37        -0.00273
       8 <- 40        -0.00020
       8 <- 43         0.00151
       8 <- 46        -0.00096
       8 <- 50         0.00022

 Excited State   5:      Singlet-A2     8.2969 eV  149.43 nm  f=0.0000  <S**2>=0.000
       3 -> 28         0.00247
       3 -> 35         0.00152
       3 -> 45         0.00047
       4 -> 10        -0.00022
       4 -> 14        -0.00615
       4 -> 17        -0.00177
       4 -> 23         0.00317
       4 -> 27         0.00056
       4 -> 34         0.00070
       4 -> 36         0.00226
       4 -> 41        -0.00013
       4 -> 52         0.00026
       5 -> 16        -0.00027
       5 -> 19        -0.00047
       5 -> 22         0.00121
       5 -> 24        -0.00073
       5 -> 37         0.00041
       5 -> 40        -0.00016
       5 -> 43         0.00058
       5 -> 46         0.00040
       5 -> 50        -0.00013
       5 -> 54         0.00012
       6 -> 28         0.00263
       6 -> 35        -0.00064
       7 -> 28        -0.00152
       7 -> 35         0.00038
       7 -> 45         0.00041
       8 -> 10         0.01801
       8 -> 14         0.70319
       8 -> 17         0.06957
       8 -> 23        -0.01859
       8 -> 27        -0.00222
       8 -> 34        -0.00278
       8 -> 36         0.00277
       8 -> 41        -0.00018
       8 -> 52        -0.00035
       3 <- 28         0.00172
       3 <- 35         0.00123
       3 <- 45         0.00052
       4 <- 10         0.00031
       4 <- 14        -0.00057
       4 <- 17        -0.00061
       4 <- 23         0.00023
       4 <- 27         0.00030
       4 <- 34        -0.00060
       4 <- 36         0.00088
       4 <- 41         0.00023
       5 <- 11         0.00040
       5 <- 16        -0.00015
       5 <- 19        -0.00034
       5 <- 22         0.00143
       5 <- 24        -0.00142
       5 <- 29        -0.00036
       5 <- 32        -0.00050
       5 <- 37         0.00101
       5 <- 43         0.00064
       5 <- 46         0.00014
       5 <- 54         0.00024
       6 <- 28         0.00274
       6 <- 35        -0.00058
       6 <- 45        -0.00012
       7 <- 28        -0.00142
       7 <- 45         0.00023
       8 <- 10         0.00449
       8 <- 14        -0.00224
       8 <- 17        -0.00458
       8 <- 23         0.00080
       8 <- 27         0.00044
       8 <- 34        -0.00306
       8 <- 36         0.00147
       8 <- 41        -0.00023
       8 <- 52        -0.00015

 The electronic state is 1-A1.
 Alpha  occ. eigenvalues --  -19.23586 -10.38097  -1.29095  -0.84115  -0.81291
 Alpha  occ. eigenvalues --   -0.58260  -0.53419  -0.19967
 Alpha virt. eigenvalues --    0.00508   0.02679   0.04426   0.04698   0.14294
 Alpha virt. eigenvalues --    0.15625   0.17931   0.18037   0.21793   0.22670
 Alpha virt. eigenvalues --    0.27851   0.36599   0.50698   0.57540   0.59920

 Mulliken charges:
               1
     1  C    0.258225
     2  H   -0.115647
     3  H   -0.115647
     4  O   -0.026931
 Sum of Mulliken charges =  -0.00000

 Dipole moment (field-independent basis, Debye):
    X=              0.0000    Y=              0.0000    Z=              1.4091  Tot=              1.4091
 Quadrupole moment (field-independent basis, Debye-Ang):
   XX=            -10.1268   YY=            -13.9570   ZZ=            -13.6876
   XY=             -0.0000   XZ=             -0.0000   YZ=             -0.0000

 Normal termination of Gaussian 16 at Fri Sep 17 10:52:24 2021.
