 Gaussian 16, Revision A.03,
 Gaussian 16:  ES64L-G16RevA.03 25-Dec-2016

 --------------------------------------------------------------------
 #p B3LYP/6-311+G** #p TD=(singlets,nstates=30)IOp(6/8=3) IOp(9/40=4)
 --------------------------------------------------------------------

 -------------------------------
 Scan Step 146, Bond Length 1.23
 -------------------------------
 Symbolic Z-matrix:
 Charge =  0 Multiplicity = 1

                         Standard orientation:
 ---------------------------------------------------------------------
 Center     Atomic      Atomic             Coordinates (Angstroms)
 Number     Number       Type             X           Y           Z
 ---------------------------------------------------------------------
      1          6           0        0.000000    0.000000   -0.541081
      2          1           0        0.000000    0.937260   -1.132431
      3          1           0       -0.000000   -0.937260   -1.132431
      4          8           0        0.000000    0.000000    0.688919
 ---------------------------------------------------------------------

 SCF Done:  E(RB3LYP) =  -114.540548117     A.U. after    9 cycles

 Excitation energies and oscillator strengths:

 Excited State   1:      Singlet-A2     3.7968 eV  326.55 nm  f=0.0000  <S**2>=0.000
       3 -> 27         0.00241
       3 -> 38         0.00203
       3 -> 45         0.00255
       4 -> 27         0.00183
       4 -> 38        -0.00053
       4 -> 45        -0.00132
       5 ->  9         0.02071
       5 -> 13        -0.00280
       5 -> 17         0.00553
       5 -> 29         0.00437
       5 -> 31        -0.00214
       5 -> 37         0.00332
       5 -> 44         0.00061
       5 -> 47         0.00014
       5 -> 52         0.00075
       6 -> 27        -0.00016
       6 -> 38        -0.00085
       6 -> 45         0.00178
       7 -> 12        -0.00062
       7 -> 15         0.00293
       7 -> 18        -0.00285
       7 -> 22         0.00062
       7 -> 25         0.00143
       7 -> 30        -0.00094
       7 -> 33         0.00044
       7 -> 35        -0.00025
       7 -> 40         0.00023
       7 -> 42        -0.00011
       7 -> 49         0.00033
       7 -> 50         0.00033
       7 -> 53         0.00047
       8 ->  9         0.70560
       8 -> 13        -0.04093
       8 -> 17         0.02296
       8 -> 23        -0.01001
       8 -> 29         0.00928
       8 -> 31        -0.00241
       8 -> 44        -0.00011
       8 -> 47        -0.00025
       8 -> 52         0.00171
       3 <- 27         0.00155
       3 <- 38         0.00168
       3 <- 45         0.00263
       4 <- 27         0.00265
       4 <- 45        -0.00112
       5 <-  9        -0.00045
       5 <- 13        -0.00082
       5 <- 17        -0.00099
       5 <- 23         0.00054
       5 <- 29        -0.00068
       5 <- 31         0.00086
       5 <- 37         0.00160
       5 <- 44         0.00025
       5 <- 47         0.00016
       5 <- 52         0.00020
       6 <- 27         0.00042
       6 <- 38        -0.00075
       6 <- 45         0.00139
       7 <- 12        -0.00076
       7 <- 15        -0.00738
       7 <- 18         0.00042
       7 <- 22         0.00736
       7 <- 30         0.00352
       7 <- 33        -0.00130
       7 <- 35        -0.00235
       7 <- 40         0.00097
       7 <- 49         0.00012
       7 <- 50         0.00022
       7 <- 53         0.00130
       8 <-  9        -0.02508
       8 <- 13         0.00290
       8 <- 17        -0.00442
       8 <- 23         0.00079
       8 <- 29        -0.00102
       8 <- 31        -0.00080
       8 <- 37        -0.00139
       8 <- 52         0.00049
 This state for optimization and/or second-order correction.
 Total Energy, E(TD-HF/TD-DFT) =  -114.401016905
 Copying the excited state density for this state as the 1-particle RhoCI density.

 Excited State   2:      Singlet-B2     6.8870 eV  180.03 nm  f=0.0274  <S**2>=0.000
       3 -> 12         0.00153
       3 -> 15         0.00071
       3 -> 18         0.00119
       3 -> 22        -0.00032
       3 -> 25         0.00127
       3 -> 33         0.00020
       3 -> 35         0.00042
       3 -> 40        -0.00012
       4 -> 12        -0.00304
       4 -> 15         0.00187
       4 -> 18         0.00203
       4 -> 22        -0.00331
       4 -> 25         0.00331
       4 -> 30         0.00031
       4 -> 33        -0.00047
       4 -> 35        -0.00058
       4 -> 40         0.00046
       4 -> 42        -0.00012
       5 -> 10        -0.00704
       5 -> 11        -0.00840
       5 -> 14         0.00700
       5 -> 16        -0.00080
       5 -> 19        -0.00018
       5 -> 20         0.00246
       5 -> 21         0.00584
       5 -> 24         0.00016
       5 -> 26         0.00242
       5 -> 28         0.00115
       5 -> 32        -0.00094
       5 -> 34        -0.00100
       5 -> 36        -0.00019
       5 -> 39        -0.00029
       5 -> 41        -0.00038
       5 -> 43        -0.00053
       5 -> 46        -0.00032
       5 -> 54         0.00012
       6 -> 12        -0.00010
       6 -> 15         0.00151
       6 -> 18         0.00193
       6 -> 22        -0.00249
       6 -> 25         0.00114
       6 -> 30        -0.00052
       6 -> 33        -0.00023
       6 -> 35        -0.00040
       6 -> 40        -0.00012
       6 -> 42        -0.00019
       6 -> 49         0.00047
       6 -> 50        -0.00030
       7 -> 27         0.00016
       7 -> 38        -0.00058
       7 -> 45         0.00039
       8 -> 10         0.70288
       8 -> 11        -0.07201
       8 -> 14         0.01482
       8 -> 16        -0.00581
       8 -> 19         0.00952
       8 -> 20         0.01539
       8 -> 21        -0.00286
       8 -> 24         0.00013
       8 -> 26         0.00254
       8 -> 28         0.00079
       8 -> 32         0.00100
       8 -> 34         0.00114
       8 -> 36         0.00038
       8 -> 39         0.00037
       8 -> 41        -0.00019
       8 -> 43         0.00061
       8 -> 46        -0.00058
       8 -> 48        -0.00015
       8 -> 54         0.00019
       3 <- 12         0.00036
       3 <- 15         0.00054
       3 <- 18         0.00045
       3 <- 22        -0.00047
       3 <- 25         0.00074
       3 <- 30        -0.00011
       3 <- 33         0.00018
       3 <- 35         0.00038
       3 <- 40        -0.00014
       4 <- 12         0.00075
       4 <- 15         0.00193
       4 <- 18         0.00195
       4 <- 22        -0.00204
       4 <- 25         0.00227
       4 <- 30         0.00023
       4 <- 33        -0.00027
       4 <- 35        -0.00031
       4 <- 40         0.00013
       4 <- 42        -0.00023
       4 <- 50        -0.00013
       5 <- 10         0.00237
       5 <- 11        -0.00025
       5 <- 14         0.00481
       5 <- 16        -0.00069
       5 <- 20         0.00083
       5 <- 21         0.00204
       5 <- 24         0.00195
       5 <- 26         0.00152
       5 <- 28         0.00015
       5 <- 32        -0.00066
       5 <- 34        -0.00095
       5 <- 36        -0.00027
       5 <- 39        -0.00016
       5 <- 41        -0.00019
       5 <- 43        -0.00040
       5 <- 46        -0.00028
       6 <- 15        -0.00012
       6 <- 18         0.00114
       6 <- 22        -0.00067
       6 <- 25         0.00039
       6 <- 30         0.00030
       6 <- 33        -0.00029
       6 <- 35        -0.00049
       6 <- 40        -0.00012
       6 <- 42        -0.00017
       6 <- 49         0.00039
       6 <- 50        -0.00031
       6 <- 53         0.00015
       7 <- 27         0.00014
       7 <- 38        -0.00043
       7 <- 45         0.00035
       8 <- 10        -0.00169
       8 <- 11        -0.00052
       8 <- 14        -0.00521
       8 <- 16        -0.00043
       8 <- 20        -0.00061
       8 <- 21        -0.00179
       8 <- 24        -0.00220
       8 <- 26        -0.00073
       8 <- 28        -0.00053
       8 <- 32         0.00106
       8 <- 34         0.00021
       8 <- 36         0.00034
       8 <- 39         0.00028
       8 <- 43         0.00041
       8 <- 46        -0.00037

 Excited State   3:      Singlet-B2     7.6635 eV  161.78 nm  f=0.0262  <S**2>=0.000
       3 -> 12        -0.00032
       3 -> 15        -0.00085
       3 -> 18         0.00092
       3 -> 22         0.00044
       3 -> 25         0.00012
       3 -> 30         0.00224
       3 -> 33         0.00014
       3 -> 35         0.00051
       3 -> 40        -0.00046
       3 -> 49         0.00050
       3 -> 50        -0.00021
       4 -> 12         0.00266
       4 -> 15         0.00016
       4 -> 18         0.00224
       4 -> 22        -0.00149
       4 -> 25         0.00294
       4 -> 30        -0.00129
       4 -> 33         0.00050
       4 -> 35         0.00055
       4 -> 42        -0.00012
       4 -> 49         0.00024
       5 -> 10        -0.00676
       5 -> 11        -0.00016
       5 -> 14         0.00900
       5 -> 16        -0.00708
       5 -> 19        -0.00179
       5 -> 20        -0.00469
       5 -> 21         0.00180
       5 -> 24         0.00101
       5 -> 26         0.00120
       5 -> 28         0.00160
       5 -> 32        -0.00020
       5 -> 34        -0.00103
       5 -> 36        -0.00029
       5 -> 39         0.00042
       5 -> 41        -0.00072
       5 -> 43         0.00015
       5 -> 46         0.00089
       5 -> 51        -0.00041
       6 -> 12        -0.00301
       6 -> 15        -0.00167
       6 -> 18        -0.00084
       6 -> 22         0.00123
       6 -> 25         0.00016
       6 -> 30         0.00105
       6 -> 33        -0.00055
       6 -> 35        -0.00149
       6 -> 40         0.00106
       6 -> 49        -0.00118
       6 -> 50         0.00039
       6 -> 53         0.00011
       7 -> 38        -0.00090
       7 -> 45        -0.00184
       8 -> 10         0.07236
       8 -> 11         0.70244
       8 -> 14        -0.00476
       8 -> 16         0.01000
       8 -> 19        -0.03146
       8 -> 20         0.00461
       8 -> 21        -0.00293
       8 -> 24         0.00020
       8 -> 26        -0.00111
       8 -> 28         0.00144
       8 -> 32         0.00017
       8 -> 34        -0.00020
       8 -> 36        -0.00014
       8 -> 39        -0.00023
       8 -> 41        -0.00119
       8 -> 43         0.00034
       8 -> 46         0.00206
       8 -> 48         0.00013
       8 -> 51        -0.00100
       3 <- 12         0.00034
       3 <- 15        -0.00026
       3 <- 18         0.00094
       3 <- 25         0.00028
       3 <- 30         0.00124
       3 <- 33         0.00025
       3 <- 35         0.00056
       3 <- 40        -0.00042
       3 <- 49         0.00043
       3 <- 50        -0.00014
       3 <- 53        -0.00029
       4 <- 12         0.00033
       4 <- 15         0.00078
       4 <- 18         0.00053
       4 <- 22        -0.00115
       4 <- 25         0.00124
       4 <- 30        -0.00064
       4 <- 33         0.00046
       4 <- 35         0.00023
       4 <- 42        -0.00013
       4 <- 49         0.00018
       5 <- 10         0.00124
       5 <- 11        -0.00125
       5 <- 14         0.00265
       5 <- 16        -0.00043
       5 <- 19         0.00120
       5 <- 20        -0.00047
       5 <- 21         0.00076
       5 <- 24         0.00138
       5 <- 28         0.00069
       5 <- 32        -0.00100
       5 <- 36         0.00015
       5 <- 39         0.00011
       5 <- 41        -0.00075
       5 <- 46         0.00084
       5 <- 48         0.00014
       5 <- 51        -0.00030
       6 <- 12        -0.00030
       6 <- 15        -0.00082
       6 <- 18         0.00020
       6 <- 22         0.00077
       6 <- 25        -0.00012
       6 <- 30         0.00087
       6 <- 33        -0.00042
       6 <- 35        -0.00124
       6 <- 40         0.00082
       6 <- 49        -0.00096
       6 <- 50         0.00031
       7 <- 27         0.00026
       7 <- 38        -0.00071
       7 <- 45        -0.00154
       8 <- 10        -0.00072
       8 <- 11        -0.00118
       8 <- 14        -0.00365
       8 <- 16         0.00044
       8 <- 19         0.00459
       8 <- 20        -0.00067
       8 <- 21        -0.00200
       8 <- 24         0.00040
       8 <- 26        -0.00167
       8 <- 28         0.00042
       8 <- 32        -0.00117
       8 <- 34         0.00145
       8 <- 39        -0.00061
       8 <- 41        -0.00107
       8 <- 43         0.00017
       8 <- 46         0.00164
       8 <- 48         0.00028
       8 <- 51        -0.00067

 Excited State   4:      Singlet-A1     7.8798 eV  157.34 nm  f=0.0458  <S**2>=0.000
       3 -> 10         0.00204
       3 -> 11        -0.00066
       3 -> 14         0.00107
       3 -> 19        -0.00089
       3 -> 20         0.00209
       3 -> 21         0.00095
       3 -> 24        -0.00074
       3 -> 26         0.00124
       3 -> 28         0.00088
       3 -> 32         0.00011
       3 -> 34        -0.00073
       3 -> 36        -0.00017
       3 -> 41        -0.00020
       3 -> 46         0.00017
       3 -> 48         0.00031
       3 -> 51        -0.00017
       3 -> 54        -0.00018
       4 -> 10         0.00476
       4 -> 11         0.00503
       4 -> 14         0.00463
       4 -> 16         0.00054
       4 -> 19         0.00020
       4 -> 20         0.00348
       4 -> 24         0.00699
       4 -> 26         0.00196
       4 -> 28        -0.00034
       4 -> 32        -0.00063
       4 -> 34         0.00011
       4 -> 43         0.00016
       4 -> 46        -0.00020
       4 -> 51        -0.00014
       5 -> 12         0.00582
       5 -> 15         0.00283
       5 -> 18         0.00978
       5 -> 22        -0.00246
       5 -> 25         0.00540
       5 -> 30        -0.00025
       5 -> 33        -0.00018
       5 -> 35        -0.00074
       5 -> 50         0.00020
       5 -> 53        -0.00012
       6 -> 10         0.01149
       6 -> 11        -0.00235
       6 -> 14         0.00426
       6 -> 16         0.00036
       6 -> 19         0.00185
       6 -> 20         0.00316
       6 -> 21        -0.00027
       6 -> 24         0.00413
       6 -> 26        -0.00024
       6 -> 28        -0.00207
       6 -> 32        -0.00034
       6 -> 39         0.00016
       6 -> 43         0.00014
       6 -> 48        -0.00068
       6 -> 51         0.00019
       6 -> 54        -0.00011
       7 ->  9         0.02431
       7 -> 13         0.01140
       7 -> 17         0.00157
       7 -> 23         0.00519
       7 -> 29        -0.00072
       7 -> 31        -0.00094
       7 -> 37         0.00058
       7 -> 44         0.00063
       7 -> 47        -0.00033
       7 -> 52        -0.00011
       8 -> 12         0.70565
       8 -> 15        -0.00320
       8 -> 18         0.02997
       8 -> 22         0.00345
       8 -> 25         0.00427
       8 -> 30        -0.00034
       8 -> 33         0.00163
       8 -> 35         0.00197
       8 -> 40         0.00048
       8 -> 42         0.00014
       8 -> 49        -0.00046
       8 -> 50         0.00026
       8 -> 53        -0.00024
       3 <- 10         0.00063
       3 <- 11         0.00019
       3 <- 14         0.00056
       3 <- 16         0.00012
       3 <- 19        -0.00063
       3 <- 20         0.00093
       3 <- 21         0.00064
       3 <- 24        -0.00017
       3 <- 26         0.00084
       3 <- 28         0.00059
       3 <- 32         0.00022
       3 <- 34        -0.00050
       3 <- 36        -0.00012
       3 <- 41        -0.00013
       3 <- 46         0.00025
       3 <- 48         0.00025
       3 <- 51        -0.00015
       3 <- 54        -0.00016
       4 <- 10         0.00406
       4 <- 11         0.00107
       4 <- 14         0.00342
       4 <- 20         0.00201
       4 <- 21        -0.00017
       4 <- 24         0.00378
       4 <- 26         0.00121
       4 <- 32        -0.00080
       4 <- 34        -0.00030
       4 <- 39        -0.00012
       4 <- 41        -0.00010
       4 <- 43         0.00012
       4 <- 46        -0.00015
       4 <- 51        -0.00013
       5 <- 12         0.00270
       5 <- 15         0.00279
       5 <- 18         0.00345
       5 <- 22        -0.00092
       5 <- 25         0.00293
       5 <- 30        -0.00016
       5 <- 33        -0.00035
       5 <- 35        -0.00068
       5 <- 50         0.00011
       5 <- 53        -0.00011
       6 <- 10         0.00275
       6 <- 14         0.00162
       6 <- 19         0.00044
       6 <- 20         0.00144
       6 <- 21        -0.00033
       6 <- 24         0.00200
       6 <- 28        -0.00135
       6 <- 32        -0.00038
       6 <- 34        -0.00013
       6 <- 41         0.00011
       6 <- 46        -0.00015
       6 <- 48        -0.00057
       6 <- 51         0.00023
       7 <-  9        -0.00068
       7 <- 13         0.00239
       7 <- 17         0.00016
       7 <- 23         0.00260
       7 <- 29        -0.00058
       7 <- 31        -0.00064
       7 <- 37         0.00045
       7 <- 44         0.00053
       7 <- 47        -0.00029
       8 <- 12        -0.00062
       8 <- 15        -0.00472
       8 <- 18        -0.00168
       8 <- 22         0.00047
       8 <- 25        -0.00150
       8 <- 30        -0.00090
       8 <- 33         0.00064
       8 <- 35         0.00078
       8 <- 40         0.00051
       8 <- 42         0.00014
       8 <- 49        -0.00046
       8 <- 50         0.00017
       8 <- 53        -0.00024

 Excited State   5:      Singlet-A2     8.3918 eV  147.74 nm  f=0.0000  <S**2>=0.000
       3 -> 27        -0.00042
       3 -> 38        -0.00037
       3 -> 45        -0.00018
       4 -> 27         0.00018
       4 -> 38         0.00046
       5 ->  9        -0.00397
       5 -> 13        -0.00526
       5 -> 17         0.00665
       5 -> 23        -0.00214
       5 -> 29        -0.00020
       5 -> 31         0.00134
       5 -> 37        -0.00089
       5 -> 44        -0.00019
       6 -> 27         0.00023
       6 -> 38         0.00029
       6 -> 45        -0.00019
       7 -> 15        -0.00191
       7 -> 18         0.00203
       7 -> 22        -0.00072
       7 -> 35         0.00012
       8 ->  9         0.04048
       8 -> 13         0.70537
       8 -> 17         0.02138
       8 -> 23         0.01624
       8 -> 29         0.00022
       8 -> 31         0.00168
       8 -> 37        -0.00038
       8 -> 47         0.00017
       3 <- 27        -0.00011
       3 <- 38        -0.00022
       3 <- 45        -0.00026
       5 <-  9        -0.00037
       5 <- 13        -0.00032
       5 <- 17         0.00049
       5 <- 37        -0.00019
       6 <- 38         0.00018
       7 <- 12        -0.00056
       7 <- 15        -0.00105
       7 <- 18         0.00077
       7 <- 22        -0.00088
       7 <- 25        -0.00042
       7 <- 30         0.00023
       7 <- 33         0.00035
       7 <- 35         0.00056
       7 <- 40        -0.00034
       8 <-  9         0.00143
       8 <- 13         0.00123
       8 <- 17         0.00024
       8 <- 23        -0.00013
       8 <- 37         0.00011

 Excited State   6:      Singlet-B1     8.7787 eV  141.23 nm  f=0.0010  <S**2>=0.000
       3 ->  9        -0.03304
       3 -> 13         0.00567
       3 -> 17        -0.00725
       3 -> 23         0.00435
       3 -> 29        -0.00281
       3 -> 44         0.00070
       3 -> 52         0.00113
       4 ->  9         0.01698
       4 -> 13        -0.00279
       4 -> 17         0.00105
       4 -> 23        -0.00248
       4 -> 31        -0.00268
       4 -> 37        -0.00036
       4 -> 44        -0.00011
       4 -> 47        -0.00165
       4 -> 52        -0.00100
       5 -> 27        -0.00186
       5 -> 38         0.00220
       5 -> 45         0.00320
       6 ->  9         0.70466
       6 -> 13        -0.03881
       6 -> 17         0.02383
       6 -> 23        -0.01251

 The electronic state is 1-A1.
 Alpha  occ. eigenvalues --  -19.15286 -10.28342  -1.06194  -0.64971  -0.50308
 Alpha  occ. eigenvalues --   -0.46120  -0.40560  -0.28368
 Alpha virt. eigenvalues --   -0.07166   0.00695   0.03858   0.04246   0.06418
 Alpha virt. eigenvalues --    0.12797   0.17510   0.18636   0.21957   0.23298
 Alpha virt. eigenvalues --    0.26600   0.32254   0.44835   0.46015   0.50924

 Mulliken charges:
               1
     1  C    0.012046
     2  H    0.118756
     3  H    0.118756
     4  O   -0.249557
 Sum of Mulliken charges =  -0.00000

 Dipole moment (field-independent basis, Debye):
    X=             -0.0000    Y=              0.0000    Z=             -2.6068  Tot=              2.6068
 Quadrupole moment (field-independent basis, Debye-Ang):
   XX=            -11.8331   YY=            -11.7339   ZZ=            -12.3668
   XY=              0.0000   XZ=              0.0000   YZ=             -0.0000

 Normal termination of Gaussian 16 at Fri Sep 17 10:52:45 2021.
