 Gaussian 16, Revision C.01,
 Gaussian 16:  ES64L-G16RevC.01  3-Jul-2019

 ----------------------------------------
 #P wB97XD/6-311+G* NoSymm #P Field=X-175
 ----------------------------------------

 -------
 TitleMe
 -------
 Symbolic Z-matrix:
 Charge =  1 Multiplicity = 1

                          Input orientation:
 ---------------------------------------------------------------------
 Center     Atomic      Atomic             Coordinates (Angstroms)
 Number     Number       Type             X           Y           Z
 ---------------------------------------------------------------------
      1          6           0        0.029500    1.339700    0.068200
      2          6           0        1.434800    1.286700    0.006400
      3          6           0        2.111800    0.051100   -0.005400
      4          6           0        1.445100   -1.137200    0.031200
      5          6           0       -0.687900    0.168200    0.110000
      6          1           0       -0.471300    2.298400    0.078100
      7          1           0        2.027300    2.196500   -0.032200
      8          1           0        1.989700   -2.076400    0.023200
      9          1           0       -1.771600    0.180400    0.158200
     10          7           0        3.586400    0.051000   -0.067500
     11          8           0        4.147100   -1.059700   -0.088100
     12          8           0        4.145000    1.163900   -0.090100
     13          6           0       -0.023600   -1.145800    0.083500
     14          1           0       -0.436700   -1.872500    0.788900
     15         35           0       -0.535900   -1.869700   -1.740800
 ---------------------------------------------------------------------

 SCF Done:  E(RwB97XD) =  -3010.54775706     A.U. after   25 cycles

 Alpha  occ. eigenvalues -- -483.30134 -62.85181 -56.64840 -56.64317 -56.64313
 Alpha  occ. eigenvalues --  -19.37019 -19.36953 -14.76609 -10.56797 -10.54785
 Alpha  occ. eigenvalues --  -10.54197 -10.53299 -10.52714 -10.51282  -9.01004
 Alpha  occ. eigenvalues --   -6.83585  -6.81865  -6.81848  -2.93513  -2.93055
 Alpha  occ. eigenvalues --   -2.93039  -2.91663  -2.91663  -1.40736  -1.23609
 Alpha  occ. eigenvalues --   -1.19843  -1.11175  -1.08796  -1.02601  -0.96241
 Alpha  occ. eigenvalues --   -0.92715  -0.87366  -0.81619  -0.77415  -0.76237
 Alpha  occ. eigenvalues --   -0.73798  -0.73393  -0.71652  -0.69490  -0.67326
 Alpha  occ. eigenvalues --   -0.66683  -0.64307  -0.60988  -0.57910  -0.55723
 Alpha  occ. eigenvalues --   -0.53383  -0.47868  -0.46434  -0.46323
 Alpha virt. eigenvalues --   -0.27259  -0.16022  -0.14514  -0.13139  -0.09676
 Alpha virt. eigenvalues --   -0.08463  -0.07855  -0.06644  -0.03592  -0.02997
 Alpha virt. eigenvalues --   -0.02122  -0.00902  -0.00388  -0.00023   0.00836

 Mulliken charges:
               1
     1  C   -0.524198
     2  C    0.424998
     3  C   -0.637232
     4  C    0.329562
     5  C   -0.033551
     6  H    0.296930
     7  H    0.396065
     8  H    0.398891
     9  H    0.267203
    10  N   -0.118583
    11  O    0.114666
    12  O    0.112438
    13  C   -0.485183
    14  H    0.375441
    15  Br   0.082554
 Sum of Mulliken charges =   1.00000

 Dipole moment (field-independent basis, Debye):
    X=              4.5058    Y=             -0.0047    Z=              0.3995  Tot=              4.5234
 Quadrupole moment (field-independent basis, Debye-Ang):
   XX=            -58.9980   YY=            -52.6562   ZZ=            -64.0043
   XY=              0.3634   XZ=             -0.2705   YZ=              0.4599

 Normal termination of Gaussian 16 at Wed May  1 14:52:24 2024.
