 Gaussian 16, Revision C.01,
 Gaussian 16:  ES64L-G16RevC.01  3-Jul-2019

 ----------------------------------------
 #P wB97XD/6-311+G* NoSymm #P Field=Z+116
 ----------------------------------------

 -------
 TitleMe
 -------
 Symbolic Z-matrix:
 Charge =  1 Multiplicity = 1

                          Input orientation:
 ---------------------------------------------------------------------
 Center     Atomic      Atomic             Coordinates (Angstroms)
 Number     Number       Type             X           Y           Z
 ---------------------------------------------------------------------
      1          6           0        0.519300    1.233000   -0.031900
      2          6           0        1.944500    1.269200   -0.036700
      3          6           0        2.620400    0.092800   -0.025000
      4          6           0       -0.196000    0.030100    0.001000
      5          1           0       -0.020700    2.174200   -0.043400
      6          1           0        2.482800    2.208900   -0.036100
      7          1           0       -1.277700    0.039900    0.011700
      8          7           0        4.092100    0.095900    0.036600
      9          8           0        4.639300   -1.021700    0.144600
     10          8           0        4.664900    1.198400   -0.023300
     11          6           0        0.494300   -1.167100    0.021000
     12          1           0       -0.032500   -2.114900    0.054500
     13          6           0        1.962900   -1.216500   -0.021100
     14          1           0        2.443600   -1.963100    0.615100
     15         35           0        2.173000   -1.949100   -1.906200
 ---------------------------------------------------------------------

 SCF Done:  E(RwB97XD) =  -3010.54009927     A.U. after   20 cycles

 Alpha  occ. eigenvalues -- -483.29231 -62.84219 -56.63949 -56.63333 -56.63316
 Alpha  occ. eigenvalues --  -19.45912 -19.45909 -14.85306 -10.58471 -10.56885
 Alpha  occ. eigenvalues --  -10.56505 -10.56042 -10.52657 -10.52055  -9.00000
 Alpha  occ. eigenvalues --   -6.82776  -6.80765  -6.80713  -2.92656  -2.92134
 Alpha  occ. eigenvalues --   -2.92093  -2.90484  -2.90484  -1.49590  -1.32559
 Alpha  occ. eigenvalues --   -1.21571  -1.12073  -1.11414  -1.03383  -0.99371
 Alpha  occ. eigenvalues --   -0.94504  -0.89849  -0.84451  -0.80370  -0.79627
 Alpha  occ. eigenvalues --   -0.79478  -0.77237  -0.75760  -0.74841  -0.70909
 Alpha  occ. eigenvalues --   -0.67761  -0.66818  -0.62125  -0.58714  -0.57062
 Alpha  occ. eigenvalues --   -0.56295  -0.55602  -0.53870  -0.52766
 Alpha virt. eigenvalues --   -0.29075  -0.19882  -0.14291  -0.12471  -0.09890
 Alpha virt. eigenvalues --   -0.07078  -0.06786  -0.05379  -0.03488  -0.03145
 Alpha virt. eigenvalues --   -0.02001  -0.01003  -0.00021   0.00567   0.01432

 Mulliken charges:
               1
     1  C   -0.140356
     2  C    0.221600
     3  C   -0.050057
     4  C   -0.332636
     5  H    0.343927
     6  H    0.348893
     7  H    0.328055
     8  N   -0.264961
     9  O    0.088161
    10  O    0.069466
    11  C   -0.232049
    12  H    0.353379
    13  C   -0.403905
    14  H    0.373748
    15  Br   0.296735
 Sum of Mulliken charges =   1.00000

 Dipole moment (field-independent basis, Debye):
    X=              2.9578    Y=             -1.3800    Z=             -2.8453  Tot=              4.3299
 Quadrupole moment (field-independent basis, Debye-Ang):
   XX=            -67.8815   YY=            -50.4067   ZZ=            -59.6056
   XY=             -3.9323   XZ=             -6.8791   YZ=              4.4991

 Normal termination of Gaussian 16 at Thu May  2 14:20:18 2024.
