 Gaussian 16, Revision C.01,
 Gaussian 16:  ES64L-G16RevC.01  3-Jul-2019

 ---------------------------------------
 #P wB97XD/6-311+G* NoSymm #P Field=Z+68
 ---------------------------------------

 -------
 TitleMe
 -------
 Symbolic Z-matrix:
 Charge =  1 Multiplicity = 1

                          Input orientation:
 ---------------------------------------------------------------------
 Center     Atomic      Atomic             Coordinates (Angstroms)
 Number     Number       Type             X           Y           Z
 ---------------------------------------------------------------------
      1          6           0        0.029500    1.339700    0.068200
      2          6           0        1.434800    1.286700    0.006400
      3          6           0        2.111800    0.051100   -0.005400
      4          6           0        1.445100   -1.137200    0.031200
      5          6           0       -0.687900    0.168200    0.110000
      6          1           0       -0.471300    2.298400    0.078100
      7          1           0        2.027300    2.196500   -0.032200
      8          1           0        1.989700   -2.076400    0.023200
      9          1           0       -1.771600    0.180400    0.158200
     10          7           0        3.586400    0.051000   -0.067500
     11          8           0        4.147100   -1.059700   -0.088100
     12          8           0        4.145000    1.163900   -0.090100
     13          6           0       -0.023600   -1.145800    0.083500
     14          1           0       -0.436700   -1.872500    0.788900
     15         35           0       -0.535900   -1.869700   -1.740800
 ---------------------------------------------------------------------

 SCF Done:  E(RwB97XD) =  -3010.53697308     A.U. after   18 cycles

 Alpha  occ. eigenvalues -- -483.30060 -62.85069 -56.64779 -56.64183 -56.64181
 Alpha  occ. eigenvalues --  -19.45399 -19.45332 -14.84902 -10.57584 -10.56921
 Alpha  occ. eigenvalues --  -10.56652 -10.56448 -10.56219 -10.52454  -9.00865
 Alpha  occ. eigenvalues --   -6.83587  -6.81643  -6.81629  -2.93481  -2.92965
 Alpha  occ. eigenvalues --   -2.92952  -2.91398  -2.91398  -1.49166  -1.32143
 Alpha  occ. eigenvalues --   -1.22053  -1.13374  -1.11176  -1.03369  -1.00523
 Alpha  occ. eigenvalues --   -0.94855  -0.90410  -0.84787  -0.80266  -0.80106
 Alpha  occ. eigenvalues --   -0.79490  -0.77807  -0.75601  -0.75389  -0.71552
 Alpha  occ. eigenvalues --   -0.68791  -0.67012  -0.62899  -0.59371  -0.56620
 Alpha  occ. eigenvalues --   -0.55689  -0.55201  -0.54949  -0.54075
 Alpha virt. eigenvalues --   -0.28940  -0.20827  -0.14856  -0.12755  -0.09232
 Alpha virt. eigenvalues --   -0.06489  -0.06227  -0.05134  -0.03168  -0.03091
 Alpha virt. eigenvalues --   -0.02256  -0.01594  -0.00500  -0.00078   0.01198

 Mulliken charges:
               1
     1  C   -0.564863
     2  C    0.492778
     3  C   -0.708227
     4  C    0.276812
     5  C   -0.018437
     6  H    0.332069
     7  H    0.366149
     8  H    0.372152
     9  H    0.348511
    10  N   -0.108586
    11  O    0.031306
    12  O    0.028431
    13  C   -0.466029
    14  H    0.380104
    15  Br   0.237829
 Sum of Mulliken charges =   1.00000

 Dipole moment (field-independent basis, Debye):
    X=             -0.9948    Y=             -0.8458    Z=             -1.1996  Tot=              1.7731
 Quadrupole moment (field-independent basis, Debye-Ang):
   XX=            -71.4855   YY=            -51.6412   ZZ=            -61.3913
   XY=              1.4900   XZ=              0.5666   YZ=              2.6659

 Normal termination of Gaussian 16 at Wed May  1 15:25:58 2024.
