 Gaussian 16, Revision C.01,
 Gaussian 16:  ES64L-G16RevC.01  3-Jul-2019

 ----------------------------------------
 #P wB97XD/6-311+G* NoSymm #P Field=X-155
 ----------------------------------------

 -------
 TitleMe
 -------
 Symbolic Z-matrix:
 Charge =  1 Multiplicity = 1

                          Input orientation:
 ---------------------------------------------------------------------
 Center     Atomic      Atomic             Coordinates (Angstroms)
 Number     Number       Type             X           Y           Z
 ---------------------------------------------------------------------
      1          6           0        0.519300    1.233000   -0.031900
      2          6           0        1.944500    1.269200   -0.036700
      3          6           0        2.620400    0.092800   -0.025000
      4          6           0       -0.196000    0.030100    0.001000
      5          1           0       -0.020700    2.174200   -0.043400
      6          1           0        2.482800    2.208900   -0.036100
      7          1           0       -1.277700    0.039900    0.011700
      8          7           0        4.092100    0.095900    0.036600
      9          8           0        4.639300   -1.021700    0.144600
     10          8           0        4.664900    1.198400   -0.023300
     11          6           0        0.494300   -1.167100    0.021000
     12          1           0       -0.032500   -2.114900    0.054500
     13          6           0        1.962900   -1.216500   -0.021100
     14          1           0        2.443600   -1.963100    0.615100
     15         35           0        2.173000   -1.949100   -1.906200
 ---------------------------------------------------------------------

 SCF Done:  E(RwB97XD) =  -3010.56240607     A.U. after   25 cycles

 Alpha  occ. eigenvalues -- -483.25833 -62.80835 -56.60542 -56.59960 -56.59941
 Alpha  occ. eigenvalues --  -19.36684 -19.36581 -14.76267 -10.53713 -10.52987
 Alpha  occ. eigenvalues --  -10.52696 -10.52507 -10.49345 -10.47562  -8.96625
 Alpha  occ. eigenvalues --   -6.79337  -6.77429  -6.77373  -2.89232  -2.88737
 Alpha  occ. eigenvalues --   -2.88692  -2.87166  -2.87165  -1.40384  -1.23228
 Alpha  occ. eigenvalues --   -1.17344  -1.07950  -1.06943  -0.99375  -0.94200
 Alpha  occ. eigenvalues --   -0.90497  -0.85320  -0.79264  -0.75091  -0.73661
 Alpha  occ. eigenvalues --   -0.72641  -0.71594  -0.70225  -0.67173  -0.66347
 Alpha  occ. eigenvalues --   -0.64167  -0.62496  -0.58744  -0.54399  -0.50652
 Alpha  occ. eigenvalues --   -0.49820  -0.47510  -0.46049  -0.45877
 Alpha virt. eigenvalues --   -0.24992  -0.14012  -0.11017  -0.09962  -0.07000
 Alpha virt. eigenvalues --   -0.06440  -0.04669  -0.03029  -0.01484  -0.00289
 Alpha virt. eigenvalues --    0.00746   0.01348   0.02655   0.03564   0.04902

 Mulliken charges:
               1
     1  C   -0.097754
     2  C    0.157575
     3  C    0.017415
     4  C   -0.312101
     5  H    0.304270
     6  H    0.369968
     7  H    0.251543
     8  N   -0.243028
     9  O    0.148486
    10  O    0.144544
    11  C   -0.287100
    12  H    0.317585
    13  C   -0.422929
    14  H    0.430665
    15  Br   0.220862
 Sum of Mulliken charges =   1.00000

 Dipole moment (field-independent basis, Debye):
    X=              7.2469    Y=             -1.1340    Z=             -0.9784  Tot=              7.4000
 Quadrupole moment (field-independent basis, Debye-Ang):
   XX=            -50.7944   YY=            -50.9130   ZZ=            -61.7415
   XY=             -4.0006   XZ=             -3.7981   YZ=              2.9997

 Normal termination of Gaussian 16 at Thu May  2 14:24:34 2024.
