 Gaussian 16, Revision C.01,
 Gaussian 16:  ES64L-G16RevC.01  3-Jul-2019

 ----------------------------------------
 #P wB97XD/6-311+G* NoSymm #P Field=X+155
 ----------------------------------------

 -------
 TitleMe
 -------
 Symbolic Z-matrix:
 Charge =  1 Multiplicity = 1

                          Input orientation:
 ---------------------------------------------------------------------
 Center     Atomic      Atomic             Coordinates (Angstroms)
 Number     Number       Type             X           Y           Z
 ---------------------------------------------------------------------
      1          6           0        0.519300    1.233000   -0.031900
      2          6           0        1.944500    1.269200   -0.036700
      3          6           0        2.620400    0.092800   -0.025000
      4          6           0       -0.196000    0.030100    0.001000
      5          1           0       -0.020700    2.174200   -0.043400
      6          1           0        2.482800    2.208900   -0.036100
      7          1           0       -1.277700    0.039900    0.011700
      8          7           0        4.092100    0.095900    0.036600
      9          8           0        4.639300   -1.021700    0.144600
     10          8           0        4.664900    1.198400   -0.023300
     11          6           0        0.494300   -1.167100    0.021000
     12          1           0       -0.032500   -2.114900    0.054500
     13          6           0        1.962900   -1.216500   -0.021100
     14          1           0        2.443600   -1.963100    0.615100
     15         35           0        2.173000   -1.949100   -1.906200
 ---------------------------------------------------------------------

 SCF Done:  E(RwB97XD) =  -3010.52838572     A.U. after   19 cycles

 Alpha  occ. eigenvalues -- -483.36506 -62.91538 -56.71221 -56.70665 -56.70656
 Alpha  occ. eigenvalues --  -19.55929 -19.55835 -14.95065 -10.64782 -10.63529
 Alpha  occ. eigenvalues --  -10.61579 -10.60937 -10.59476 -10.56193  -9.07351
 Alpha  occ. eigenvalues --   -6.90004  -6.88176  -6.88150  -2.99914  -2.99431
 Alpha  occ. eigenvalues --   -2.99410  -2.97948  -2.97947  -1.59512  -1.42571
 Alpha  occ. eigenvalues --   -1.27787  -1.18343  -1.17688  -1.10228  -1.06341
 Alpha  occ. eigenvalues --   -1.00193  -0.96223  -0.92682  -0.89559  -0.87937
 Alpha  occ. eigenvalues --   -0.86042  -0.83571  -0.82212  -0.80891  -0.76974
 Alpha  occ. eigenvalues --   -0.72343  -0.72097  -0.68234  -0.67222  -0.66634
 Alpha  occ. eigenvalues --   -0.65802  -0.64781  -0.61803  -0.60145
 Alpha virt. eigenvalues --   -0.35399  -0.28028  -0.21108  -0.18674  -0.15206
 Alpha virt. eigenvalues --   -0.12317  -0.11712  -0.11076  -0.09739  -0.07884
 Alpha virt. eigenvalues --   -0.07492  -0.06708  -0.06632  -0.05824  -0.04946

 Mulliken charges:
               1
     1  C   -0.130622
     2  C    0.179672
     3  C   -0.152903
     4  C   -0.314885
     5  H    0.384013
     6  H    0.331688
     7  H    0.400412
     8  N   -0.236420
     9  O    0.027783
    10  O   -0.005144
    11  C   -0.154650
    12  H    0.394600
    13  C   -0.269843
    14  H    0.392468
    15  Br   0.153830
 Sum of Mulliken charges =   1.00000

 Dipole moment (field-independent basis, Debye):
    X=             -1.6406    Y=             -0.6848    Z=             -0.5404  Tot=              1.8581
 Quadrupole moment (field-independent basis, Debye-Ang):
   XX=            -85.5731   YY=            -51.4705   ZZ=            -62.6679
   XY=             -1.8463   XZ=             -1.3473   YZ=              1.9569

 Normal termination of Gaussian 16 at Thu May  2 14:18:00 2024.
