 Gaussian 16, Revision C.01,
 Gaussian 16:  ES64L-G16RevC.01  3-Jul-2019

 ---------------------------------------
 #P wB97XD/6-311+G* NoSymm #P Field=X+97
 ---------------------------------------

 -------
 TitleMe
 -------
 Symbolic Z-matrix:
 Charge =  1 Multiplicity = 1

                          Input orientation:
 ---------------------------------------------------------------------
 Center     Atomic      Atomic             Coordinates (Angstroms)
 Number     Number       Type             X           Y           Z
 ---------------------------------------------------------------------
      1          6           0        0.029500    1.339700    0.068200
      2          6           0        1.434800    1.286700    0.006400
      3          6           0        2.111800    0.051100   -0.005400
      4          6           0        1.445100   -1.137200    0.031200
      5          6           0       -0.687900    0.168200    0.110000
      6          1           0       -0.471300    2.298400    0.078100
      7          1           0        2.027300    2.196500   -0.032200
      8          1           0        1.989700   -2.076400    0.023200
      9          1           0       -1.771600    0.180400    0.158200
     10          7           0        3.586400    0.051000   -0.067500
     11          8           0        4.147100   -1.059700   -0.088100
     12          8           0        4.145000    1.163900   -0.090100
     13          6           0       -0.023600   -1.145800    0.083500
     14          1           0       -0.436700   -1.872500    0.788900
     15         35           0       -0.535900   -1.869700   -1.740800
 ---------------------------------------------------------------------

 SCF Done:  E(RwB97XD) =  -3010.54405236     A.U. after   19 cycles

 Alpha  occ. eigenvalues -- -483.31774 -62.86785 -56.66490 -56.65902 -56.65897
 Alpha  occ. eigenvalues --  -19.50666 -19.50587 -14.90023 -10.59370 -10.58923
 Alpha  occ. eigenvalues --  -10.58904 -10.58782 -10.57563 -10.53702  -9.02580
 Alpha  occ. eigenvalues --   -6.85291  -6.83368  -6.83346  -2.95188  -2.94679
 Alpha  occ. eigenvalues --   -2.94660  -2.93122  -2.93122  -1.54405  -1.37438
 Alpha  occ. eigenvalues --   -1.24115  -1.15709  -1.12985  -1.05365  -1.03422
 Alpha  occ. eigenvalues --   -0.96667  -0.92688  -0.88372  -0.84436  -0.83229
 Alpha  occ. eigenvalues --   -0.83179  -0.79883  -0.79299  -0.77101  -0.73486
 Alpha  occ. eigenvalues --   -0.70230  -0.68674  -0.64983  -0.61954  -0.61537
 Alpha  occ. eigenvalues --   -0.60897  -0.60545  -0.56685  -0.55865
 Alpha virt. eigenvalues --   -0.30646  -0.24990  -0.16644  -0.15096  -0.10489
 Alpha virt. eigenvalues --   -0.07895  -0.07478  -0.06271  -0.06092  -0.04447
 Alpha virt. eigenvalues --   -0.03406  -0.02997  -0.02607  -0.01009  -0.00631

 Mulliken charges:
               1
     1  C   -0.601417
     2  C    0.549447
     3  C   -0.740269
     4  C    0.236637
     5  C    0.035871
     6  H    0.354055
     7  H    0.348569
     8  H    0.359575
     9  H    0.392918
    10  N   -0.103905
    11  O   -0.012378
    12  O   -0.015611
    13  C   -0.452740
    14  H    0.420048
    15  Br   0.229200
 Sum of Mulliken charges =   1.00000

 Dipole moment (field-independent basis, Debye):
    X=             -3.7456    Y=             -0.9218    Z=             -0.2619  Tot=              3.8662
 Quadrupole moment (field-independent basis, Debye-Ang):
   XX=            -78.2061   YY=            -51.6924   ZZ=            -61.9229
   XY=              1.7470   XZ=              1.8575   YZ=              2.3431

 Normal termination of Gaussian 16 at Wed May  1 14:46:51 2024.
