 Q-Chem 6.0, Q-Chem, Inc., Pleasanton, CA (2022)
 Q-Chem 6.0.2 for Intel X86 EM64T Linux

User input:
--------------------------------------------------------------
$molecule
0 1
C                  0.73800500    1.28081960   -0.05304325
C                  2.13107735    1.27623482   -0.03775458
C                  2.78774418    0.04994967   -0.02233513
C                  2.10787290   -1.16395883   -0.02177557
C                  0.02715627    0.07955847   -0.05285920
H                  0.20350732    2.22257168   -0.06513515
H                  2.70574282    2.19227310   -0.03751535
H                  2.65503181   -2.09648975   -0.00950659
H                 -1.05554128    0.07960796   -0.06461677
N                  4.25078279    0.02984995   -0.00604320
O                  4.85312968    1.12722449   -0.00700032
O                  4.82301363   -1.08336832    0.00783743
C                  0.72203597   -1.12622675   -0.03726783
Br                -0.25419454   -2.77854143   -0.03668405
$end

$rem
!SCF_GUESS         read
!SKIP_CIS_RPA      TRUE
METHOD             wB97XD
RPA                TRUE
BASIS              6-311+G*
CIS_N_ROOTS        100
CIS_SINGLETS       TRUE
CIS_TRIPLETS       FALSE
MAKE_CUBE_FILES    TRUE
PLOTS              TRUE
STS_MOM            TRUE
SYM_IGNORE         TRUE
SYMMETRY           FALSE
NTO_PAIRS          1
$end

$plots
grid_points                    75 75 75
total_density                  0-100
transition_density             1-100
natural_transition_orbital     1-100
$end

--------------------------------------------------------------

             Standard Nuclear Orientation (Angstroms)
    I     Atom           X                Y                Z
 ----------------------------------------------------------------
    1      C       0.7380050000     1.2808196000    -0.0530432500
    2      C       2.1310773500     1.2762348200    -0.0377545800
    3      C       2.7877441800     0.0499496700    -0.0223351300
    4      C       2.1078729000    -1.1639588300    -0.0217755700
    5      C       0.0271562700     0.0795584700    -0.0528592000
    6      H       0.2035073200     2.2225716800    -0.0651351500
    7      H       2.7057428200     2.1922731000    -0.0375153500
    8      H       2.6550318100    -2.0964897500    -0.0095065900
    9      H      -1.0555412800     0.0796079600    -0.0646167700
   10      N       4.2507827900     0.0298499500    -0.0060432000
   11      O       4.8531296800     1.1272244900    -0.0070003200
   12      O       4.8230136300    -1.0833683200     0.0078374300
   13      C       0.7220359700    -1.1262267500    -0.0372678300
   14      Br     -0.2541945400    -2.7785414300    -0.0366840500
 ----------------------------------------------------------------

   15   -3010.2689143435      6.02e-09  Convergence criterion met
 Total energy in the final basis set =    -3010.2689143435
 Excited state 100: excitation energy (eV) =   10.8672

             TDDFT Excitation Energies
 ---------------------------------------------------

 Excited state   1: excitation energy (eV) =    3.5952
 Total energy for state  1:                 -3010.13679424 au
    Multiplicity: Singlet
    Trans. Mom.: -0.0002 X   0.0000 Y   0.0012 Z
    Strength   :     0.0000001302
    X: D(   46) --> V(    1) amplitude =  0.9039
    X: D(   46) --> V(    4) amplitude =  0.2631
    X: D(   47) --> V(    1) amplitude =  0.3194

 Excited state   2: excitation energy (eV) =    4.1681
 Total energy for state  2:                 -3010.11573899 au
    Multiplicity: Singlet
    Trans. Mom.: -0.0005 X   0.0002 Y   0.0544 Z
    Strength   :     0.0003020392
    X: D(   44) --> V(    1) amplitude =  0.9364
    X: D(   44) --> V(    4) amplitude =  0.2624

 Excited state   3: excitation energy (eV) =    4.4270
 Total energy for state  3:                 -3010.10622441 au
    Multiplicity: Singlet
    Trans. Mom.: -0.2734 X   0.4331 Y  -0.0059 Z
    Strength   :     0.0284526965
    X: D(   48) --> V(    2) amplitude = -0.2210
    X: D(   49) --> V(    1) amplitude =  0.9193

 Excited state   4: excitation energy (eV) =    5.0027
 Total energy for state  4:                 -3010.08506733 au
    Multiplicity: Singlet
    Trans. Mom.: -1.2721 X  -0.0767 Y  -0.0135 Z
    Strength   :     0.1990931635
    X: D(   48) --> V(    1) amplitude =  0.9315

 Excited state   5: excitation energy (eV) =    5.7309
 Total energy for state  5:                 -3010.05830676 au
    Multiplicity: Singlet
    Trans. Mom.: -0.0008 X  -0.0007 Y  -0.0074 Z
    Strength   :     0.0000078439
    X: D(   49) --> V(    3) amplitude =  0.9144
    X: D(   49) --> V(    5) amplitude = -0.2257

 Excited state   6: excitation energy (eV) =    5.8892
 Total energy for state  6:                 -3010.05249151 au
    Multiplicity: Singlet
    Trans. Mom.:  0.4808 X  -0.0237 Y   0.0055 Z
    Strength   :     0.0334360249
    X: D(   45) --> V(    1) amplitude =  0.7286
    X: D(   48) --> V(    2) amplitude =  0.3253
    X: D(   49) --> V(    2) amplitude =  0.4911

 Excited state   7: excitation energy (eV) =    6.0723
 Total energy for state  7:                 -3010.04576219 au
    Multiplicity: Singlet
    Trans. Mom.: -0.0015 X  -0.0008 Y   0.0451 Z
    Strength   :     0.0003032734
    X: D(   46) --> V(    1) amplitude = -0.3032
    X: D(   47) --> V(    1) amplitude =  0.8906
    X: D(   47) --> V(    4) amplitude = -0.2511

 Excited state   8: excitation energy (eV) =    6.0889
 Total energy for state  8:                 -3010.04515119 au
    Multiplicity: Singlet
    Trans. Mom.: -1.0192 X  -1.2065 Y  -0.0030 Z
    Strength   :     0.3721043860
    X: D(   45) --> V(    1) amplitude =  0.6117
    X: D(   49) --> V(    2) amplitude = -0.7134

 Excited state   9: excitation energy (eV) =    6.3290
 Total energy for state  9:                 -3010.03632737 au
    Multiplicity: Singlet
    Trans. Mom.: -0.7739 X   0.1440 Y  -0.0094 Z
    Strength   :     0.0961002807
    X: D(   45) --> V(    1) amplitude = -0.2374
    X: D(   48) --> V(    2) amplitude =  0.6718
    X: D(   49) --> V(    1) amplitude =  0.2134
    X: D(   49) --> V(    2) amplitude = -0.3377
    X: D(   49) --> V(    4) amplitude =  0.5137

 Excited state  10: excitation energy (eV) =    6.4795
 Total energy for state 10:                 -3010.03079885 au
    Multiplicity: Singlet
    Trans. Mom.:  0.1368 X   0.0199 Y   0.0014 Z
    Strength   :     0.0030349418
    X: D(   43) --> V(    1) amplitude =  0.3443
    X: D(   46) --> V(    3) amplitude = -0.2465
    X: D(   47) --> V(    3) amplitude =  0.7886
    X: D(   47) --> V(    5) amplitude = -0.2481
    X: D(   49) --> V(    4) amplitude = -0.2461

 Excited state  11: excitation energy (eV) =    6.5291
 Total energy for state 11:                 -3010.02897502 au
    Multiplicity: Singlet
    Trans. Mom.:  0.0539 X  -0.0122 Y   0.0007 Z
    Strength   :     0.0004888711
    X: D(   43) --> V(    1) amplitude =  0.7771
    X: D(   47) --> V(    3) amplitude = -0.3705
    X: D(   49) --> V(    4) amplitude = -0.3532

 Excited state  12: excitation energy (eV) =    6.9003
 Total energy for state 12:                 -3010.01533399 au
    Multiplicity: Singlet
    Trans. Mom.:  0.0003 X  -0.0004 Y  -0.0268 Z
    Strength   :     0.0001217659
    X: D(   47) --> V(    2) amplitude =  0.9333

 Excited state  13: excitation energy (eV) =    7.0473
 Total energy for state 13:                 -3010.00993107 au
    Multiplicity: Singlet
    Trans. Mom.:  0.0001 X   0.0000 Y   0.0007 Z
    Strength   :     0.0000000792
    X: D(   39) --> V(    1) amplitude = -0.2190
    X: D(   42) --> V(    1) amplitude =  0.9152

 Excited state  14: excitation energy (eV) =    7.1711
 Total energy for state 14:                 -3010.00538174 au
    Multiplicity: Singlet
    Trans. Mom.: -0.0004 X  -0.0006 Y   0.1060 Z
    Strength   :     0.0019724866
    X: D(   48) --> V(    3) amplitude =  0.9636

 Excited state  15: excitation energy (eV) =    7.2364
 Total energy for state 15:                 -3010.00298000 au
    Multiplicity: Singlet
    Trans. Mom.: -0.3704 X   1.5107 Y  -0.0165 Z
    Strength   :     0.4289634009
    X: D(   43) --> V(    1) amplitude = -0.2945
    X: D(   43) --> V(    2) amplitude =  0.2440
    X: D(   48) --> V(    2) amplitude =  0.5664
    X: D(   48) --> V(    4) amplitude =  0.3031
    X: D(   49) --> V(    4) amplitude = -0.6176

 Excited state  16: excitation energy (eV) =    7.2444
 Total energy for state 16:                 -3010.00268712 au
    Multiplicity: Singlet
    Trans. Mom.:  0.0066 X  -0.0137 Y  -0.3525 Z
    Strength   :     0.0220887425
    X: D(   49) --> V(    5) amplitude =  0.8644
    X: D(   49) --> V(    6) amplitude =  0.2693

 Excited state  17: excitation energy (eV) =    7.4331
 Total energy for state 17:                 -3009.99575329 au
    Multiplicity: Singlet
    Trans. Mom.: -0.0002 X  -0.0002 Y   0.0095 Z
    Strength   :     0.0000164562
    X: D(   46) --> V(    2) amplitude =  0.9597

 Excited state  18: excitation energy (eV) =    7.5013
 Total energy for state 18:                 -3009.99324579 au
    Multiplicity: Singlet
    Trans. Mom.:  0.6547 X   0.0620 Y   0.0067 Z
    Strength   :     0.0794822910
    X: D(   43) --> V(    1) amplitude =  0.2527
    X: D(   43) --> V(    2) amplitude =  0.3082
    X: D(   48) --> V(    4) amplitude =  0.8002
    X: D(   49) --> V(    4) amplitude =  0.2884

 Excited state  19: excitation energy (eV) =    7.6893
 Total energy for state 19:                 -3009.98633702 au
    Multiplicity: Singlet
    Trans. Mom.:  0.0008 X  -0.0004 Y  -0.0742 Z
    Strength   :     0.0010361254
    X: D(   41) --> V(    1) amplitude =  0.7691
    X: D(   44) --> V(    4) amplitude = -0.2617
    X: D(   46) --> V(    4) amplitude = -0.4171

 Excited state  20: excitation energy (eV) =    7.7390
 Total energy for state 20:                 -3009.98451049 au
    Multiplicity: Singlet
    Trans. Mom.:  0.0002 X  -0.0003 Y  -0.0418 Z
    Strength   :     0.0003317687
    X: D(   41) --> V(    1) amplitude =  0.4077
    X: D(   44) --> V(    2) amplitude =  0.4343
    X: D(   46) --> V(    4) amplitude =  0.6445
    X: D(   47) --> V(    4) amplitude =  0.2561

 Excited state  21: excitation energy (eV) =    7.8100
 Total energy for state 21:                 -3009.98190362 au
    Multiplicity: Singlet
    Trans. Mom.:  0.0002 X  -0.0000 Y  -0.0204 Z
    Strength   :     0.0000799126
    X: D(   44) --> V(    2) amplitude =  0.8307
    X: D(   46) --> V(    4) amplitude = -0.3520
    X: D(   47) --> V(    4) amplitude = -0.2423

 Excited state  22: excitation energy (eV) =    7.8403
 Total energy for state 22:                 -3009.98078826 au
    Multiplicity: Singlet
    Trans. Mom.:  0.0038 X   0.0010 Y  -0.1089 Z
    Strength   :     0.0022816384
    X: D(   43) --> V(    3) amplitude =  0.7873
    X: D(   49) --> V(    6) amplitude =  0.3353

 Excited state  23: excitation energy (eV) =    7.8561
 Total energy for state 23:                 -3009.98020792 au
    Multiplicity: Singlet
    Trans. Mom.:  0.3674 X   0.2282 Y   0.0030 Z
    Strength   :     0.0360126191
    X: D(   45) --> V(    2) amplitude =  0.9706

 Excited state  24: excitation energy (eV) =    7.9620
 Total energy for state 24:                 -3009.97631675 au
    Multiplicity: Singlet
    Trans. Mom.: -0.0026 X  -0.0017 Y   0.0998 Z
    Strength   :     0.0019454907
    X: D(   43) --> V(    5) amplitude =  0.2616
    X: D(   48) --> V(    5) amplitude =  0.6481
    X: D(   48) --> V(    8) amplitude = -0.2138
    X: D(   49) --> V(    6) amplitude =  0.4135
    X: D(   49) --> V(    7) amplitude =  0.2917
    X: D(   49) --> V(    8) amplitude =  0.2432

 Excited state  25: excitation energy (eV) =    7.9992
 Total energy for state 25:                 -3009.97494829 au
    Multiplicity: Singlet
    Trans. Mom.: -0.6554 X  -0.7622 Y  -0.0026 Z
    Strength   :     0.1980315973
    X: D(   43) --> V(    2) amplitude =  0.8331
    X: D(   48) --> V(    4) amplitude = -0.3580

 Excited state  26: excitation energy (eV) =    8.0638
 Total energy for state 26:                 -3009.97257518 au
    Multiplicity: Singlet
    Trans. Mom.:  0.0021 X  -0.0012 Y  -0.1698 Z
    Strength   :     0.0056957192
    X: D(   43) --> V(    5) amplitude =  0.2300
    X: D(   48) --> V(    5) amplitude = -0.5417
    X: D(   48) --> V(    8) amplitude =  0.2241
    X: D(   49) --> V(    6) amplitude =  0.5842
    X: D(   49) --> V(    8) amplitude =  0.2978

 Excited state  27: excitation energy (eV) =    8.1157
 Total energy for state 27:                 -3009.97066628 au
    Multiplicity: Singlet
    Trans. Mom.: -0.0014 X   0.0002 Y   0.0342 Z
    Strength   :     0.0002327323
    X: D(   41) --> V(    1) amplitude =  0.3117
    X: D(   44) --> V(    1) amplitude = -0.2383
    X: D(   44) --> V(    4) amplitude =  0.7597
    X: D(   47) --> V(    4) amplitude = -0.3470

 Excited state  28: excitation energy (eV) =    8.1371
 Total energy for state 28:                 -3009.96988255 au
    Multiplicity: Singlet
    Trans. Mom.: -0.8577 X   0.2595 Y  -0.0110 Z
    Strength   :     0.1600942255
    X: D(   46) --> V(    5) amplitude = -0.2187
    X: D(   47) --> V(    5) amplitude =  0.7378
    X: D(   47) --> V(    6) amplitude =  0.4510

 Excited state  29: excitation energy (eV) =    8.1778
 Total energy for state 29:                 -3009.96838720 au
    Multiplicity: Singlet
    Trans. Mom.:  0.0008 X  -0.0004 Y  -0.1312 Z
    Strength   :     0.0034472708
    X: D(   49) --> V(    5) amplitude =  0.2279
    X: D(   49) --> V(    7) amplitude =  0.7598
    X: D(   49) --> V(    8) amplitude =  0.2511

 Excited state  30: excitation energy (eV) =    8.2562
 Total energy for state 30:                 -3009.96550394 au
    Multiplicity: Singlet
    Trans. Mom.: -0.0018 X   0.0009 Y   0.1583 Z
    Strength   :     0.0050682274
    X: D(   42) --> V(    2) amplitude =  0.9383

 Excited state  31: excitation energy (eV) =    8.3511
 Total energy for state 31:                 -3009.96201585 au
    Multiplicity: Singlet
    Trans. Mom.:  0.0564 X  -0.3685 Y   0.0032 Z
    Strength   :     0.0284369457
    X: D(   45) --> V(    4) amplitude =  0.9455

 Excited state  32: excitation energy (eV) =    8.4597
 Total energy for state 32:                 -3009.95802593 au
    Multiplicity: Singlet
    Trans. Mom.:  0.0002 X  -0.0003 Y  -0.0302 Z
    Strength   :     0.0001887763
    X: D(   44) --> V(    4) amplitude =  0.3896
    X: D(   46) --> V(    4) amplitude = -0.3078
    X: D(   47) --> V(    1) amplitude =  0.2344
    X: D(   47) --> V(    4) amplitude =  0.7775

 Excited state  33: excitation energy (eV) =    8.4808
 Total energy for state 33:                 -3009.95725032 au
    Multiplicity: Singlet
    Trans. Mom.:  0.0023 X  -0.0014 Y  -0.1953 Z
    Strength   :     0.0079279290
    X: D(   43) --> V(    6) amplitude =  0.2189
    X: D(   49) --> V(    7) amplitude = -0.3651
    X: D(   49) --> V(    8) amplitude =  0.7665

 Excited state  34: excitation energy (eV) =    8.4971
 Total energy for state 34:                 -3009.95665024 au
    Multiplicity: Singlet
    Trans. Mom.:  0.3441 X   0.0344 Y   0.0036 Z
    Strength   :     0.0248951971
    X: D(   40) --> V(    1) amplitude =  0.2515
    X: D(   49) --> V(    9) amplitude =  0.8846

 Excited state  35: excitation energy (eV) =    8.5613
 Total energy for state 35:                 -3009.95429164 au
    Multiplicity: Singlet
    Trans. Mom.: -0.1312 X  -0.0650 Y  -0.0009 Z
    Strength   :     0.0045004444
    X: D(   40) --> V(    1) amplitude = -0.5756
    X: D(   46) --> V(    3) amplitude =  0.4466
    X: D(   46) --> V(    7) amplitude = -0.3580
    X: D(   49) --> V(    9) amplitude =  0.2595

 Excited state  36: excitation energy (eV) =    8.5803
 Total energy for state 36:                 -3009.95359266 au
    Multiplicity: Singlet
    Trans. Mom.:  0.1107 X  -0.5564 Y   0.0046 Z
    Strength   :     0.0676549874
    X: D(   40) --> V(    1) amplitude =  0.6525
    X: D(   46) --> V(    3) amplitude =  0.4256
    X: D(   46) --> V(    5) amplitude =  0.2281
    X: D(   46) --> V(    7) amplitude = -0.3314

 Excited state  37: excitation energy (eV) =    8.6338
 Total energy for state 37:                 -3009.95162630 au
    Multiplicity: Singlet
    Trans. Mom.:  0.0028 X  -0.0014 Y  -0.2679 Z
    Strength   :     0.0151801514
    X: D(   48) --> V(    6) amplitude =  0.6408
    X: D(   48) --> V(    7) amplitude = -0.5676
    X: D(   48) --> V(    8) amplitude = -0.2505

 Excited state  38: excitation energy (eV) =    8.7942
 Total energy for state 38:                 -3009.94573482 au
    Multiplicity: Singlet
    Trans. Mom.: -0.0000 X   0.0000 Y   0.0094 Z
    Strength   :     0.0000190413
    X: D(   39) --> V(    1) amplitude =  0.3198
    X: D(   41) --> V(    2) amplitude =  0.8647

 Excited state  39: excitation energy (eV) =    8.8994
 Total energy for state 39:                 -3009.94186896 au
    Multiplicity: Singlet
    Trans. Mom.: -0.0012 X   0.0005 Y   0.1036 Z
    Strength   :     0.0023397710
    X: D(   45) --> V(    3) amplitude = -0.4801
    X: D(   45) --> V(    5) amplitude = -0.3265
    X: D(   45) --> V(    7) amplitude =  0.5537
    X: D(   45) --> V(   11) amplitude = -0.2976
    X: D(   49) --> V(   10) amplitude = -0.3418

 Excited state  40: excitation energy (eV) =    8.9262
 Total energy for state 40:                 -3009.94088204 au
    Multiplicity: Singlet
    Trans. Mom.:  0.0015 X  -0.0007 Y  -0.1182 Z
    Strength   :     0.0030557999
    X: D(   48) --> V(    6) amplitude =  0.5039
    X: D(   48) --> V(    7) amplitude =  0.5967
    X: D(   49) --> V(   10) amplitude =  0.4080

 Excited state  41: excitation energy (eV) =    8.9496
 Total energy for state 41:                 -3009.94002441 au
    Multiplicity: Singlet
    Trans. Mom.: -0.3903 X   0.0851 Y  -0.0048 Z
    Strength   :     0.0349896261
    X: D(   44) --> V(    3) amplitude =  0.4301
    X: D(   44) --> V(    7) amplitude = -0.3111
    X: D(   46) --> V(    3) amplitude =  0.4480
    X: D(   46) --> V(    5) amplitude = -0.3182
    X: D(   46) --> V(    7) amplitude =  0.2585
    X: D(   46) --> V(    8) amplitude =  0.2428
    X: D(   47) --> V(    7) amplitude =  0.2541

 Excited state  42: excitation energy (eV) =    8.9808
 Total energy for state 42:                 -3009.93887720 au
    Multiplicity: Singlet
    Trans. Mom.: -0.0000 X  -0.0008 Y   0.0045 Z
    Strength   :     0.0000045079
    X: D(   37) --> V(    1) amplitude = -0.2950
    X: D(   39) --> V(    1) amplitude =  0.6318
    X: D(   41) --> V(    2) amplitude = -0.3836
    X: D(   42) --> V(    4) amplitude = -0.4887

 Excited state  43: excitation energy (eV) =    9.0035
 Total energy for state 43:                 -3009.93804069 au
    Multiplicity: Singlet
    Trans. Mom.:  0.0026 X  -0.0013 Y  -0.2483 Z
    Strength   :     0.0136008676
    X: D(   48) --> V(    6) amplitude = -0.3479
    X: D(   48) --> V(    7) amplitude = -0.3440
    X: D(   49) --> V(   10) amplitude =  0.6504

 Excited state  44: excitation energy (eV) =    9.0351
 Total energy for state 44:                 -3009.93687892 au
    Multiplicity: Singlet
    Trans. Mom.: -0.0791 X   0.6441 Y  -0.0051 Z
    Strength   :     0.0932274586
    X: D(   40) --> V(    1) amplitude =  0.2462
    X: D(   43) --> V(    4) amplitude =  0.7812
    X: D(   48) --> V(    9) amplitude =  0.2426

 Excited state  45: excitation energy (eV) =    9.0664
 Total energy for state 45:                 -3009.93573141 au

 Excited state 100: excitation energy (eV) =   10.8609
  Excited state 1:   3.6211 eV (singlet)
  Excited state 2:   4.1975 eV (singlet)
  Excited state 3:   4.5210 eV (singlet)
  Excited state 4:   5.1653 eV (singlet)
  Excited state 5:   5.7756 eV (singlet)
  Excited state 6:   6.0756 eV (singlet)
  Excited state 7:   6.1290 eV (singlet)
  Excited state 8:   6.4359 eV (singlet)
  Excited state 9:   6.5306 eV (singlet)
  Excited state 10:   6.5678 eV (singlet)
  Excited state 11:   6.6023 eV (singlet)
  Excited state 12:   6.9043 eV (singlet)
  Excited state 13:   7.0575 eV (singlet)
  Excited state 14:   7.1752 eV (singlet)
  Excited state 15:   7.2476 eV (singlet)
  Excited state 16:   7.4363 eV (singlet)
  Excited state 17:   7.5245 eV (singlet)
  Excited state 18:   7.7001 eV (singlet)
  Excited state 19:   7.7112 eV (singlet)
  Excited state 20:   7.7446 eV (singlet)
  Excited state 21:   7.8137 eV (singlet)
  Excited state 22:   7.8600 eV (singlet)
  Excited state 23:   7.8695 eV (singlet)
  Excited state 24:   7.9678 eV (singlet)
  Excited state 25:   8.0690 eV (singlet)
  Excited state 26:   8.1208 eV (singlet)
  Excited state 27:   8.1405 eV (singlet)
  Excited state 28:   8.1811 eV (singlet)
  Excited state 29:   8.2647 eV (singlet)
  Excited state 30:   8.2741 eV (singlet)
  Excited state 31:   8.4554 eV (singlet)
  Excited state 32:   8.4618 eV (singlet)
  Excited state 33:   8.4850 eV (singlet)
  Excited state 34:   8.5230 eV (singlet)
  Excited state 35:   8.5987 eV (singlet)
  Excited state 36:   8.6380 eV (singlet)
  Excited state 37:   8.6713 eV (singlet)
  Excited state 38:   8.8058 eV (singlet)
  Excited state 61:   9.7334 eV (singlet)
  Excited state 62:   9.7835 eV (singlet)
  Excited state 63:   9.8344 eV (singlet)
  Excited state 64:   9.8445 eV (singlet)
  Excited state 65:   9.8566 eV (singlet)
  Excited state 66:   9.8827 eV (singlet)
  Excited state 67:   9.9056 eV (singlet)
  Excited state 68:   9.9403 eV (singlet)
  Excited state 69:   9.9444 eV (singlet)
  Excited state 70:  10.0013 eV (singlet)
  Excited state 71:  10.0303 eV (singlet)
  Excited state 72:  10.1016 eV (singlet)
  Excited state 73:  10.1851 eV (singlet)
  Excited state 74:  10.1950 eV (singlet)
  Excited state 75:  10.2211 eV (singlet)
  Excited state 76:  10.2573 eV (singlet)
  Excited state 77:  10.2747 eV (singlet)
  Excited state 78:  10.3186 eV (singlet)
  Excited state 79:  10.3265 eV (singlet)
  Excited state 80:  10.3476 eV (singlet)
  Excited state 81:  10.3509 eV (singlet)
  Excited state 82:  10.3600 eV (singlet)
  Excited state 83:  10.3994 eV (singlet)
  Excited state 84:  10.4033 eV (singlet)
  Excited state 85:  10.4285 eV (singlet)
  Excited state 86:  10.4816 eV (singlet)
  Excited state 87:  10.4837 eV (singlet)
  Excited state 88:  10.5122 eV (singlet)
  Excited state 89:  10.5216 eV (singlet)
  Excited state 90:  10.5262 eV (singlet)
  Excited state 91:  10.5715 eV (singlet)
  Excited state 92:  10.5764 eV (singlet)
  Excited state 93:  10.6171 eV (singlet)
  Excited state 94:  10.6399 eV (singlet)
  Excited state 95:  10.7174 eV (singlet)
  Excited state 96:  10.7419 eV (singlet)
  Excited state 97:  10.7962 eV (singlet)
  Excited state 98:  10.8249 eV (singlet)
  Excited state 99:  10.8471 eV (singlet)
  Excited state 100:  10.8609 eV (singlet)

                    Orbital Energies (a.u.)
 --------------------------------------------------------------

 Alpha MOs
 -- Occupied --
******** -62.6774 -56.4733 -56.4693 -56.4692 -19.3009 -19.3008 -14.6947
-10.3840 -10.3801 -10.3433 -10.3413 -10.3394 -10.3371  -8.8355  -6.6592
 -6.6454  -6.6452  -2.7591  -2.7552  -2.7551  -2.7440  -2.7440  -1.3365
 -1.1635  -1.0275  -0.9523  -0.9211  -0.8661  -0.8279  -0.7458  -0.7082
 -0.6707  -0.6384  -0.6265  -0.6247  -0.5892  -0.5704  -0.5424  -0.5154
 -0.5000  -0.4721  -0.4284  -0.4183  -0.4105  -0.3995  -0.3940  -0.3820
 -0.3534

          Ground-State Mulliken Net Atomic Charges

     Atom                 Charge (a.u.)
  ----------------------------------------
      1 C                    -0.375893
      2 C                     0.079629
      3 C                    -0.439878
      4 C                    -0.172897
      5 C                    -0.499592
      6 H                     0.269594
      7 H                     0.293920
      8 H                     0.316819
      9 H                     0.284893
     10 N                    -0.157928
     11 O                    -0.016982
     12 O                    -0.020215
     13 C                     0.627529
     14 Br                   -0.188999
  ----------------------------------------
  Sum of atomic charges =     0.000000

                    Cartesian Multipole Moments
 -----------------------------------------------------------------
    Charge (ESU x 10^10)
                -0.0000
    Dipole Moment (Debye)
         X      -4.1702      Y       1.4192      Z      -0.0551
       Tot       4.4054
    Quadrupole Moments (Debye-Ang)
        XX     -96.1482     XY      -0.1139     YY     -67.0895
        XZ      -0.0574     YZ      -0.1007     ZZ     -70.9094

 Total job time:  1285.29s(wall), 12966.99s(cpu)
        *  Thank you very much for using Q-Chem.  Have a nice day.  *
