 Gaussian 16, Revision A.03,
 Gaussian 16:  ES64L-G16RevA.03 25-Dec-2016

 --------------------------------------------------------------------
 #p B3LYP/6-311+G** #p TD=(singlets,nstates=30)IOp(6/8=3) IOp(9/40=4)
 --------------------------------------------------------------------

 -------------------------------
 Scan Step 246, Bond Length 1.73
 -------------------------------
 Symbolic Z-matrix:
 Charge =  0 Multiplicity = 1

                         Standard orientation:
 ---------------------------------------------------------------------
 Center     Atomic      Atomic             Coordinates (Angstroms)
 Number     Number       Type             X           Y           Z
 ---------------------------------------------------------------------
      1          6           0        0.000000    0.000000   -0.791081
      2          1           0        0.000000    0.937260   -1.382431
      3          1           0       -0.000000   -0.937260   -1.382431
      4          8           0        0.000000   -0.000000    0.938919
 ---------------------------------------------------------------------

 SCF Done:  E(RB3LYP) =  -114.380487811     A.U. after   11 cycles

 Excitation energies and oscillator strengths:

 Excited State   1:      Singlet-A2     1.5550 eV  797.35 nm  f=0.0000  <S**2>=0.000
       3 -> 27         0.00089
       3 -> 38         0.00060
       3 -> 46         0.00335
       4 -> 27         0.00050
       4 -> 46        -0.00112
       5 ->  9         0.00379
       5 -> 13         0.00110
       5 -> 18         0.00216
       5 -> 23         0.00152
       5 -> 28         0.00177
       5 -> 37         0.00097
       5 -> 44         0.00026
       5 -> 52         0.00024
       6 -> 27        -0.00061
       6 -> 38        -0.00066
       6 -> 46         0.00111
       7 -> 12        -0.00111
       7 -> 16         0.00511
       7 -> 19        -0.00440
       7 -> 22        -0.00102
       7 -> 25        -0.00072
       7 -> 29        -0.00176
       7 -> 33         0.00031
       7 -> 49         0.00012
       7 -> 51         0.00011
       7 -> 53         0.00041
       8 ->  9         0.70972
       8 -> 13        -0.00915
       8 -> 18         0.02121
       8 -> 23        -0.00186
       8 -> 28         0.01071
       8 -> 31         0.00148
       8 -> 37         0.00055
       8 -> 48        -0.00031
       8 -> 52         0.00190
       3 <- 27         0.00032
       3 <- 38         0.00036
       3 <- 46         0.00339
       4 <- 27         0.00091
       4 <- 38         0.00022
       4 <- 46        -0.00089
       5 <- 13        -0.00041
       5 <- 18        -0.00050
       5 <- 23         0.00020
       5 <- 28        -0.00035
       5 <- 31         0.00027
       5 <- 37         0.00056
       6 <- 38        -0.00052
       6 <- 46         0.00084
       7 <- 12         0.00130
       7 <- 16        -0.01044
       7 <- 19         0.00481
       7 <- 22         0.00630
       7 <- 25        -0.00061
       7 <- 29         0.00551
       7 <- 33        -0.00039
       7 <- 35         0.00039
       7 <- 40        -0.00026
       7 <- 42         0.00016
       7 <- 49        -0.00047
       7 <- 53         0.00146
       8 <-  9        -0.06456
       8 <- 18        -0.00728
       8 <- 23        -0.00014
       8 <- 28        -0.00263
       8 <- 31        -0.00074
       8 <- 37        -0.00030
       8 <- 48         0.00012
       8 <- 52         0.00048
 This state for optimization and/or second-order correction.
 Total Energy, E(TD-HF/TD-DFT) =  -114.323344333
 Copying the excited state density for this state as the 1-particle RhoCI density.

 Excited State   2:      Singlet-A1     4.0675 eV  304.82 nm  f=0.0469  <S**2>=0.000
       3 -> 10        -0.01753
       3 -> 11        -0.00589
       3 -> 14         0.00451
       3 -> 15         0.00160
       3 -> 17        -0.00330
       3 -> 20        -0.00389
       3 -> 24         0.00124
       3 -> 26         0.00232
       3 -> 30        -0.00121
       3 -> 32         0.00276
       3 -> 34        -0.00147
       3 -> 36        -0.00116
       3 -> 39         0.00059
       3 -> 43         0.00052
       3 -> 45         0.00063
       3 -> 47         0.00230
       3 -> 50         0.00136
       4 -> 10        -0.00448
       4 -> 11         0.01231
       4 -> 14         0.00298
       4 -> 15        -0.00887
       4 -> 17         0.00266
       4 -> 20         0.00331
       4 -> 21         0.00036
       4 -> 24        -0.00425
       4 -> 26         0.00410
       4 -> 30         0.00077
       4 -> 32        -0.00135
       4 -> 34         0.00109
       4 -> 36         0.00032
       4 -> 41         0.00011
       4 -> 43        -0.00051
       4 -> 45        -0.00081
       4 -> 47        -0.00094
       4 -> 50        -0.00032
       4 -> 54         0.00014
       5 -> 12         0.01259
       5 -> 16         0.00557
       5 -> 19         0.00134
       5 -> 22         0.00740
       5 -> 25        -0.00610
       5 -> 29         0.00022
       5 -> 33        -0.00269
       5 -> 35         0.00278
       5 -> 40        -0.00124
       5 -> 42         0.00083
       5 -> 49         0.00028
       5 -> 51        -0.00078
       6 -> 10         0.22138
       6 -> 11         0.05976
       6 -> 14        -0.06557
       6 -> 15        -0.03429
       6 -> 17        -0.01779
       6 -> 20        -0.00475
       6 -> 21         0.00854
       6 -> 24        -0.01032
       6 -> 26        -0.00460
       6 -> 30        -0.00623
       6 -> 32         0.00236
       6 -> 34        -0.00140
       6 -> 39         0.00112
       6 -> 41        -0.00022
       6 -> 43         0.00086
       6 -> 45         0.00083
       6 -> 47         0.00096
       6 -> 50         0.00070
       6 -> 54        -0.00087
       7 ->  9         0.67978
       7 -> 13        -0.00442
       7 -> 18        -0.01365
       7 -> 23        -0.00172
       7 -> 28         0.00026
       7 -> 31        -0.00322
       7 -> 37         0.00119
       7 -> 44        -0.00100
       7 -> 48         0.00021
       7 -> 52         0.00106
       8 -> 12        -0.00790
       8 -> 16         0.04902
       8 -> 19        -0.02112
       8 -> 22        -0.01797
       8 -> 25        -0.00013
       8 -> 29        -0.00971
       8 -> 33         0.00139
       8 -> 35        -0.00137
       8 -> 40         0.00064
       8 -> 42        -0.00035
       8 -> 49         0.00034
       8 -> 51         0.00018
       8 -> 53        -0.00058
       3 <- 10        -0.01293
       3 <- 11        -0.00472
       3 <- 14         0.00360
       3 <- 15         0.00084
       3 <- 17        -0.00180
       3 <- 20        -0.00312
       3 <- 21        -0.00051
       3 <- 24         0.00059
       3 <- 26         0.00117
       3 <- 30        -0.00069
       3 <- 32         0.00248
       3 <- 34        -0.00083
       3 <- 36        -0.00106
       3 <- 39         0.00055
       3 <- 43         0.00060
       3 <- 45         0.00080
       3 <- 47         0.00234
       3 <- 50         0.00135
       3 <- 54         0.00015
       4 <- 10        -0.00167
       4 <- 11         0.00839
       4 <- 14         0.00187
       4 <- 15        -0.00571
       4 <- 17         0.00149
       4 <- 20         0.00336
       4 <- 21         0.00021
       4 <- 24        -0.00309
       4 <- 26         0.00345
       4 <- 32        -0.00156
       4 <- 34         0.00093
       4 <- 36         0.00061
       4 <- 43        -0.00048
       4 <- 45        -0.00081
       4 <- 47        -0.00059
       4 <- 50        -0.00018
       4 <- 54         0.00011
       5 <- 12         0.00673
       5 <- 16         0.00330
       5 <- 19         0.00101
       5 <- 22         0.00501
       5 <- 25        -0.00450
       5 <- 29         0.00028
       5 <- 33        -0.00218
       5 <- 35         0.00234
       5 <- 40        -0.00111
       5 <- 42         0.00072
       5 <- 49         0.00026
       5 <- 51        -0.00073
       6 <- 10         0.07231
       6 <- 11         0.02214
       6 <- 14        -0.02890
       6 <- 15        -0.01665
       6 <- 17        -0.00982
       6 <- 20        -0.00402
       6 <- 21         0.00548
       6 <- 24        -0.00661
       6 <- 26        -0.00257
       6 <- 30        -0.00436
       6 <- 32         0.00260
       6 <- 34        -0.00162
       6 <- 36        -0.00042
       6 <- 39         0.00108
       6 <- 41        -0.00018
       6 <- 43         0.00071
       6 <- 45         0.00065
       6 <- 47         0.00056
       6 <- 50         0.00055
       6 <- 54        -0.00077
       7 <-  9        -0.12971
       7 <- 13         0.00508
       7 <- 18        -0.01255
       7 <- 23         0.00188
       7 <- 28        -0.00260
       7 <- 31        -0.00157
       7 <- 37         0.00053
       7 <- 44        -0.00071
       7 <- 48        -0.00033
       7 <- 52         0.00095
       8 <- 12        -0.00262
       8 <- 16         0.02138
       8 <- 19        -0.01085
       8 <- 22        -0.01097
       8 <- 29        -0.00746
       8 <- 33         0.00108
       8 <- 35        -0.00108
       8 <- 40         0.00051
       8 <- 42        -0.00028
       8 <- 49         0.00018
       8 <- 51         0.00015
       8 <- 53        -0.00054

 Excited State   3:      Singlet-B1     4.5165 eV  274.51 nm  f=0.0010  <S**2>=0.000
       3 ->  9        -0.02565
       3 -> 13         0.00118
       3 -> 18        -0.00401
       3 -> 23         0.00140
       3 -> 28        -0.00077
       3 -> 31        -0.00055
       3 -> 44         0.00027
       3 -> 48         0.00089
       3 -> 52         0.00084
       4 ->  9         0.01114
       4 -> 13        -0.00239
       4 -> 18         0.00013
       4 -> 23        -0.00214
       4 -> 28         0.00036
       4 -> 31        -0.00135
       4 -> 37        -0.00034
       4 -> 44         0.00011
       4 -> 48        -0.00081
       4 -> 52        -0.00043
       5 -> 27         0.00015
       5 -> 38         0.00191
       5 -> 46         0.00061
       6 ->  9         0.69648
       6 -> 13        -0.01807
       6 -> 18         0.01516
       6 -> 23        -0.01049
       6 -> 28         0.00369
       6 -> 31         0.00273
       6 -> 37        -0.00184
       6 -> 44        -0.00228
       6 -> 48         0.00371
       6 -> 52         0.00121
       7 -> 10         0.12182
       7 -> 11         0.02544
       7 -> 14        -0.02213
       7 -> 15        -0.00640
       7 -> 17        -0.00906
       7 -> 20         0.00345
       7 -> 21         0.00104
       7 -> 24        -0.00159
       7 -> 26        -0.00221
       7 -> 30        -0.00401
       7 -> 32        -0.00022
       7 -> 34        -0.00088
       7 -> 36         0.00159
       7 -> 39         0.00018
       7 -> 41        -0.00029
       7 -> 43         0.00049
       7 -> 45         0.00028
       7 -> 47         0.00383
       7 -> 50         0.00121
       7 -> 54         0.00015
       8 -> 27         0.00020
       8 -> 46         0.00473
       3 <-  9        -0.00866
       3 <- 13        -0.00082
       3 <- 18        -0.00265
       3 <- 23        -0.00061
       3 <- 28        -0.00044
       3 <- 31        -0.00073
       3 <- 37         0.00014
       3 <- 44        -0.00013
       3 <- 48         0.00102
       3 <- 52         0.00072
       4 <-  9         0.00633
       4 <- 13        -0.00042
       4 <- 18         0.00163
       4 <- 23        -0.00075
       4 <- 28         0.00144
       4 <- 31        -0.00091
       4 <- 37        -0.00021
       4 <- 48        -0.00070
       4 <- 52        -0.00024
       5 <- 27        -0.00040
       5 <- 38         0.00162
       5 <- 46         0.00053
       6 <-  9        -0.03146
       6 <- 13         0.00187
       6 <- 18        -0.00393
       6 <- 23        -0.00011
       6 <- 28        -0.00371
       6 <- 31         0.00067
       6 <- 37        -0.00155
       6 <- 44        -0.00098
       6 <- 48         0.00332
       6 <- 52         0.00027
       7 <- 10        -0.03353
       7 <- 11        -0.01018
       7 <- 14         0.01436
       7 <- 15         0.00949
       7 <- 17         0.00237
       7 <- 20         0.00394
       7 <- 21        -0.00367
       7 <- 24         0.00430
       7 <- 26         0.00170
       7 <- 30         0.00164
       7 <- 32         0.00032
       7 <- 34        -0.00110
       7 <- 36         0.00199
       7 <- 39         0.00054
       7 <- 43         0.00030
       7 <- 47         0.00354
       7 <- 50         0.00123
       7 <- 54         0.00096
       8 <- 27         0.00068
       8 <- 38         0.00016
       8 <- 46         0.00444

 Excited State   4:      Singlet-B2     4.7256 eV  262.36 nm  f=0.0053  <S**2>=0.000
       3 -> 12        -0.00140
       3 -> 16         0.00176
       3 -> 19        -0.00446
       3 -> 22         0.00087
       3 -> 25        -0.00077
       3 -> 29        -0.00308
       3 -> 35         0.00187
       3 -> 40        -0.00165
       3 -> 42         0.00046
       3 -> 49        -0.00346
       3 -> 51         0.00020
       3 -> 53         0.00031
       4 -> 12         0.00046
       4 -> 16        -0.00203
       4 -> 19         0.00042
       4 -> 22         0.00234
       4 -> 25         0.00108
       4 -> 29         0.00123
       4 -> 33        -0.00042
       4 -> 35         0.00049
       4 -> 40         0.00041
       4 -> 49         0.00065
       4 -> 51        -0.00012
       5 -> 10         0.01094
       5 -> 11         0.00273
       5 -> 14        -0.00640
       5 -> 15         0.00409
       5 -> 17        -0.00029
       5 -> 20         0.00213
       5 -> 21         0.00441
       5 -> 24         0.00168
       5 -> 26        -0.00105
       5 -> 30        -0.00198
       5 -> 32        -0.00191
       5 -> 34         0.00065
       5 -> 36        -0.00013
       5 -> 39        -0.00089
       5 -> 41         0.00055
       5 -> 47        -0.00062
       5 -> 50         0.00038
       5 -> 54        -0.00023
       6 -> 12         0.00275
       6 -> 16        -0.00240
       6 -> 19         0.00380
       6 -> 22        -0.00048
       6 -> 25         0.00103
       6 -> 29        -0.00022
       6 -> 35        -0.00168
       6 -> 40         0.00132
       6 -> 42        -0.00064
       6 -> 49         0.00152
       6 -> 53        -0.00043
       7 -> 27        -0.00064
       7 -> 38         0.00054
       7 -> 46         0.00356
       8 -> 10         0.69169
       8 -> 11         0.11418
       8 -> 14        -0.08807
       8 -> 15        -0.03441
       8 -> 17        -0.01621
       8 -> 20         0.00210
       8 -> 21         0.00733
       8 -> 24        -0.00670
       8 -> 26        -0.00524
       8 -> 30        -0.01169
       8 -> 32        -0.00365
       8 -> 34         0.00170
       8 -> 36         0.00068
       8 -> 39        -0.00074
       8 -> 43        -0.00013
       8 -> 45         0.00111
       8 -> 47        -0.00439
       8 -> 50         0.00194
       8 -> 54        -0.00220
       3 <- 12        -0.00050
       3 <- 16         0.00055
       3 <- 19        -0.00214
       3 <- 22         0.00096
       3 <- 25        -0.00069
       3 <- 29        -0.00123
       3 <- 35         0.00136
       3 <- 40        -0.00144
       3 <- 42         0.00037
       3 <- 49        -0.00354
       3 <- 51         0.00019
       3 <- 53         0.00083
       4 <- 16        -0.00201
       4 <- 19         0.00011
       4 <- 22         0.00244
       4 <- 25         0.00067
       4 <- 29         0.00129
       4 <- 33        -0.00046
       4 <- 35         0.00072
       4 <- 40         0.00016
       4 <- 49         0.00047
       5 <- 10        -0.00073
       5 <- 11        -0.00108
       5 <- 14        -0.00072
       5 <- 15         0.00319
       5 <- 17         0.00020
       5 <- 20         0.00074
       5 <- 21         0.00194
       5 <- 24         0.00204
       5 <- 26        -0.00027
       5 <- 30        -0.00044
       5 <- 32        -0.00029
       5 <- 34         0.00010
       5 <- 39        -0.00035
       5 <- 41         0.00058
       5 <- 45         0.00032
       5 <- 47        -0.00057
       5 <- 50         0.00021
       6 <- 12        -0.00036
       6 <- 16         0.00687
       6 <- 19        -0.00333
       6 <- 22        -0.00486
       6 <- 25         0.00092
       6 <- 29        -0.00565
       6 <- 33         0.00038
       6 <- 35        -0.00161
       6 <- 40         0.00134
       6 <- 42        -0.00070
       6 <- 49         0.00187
       6 <- 53        -0.00130
       7 <- 27        -0.00063
       7 <- 38         0.00044
       7 <- 46         0.00301
       8 <- 10        -0.02989
       8 <- 11        -0.00925
       8 <- 14         0.00979
       8 <- 15         0.00273
       8 <- 17         0.00110
       8 <- 20        -0.00287
       8 <- 21        -0.00185
       8 <- 24         0.00161
       8 <- 26         0.00163
       8 <- 32         0.00302
       8 <- 34        -0.00108
       8 <- 36        -0.00057
       8 <- 39         0.00141
       8 <- 41         0.00036
       8 <- 43         0.00049
       8 <- 45         0.00188
       8 <- 47        -0.00349
       8 <- 50         0.00134
       8 <- 54        -0.00059

 Excited State   5:      Singlet-B1     5.6422 eV  219.74 nm  f=0.0078  <S**2>=0.000
       3 ->  9        -0.01113
       3 -> 13         0.00059
       3 -> 18        -0.00285
       3 -> 23         0.00078
       3 -> 28        -0.00311
       3 -> 31        -0.00160
       3 -> 37         0.00010
       3 -> 44         0.00041
       3 -> 48        -0.00260
       4 ->  9        -0.03253
       4 -> 13         0.00621
       4 -> 18         0.00123
       4 -> 23         0.00462
       4 -> 28         0.00163
       4 -> 37         0.00033
       4 -> 44        -0.00047
       4 -> 48         0.00068
       4 -> 52         0.00013
       5 -> 27        -0.00698
       5 -> 38        -0.00321
       5 -> 46         0.00040
       6 ->  9        -0.12385
       6 -> 13        -0.00149
       6 -> 18         0.00186
       6 -> 23        -0.00021
       6 -> 28         0.00328
       6 -> 31        -0.00368
       6 -> 37         0.00207
       6 -> 44         0.00031
       6 -> 48         0.00051
       6 -> 52        -0.00062
       7 -> 10         0.68339
       7 -> 11         0.09771
       7 -> 14        -0.07904
       7 -> 15        -0.04012
       7 -> 17        -0.00984
       7 -> 20        -0.00380
       7 -> 21         0.00383
       7 -> 24        -0.00997
       7 -> 26        -0.00696
       7 -> 30        -0.00701
       7 -> 32        -0.00202
       7 -> 34         0.00394
       7 -> 36        -0.00163
       7 -> 39        -0.00065
       7 -> 43         0.00062
       7 -> 45         0.00095
       7 -> 47         0.00164
       7 -> 50         0.00082
       7 -> 54        -0.00151
       8 -> 27         0.00091
       8 -> 38         0.00026
       8 -> 46         0.00196
       3 <-  9        -0.00241
       3 <- 13         0.00065
       3 <- 18        -0.00114
       3 <- 23         0.00059
       3 <- 28        -0.00199
       3 <- 31        -0.00029
       3 <- 37        -0.00020
       3 <- 44         0.00016
       3 <- 48        -0.00277
       3 <- 52         0.00038
       4 <-  9        -0.01194
       4 <- 13         0.00258
       4 <- 18         0.00045
       4 <- 23         0.00248
       4 <- 28         0.00154
       4 <- 31        -0.00014
       4 <- 37         0.00039
       4 <- 44        -0.00068
       4 <- 48         0.00026
       4 <- 52         0.00011
       5 <- 27        -0.00479
       5 <- 38        -0.00251
       5 <- 46         0.00038
       6 <-  9        -0.02717
       6 <- 18        -0.00375
       6 <- 23         0.00043
       6 <- 28        -0.00058
       6 <- 31        -0.00436
       6 <- 37         0.00185
       6 <- 44         0.00049
       6 <- 48         0.00096

 The electronic state is 1-A1.
 Alpha  occ. eigenvalues --  -19.17566 -10.33466  -0.90528  -0.70752  -0.49041
 Alpha  occ. eigenvalues --   -0.40058  -0.31613  -0.28833
 Alpha virt. eigenvalues --   -0.16150  -0.04396   0.00282   0.04063   0.06103
 Alpha virt. eigenvalues --    0.07074   0.12115   0.13767   0.18840   0.21178
 Alpha virt. eigenvalues --    0.23983   0.30324   0.38679   0.40159   0.50793

 Mulliken charges:
               1
     1  C   -0.083160
     2  H    0.188049
     3  H    0.188049
     4  O   -0.292937
 Sum of Mulliken charges =  -0.00000

 Dipole moment (field-independent basis, Debye):
    X=             -0.0000    Y=              0.0000    Z=             -4.0083  Tot=              4.0083
 Quadrupole moment (field-independent basis, Debye-Ang):
   XX=            -12.9293   YY=            -11.9757   ZZ=            -10.9293
   XY=              0.0000   XZ=              0.0000   YZ=              0.0000

 Normal termination of Gaussian 16 at Fri Sep 17 10:53:06 2021.
