 Gaussian 16, Revision A.03,
 Gaussian 16:  ES64L-G16RevA.03 25-Dec-2016

 --------------------------------------------------------------------
 #p B3LYP/6-311+G** #p TD=(singlets,nstates=30)IOp(6/8=3) IOp(9/40=4)
 --------------------------------------------------------------------

 -------------------------------
 Scan Step 236, Bond Length 1.68
 -------------------------------
 Symbolic Z-matrix:
 Charge =  0 Multiplicity = 1

                         Standard orientation:
 ---------------------------------------------------------------------
 Center     Atomic      Atomic             Coordinates (Angstroms)
 Number     Number       Type             X           Y           Z
 ---------------------------------------------------------------------
      1          6           0        0.000000   -0.000000   -0.766081
      2          1           0        0.000000    0.937260   -1.357431
      3          1           0       -0.000000   -0.937260   -1.357431
      4          8           0        0.000000    0.000000    0.913919
 ---------------------------------------------------------------------

 SCF Done:  E(RB3LYP) =  -114.398319525     A.U. after   11 cycles

 Excitation energies and oscillator strengths:

 Excited State   1:      Singlet-A2     1.7070 eV  726.32 nm  f=0.0000  <S**2>=0.000
       3 -> 27         0.00099
       3 -> 38         0.00070
       3 -> 46         0.00334
       4 -> 27         0.00057
       4 -> 46        -0.00119
       5 ->  9         0.00504
       5 -> 13         0.00107
       5 -> 18         0.00241
       5 -> 23         0.00157
       5 -> 28         0.00203
       5 -> 37         0.00111
       5 -> 44         0.00029
       5 -> 52         0.00027
       6 -> 27        -0.00062
       6 -> 38        -0.00070
       6 -> 46         0.00120
       7 -> 12        -0.00103
       7 -> 16         0.00498
       7 -> 19        -0.00426
       7 -> 22        -0.00094
       7 -> 25         0.00080
       7 -> 29        -0.00168
       7 -> 33         0.00033
       7 -> 49         0.00012
       7 -> 50         0.00013
       7 -> 53         0.00042
       8 ->  9         0.70923
       8 -> 13        -0.01054
       8 -> 18         0.02138
       8 -> 23        -0.00240
       8 -> 28         0.01086
       8 -> 31         0.00136
       8 -> 37         0.00058
       8 -> 48        -0.00031
       8 -> 52         0.00192
       3 <- 27         0.00040
       3 <- 38         0.00044
       3 <- 46         0.00338
       4 <- 27         0.00102
       4 <- 38         0.00023
       4 <- 46        -0.00095
       5 <- 13        -0.00045
       5 <- 18        -0.00057
       5 <- 23         0.00023
       5 <- 28        -0.00040
       5 <- 31         0.00030
       5 <- 37         0.00064
       6 <- 38        -0.00056
       6 <- 46         0.00091
       7 <- 12         0.00105
       7 <- 16        -0.01032
       7 <- 19         0.00441
       7 <- 22         0.00655
       7 <- 25         0.00058
       7 <- 29         0.00543
       7 <- 33        -0.00043
       7 <- 36         0.00054
       7 <- 40        -0.00035
       7 <- 42         0.00016
       7 <- 49        -0.00045
       7 <- 53         0.00146
       8 <-  9        -0.05949
       8 <- 13         0.00012
       8 <- 18        -0.00703
       8 <- 28        -0.00254
       8 <- 31        -0.00070
       8 <- 37        -0.00035
       8 <- 48         0.00011
       8 <- 52         0.00049
 This state for optimization and/or second-order correction.
 Total Energy, E(TD-HF/TD-DFT) =  -114.335587862
 Copying the excited state density for this state as the 1-particle RhoCI density.

 Excited State   2:      Singlet-A1     4.4390 eV  279.31 nm  f=0.0567  <S**2>=0.000
       3 -> 10        -0.01804
       3 -> 11        -0.00839
       3 -> 14         0.00688
       3 -> 15         0.00276
       3 -> 17        -0.00339
       3 -> 20        -0.00398
       3 -> 21        -0.00041
       3 -> 24         0.00167
       3 -> 26         0.00290
       3 -> 30        -0.00129
       3 -> 32         0.00276
       3 -> 34         0.00178
       3 -> 35        -0.00119
       3 -> 39         0.00067
       3 -> 43         0.00049
       3 -> 45         0.00044
       3 -> 47         0.00229
       3 -> 51         0.00125
       4 -> 10        -0.00671
       4 -> 11         0.01293
       4 -> 14         0.00379
       4 -> 15        -0.00938
       4 -> 17         0.00286
       4 -> 20         0.00401
       4 -> 21         0.00039
       4 -> 24        -0.00453
       4 -> 26         0.00448
       4 -> 30         0.00093
       4 -> 32        -0.00136
       4 -> 34        -0.00130
       4 -> 35         0.00040
       4 -> 41         0.00012
       4 -> 43        -0.00050
       4 -> 45        -0.00083
       4 -> 47        -0.00104
       4 -> 51        -0.00033
       4 -> 54         0.00013
       5 -> 12         0.01426
       5 -> 16         0.00741
       5 -> 19         0.00141
       5 -> 22         0.00752
       5 -> 25         0.00691
       5 -> 33        -0.00284
       5 -> 36         0.00278
       5 -> 40        -0.00136
       5 -> 42         0.00074
       5 -> 49         0.00036
       5 -> 50        -0.00074
       6 -> 10         0.19800
       6 -> 11         0.07744
       6 -> 14        -0.07935
       6 -> 15        -0.04322
       6 -> 17        -0.01876
       6 -> 20        -0.00688
       6 -> 21         0.01036
       6 -> 24        -0.01167
       6 -> 26        -0.00540
       6 -> 30        -0.00698
       6 -> 32         0.00167
       6 -> 34         0.00141
       6 -> 35        -0.00024
       6 -> 39         0.00102
       6 -> 41        -0.00029
       6 -> 43         0.00085
       6 -> 45         0.00083
       6 -> 47         0.00106
       6 -> 51         0.00076
       6 -> 54        -0.00080
       7 ->  9         0.68157
       7 -> 13        -0.00271
       7 -> 18        -0.01543
       7 -> 23        -0.00111
       7 -> 28        -0.00033
       7 -> 31        -0.00316
       7 -> 37         0.00109
       7 -> 44        -0.00103
       7 -> 48         0.00029
       7 -> 52         0.00105
       8 -> 12        -0.00786
       8 -> 16         0.05633
       8 -> 19        -0.02239
       8 -> 22        -0.02107
       8 -> 25         0.00028
       8 -> 29        -0.01061
       8 -> 33         0.00168
       8 -> 36        -0.00182
       8 -> 40         0.00088
       8 -> 42        -0.00036
       8 -> 49         0.00044
       8 -> 50         0.00020
       8 -> 53        -0.00063
       3 <- 10        -0.01286
       3 <- 11        -0.00637
       3 <- 14         0.00533
       3 <- 15         0.00168
       3 <- 17        -0.00181
       3 <- 20        -0.00306
       3 <- 21        -0.00083
       3 <- 24         0.00093
       3 <- 26         0.00159
       3 <- 30        -0.00077
       3 <- 32         0.00250
       3 <- 34         0.00107
       3 <- 35        -0.00105
       3 <- 39         0.00063
       3 <- 43         0.00058
       3 <- 45         0.00062
       3 <- 47         0.00235
       3 <- 51         0.00123
       3 <- 54         0.00021
       4 <- 10        -0.00297
       4 <- 11         0.00852
       4 <- 14         0.00216
       4 <- 15        -0.00584
       4 <- 17         0.00154
       4 <- 20         0.00377
       4 <- 21         0.00025
       4 <- 24        -0.00322
       4 <- 26         0.00368
       4 <- 30         0.00020
       4 <- 32        -0.00162
       4 <- 34        -0.00112
       4 <- 35         0.00067
       4 <- 43        -0.00048
       4 <- 45        -0.00086
       4 <- 47        -0.00067
       4 <- 51        -0.00018
       5 <- 12         0.00714
       5 <- 16         0.00415
       5 <- 19         0.00102
       5 <- 22         0.00492
       5 <- 25         0.00494
       5 <- 29         0.00019
       5 <- 33        -0.00226
       5 <- 36         0.00231
       5 <- 40        -0.00120
       5 <- 42         0.00063
       5 <- 49         0.00032
       5 <- 50        -0.00069
       6 <- 10         0.06272
       6 <- 11         0.02699
       6 <- 14        -0.03332
       6 <- 15        -0.01994
       6 <- 17        -0.00987
       6 <- 20        -0.00508
       6 <- 21         0.00638
       6 <- 24        -0.00733
       6 <- 26        -0.00309
       6 <- 30        -0.00487
       6 <- 32         0.00202
       6 <- 34         0.00167
       6 <- 35        -0.00062
       6 <- 39         0.00102
       6 <- 41        -0.00022
       6 <- 43         0.00072
       6 <- 45         0.00068
       6 <- 47         0.00064
       6 <- 51         0.00060
       6 <- 54        -0.00069
       7 <-  9        -0.12806
       7 <- 13         0.00598
       7 <- 18        -0.01309
       7 <- 23         0.00248
       7 <- 28        -0.00308
       7 <- 31        -0.00152
       7 <- 37         0.00046
       7 <- 44        -0.00068
       7 <- 48        -0.00027
       7 <- 52         0.00094
       8 <- 12        -0.00230
       8 <- 16         0.02272
       8 <- 19        -0.01075
       8 <- 22        -0.01230
       8 <- 29        -0.00796
       8 <- 33         0.00128
       8 <- 36        -0.00142
       8 <- 40         0.00071
       8 <- 42        -0.00029
       8 <- 49         0.00027
       8 <- 50         0.00017
       8 <- 53        -0.00058

 Excited State   3:      Singlet-B1     4.8476 eV  255.77 nm  f=0.0012  <S**2>=0.000
       3 ->  9        -0.02690
       3 -> 13         0.00137
       3 -> 18        -0.00424
       3 -> 23         0.00153
       3 -> 28        -0.00080
       3 -> 31        -0.00050
       3 -> 44         0.00024
       3 -> 48         0.00098
       3 -> 52         0.00089
       4 ->  9         0.01234
       4 -> 13        -0.00256
       4 -> 18         0.00017
       4 -> 23        -0.00230
       4 -> 28         0.00030
       4 -> 31        -0.00142
       4 -> 37        -0.00037
       4 -> 44         0.00012
       4 -> 48        -0.00093
       4 -> 52        -0.00049
       5 -> 27         0.00012
       5 -> 38         0.00199
       5 -> 46         0.00071
       6 ->  9         0.70203
       6 -> 13        -0.01882
       6 -> 18         0.01579
       6 -> 23        -0.01068
       6 -> 28         0.00387
       6 -> 31         0.00296
       6 -> 37        -0.00199
       6 -> 44        -0.00252
       6 -> 48         0.00389
       6 -> 52         0.00131
       7 -> 10         0.08020
       7 -> 11         0.02604
       7 -> 14        -0.02062
       7 -> 15        -0.00613
       7 -> 17        -0.00895
       7 -> 20         0.00325
       7 -> 21         0.00068
       7 -> 24        -0.00111
       7 -> 26        -0.00189
       7 -> 30        -0.00386
       7 -> 32        -0.00037
       7 -> 34         0.00092
       7 -> 35         0.00167
       7 -> 39         0.00016
       7 -> 41        -0.00038
       7 -> 43         0.00051
       7 -> 47         0.00399
       7 -> 51         0.00120
       7 -> 54         0.00028
       8 -> 27         0.00030
       8 -> 46         0.00495
       3 <-  9        -0.00908
       3 <- 13        -0.00077
       3 <- 18        -0.00275
       3 <- 23        -0.00061
       3 <- 28        -0.00048
       3 <- 31        -0.00071
       3 <- 37         0.00012
       3 <- 44        -0.00019
       3 <- 48         0.00113
       3 <- 52         0.00074
       4 <-  9         0.00663
       4 <- 13        -0.00038
       4 <- 18         0.00175
       4 <- 23        -0.00072
       4 <- 28         0.00150
       4 <- 31        -0.00095
       4 <- 37        -0.00022
       4 <- 48        -0.00081
       4 <- 52        -0.00028
       5 <- 27        -0.00046
       5 <- 38         0.00165
       5 <- 46         0.00063
       6 <-  9        -0.02833
       6 <- 13         0.00177
       6 <- 18        -0.00359
       6 <- 23        -0.00021
       6 <- 28        -0.00356
       6 <- 31         0.00092
       6 <- 37        -0.00170
       6 <- 44        -0.00122
       6 <- 48         0.00347
       6 <- 52         0.00038
       7 <- 10        -0.02649
       7 <- 11        -0.01131
       7 <- 14         0.01497
       7 <- 15         0.01037
       7 <- 17         0.00202
       7 <- 20         0.00441
       7 <- 21        -0.00390
       7 <- 24         0.00436
       7 <- 26         0.00169
       7 <- 30         0.00142
       7 <- 32         0.00018
       7 <- 34         0.00105
       7 <- 35         0.00230
       7 <- 39         0.00050
       7 <- 43         0.00033
       7 <- 45        -0.00011
       7 <- 47         0.00368
       7 <- 51         0.00116
       7 <- 54         0.00102
       8 <- 27         0.00078
       8 <- 38         0.00020
       8 <- 46         0.00464

 Excited State   4:      Singlet-B2     5.2523 eV  236.06 nm  f=0.0077  <S**2>=0.000
       3 -> 12        -0.00147
       3 -> 16         0.00193
       3 -> 19        -0.00460
       3 -> 22         0.00074
       3 -> 25         0.00067
       3 -> 29        -0.00327
       3 -> 36         0.00205
       3 -> 40        -0.00177
       3 -> 42         0.00037
       3 -> 49        -0.00320
       3 -> 50         0.00021
       3 -> 53         0.00031
       4 -> 12         0.00046
       4 -> 16        -0.00231
       4 -> 19         0.00037
       4 -> 22         0.00264
       4 -> 25        -0.00137
       4 -> 29         0.00137
       4 -> 33        -0.00045
       4 -> 36         0.00052
       4 -> 40         0.00046
       4 -> 49         0.00058
       4 -> 50        -0.00012
       5 -> 10         0.01033
       5 -> 11         0.00394
       5 -> 14        -0.00845
       5 -> 15         0.00429
       5 -> 20         0.00216
       5 -> 21         0.00511
       5 -> 24         0.00178
       5 -> 26        -0.00133
       5 -> 30        -0.00198
       5 -> 32        -0.00194
       5 -> 34        -0.00089
       5 -> 35        -0.00024
       5 -> 39        -0.00098
       5 -> 41         0.00062
       5 -> 45         0.00011
       5 -> 47        -0.00072
       5 -> 51         0.00044
       5 -> 54        -0.00024
       6 -> 12         0.00293
       6 -> 16        -0.00215
       6 -> 19         0.00357
       6 -> 22        -0.00039
       6 -> 25        -0.00095
       6 -> 29        -0.00037
       6 -> 33         0.00016
       6 -> 36        -0.00189
       6 -> 40         0.00154
       6 -> 42        -0.00055
       6 -> 49         0.00161
       6 -> 53        -0.00041
       7 -> 27        -0.00067
       7 -> 38         0.00066
       7 -> 46         0.00371
       8 -> 10         0.67776
       8 -> 11         0.16578
       8 -> 14        -0.10677
       8 -> 15        -0.04342
       8 -> 17        -0.01565
       8 -> 20         0.00078
       8 -> 21         0.00755
       8 -> 24        -0.00690
       8 -> 26        -0.00548
       8 -> 30        -0.01110
       8 -> 32        -0.00367
       8 -> 34        -0.00190
       8 -> 35         0.00026
       8 -> 39        -0.00074
       8 -> 43        -0.00023
       8 -> 45         0.00134
       8 -> 47        -0.00453
       8 -> 51         0.00211
       8 -> 54        -0.00202
       3 <- 12        -0.00053
       3 <- 16         0.00057
       3 <- 19        -0.00218
       3 <- 22         0.00095
       3 <- 25         0.00060
       3 <- 29        -0.00130
       3 <- 36         0.00152
       3 <- 40        -0.00155
       3 <- 42         0.00030
       3 <- 49        -0.00329
       3 <- 50         0.00019
       3 <- 53         0.00086
       4 <- 16        -0.00215
       4 <- 22         0.00259
       4 <- 25        -0.00085
       4 <- 29         0.00133
       4 <- 33        -0.00051
       4 <- 36         0.00075
       4 <- 40         0.00017
       4 <- 49         0.00042
       5 <- 10        -0.00047
       5 <- 11        -0.00133
       5 <- 14        -0.00094
       5 <- 15         0.00352
       5 <- 17         0.00021
       5 <- 20         0.00069
       5 <- 21         0.00204
       5 <- 24         0.00225
       5 <- 26        -0.00036
       5 <- 30        -0.00046
       5 <- 32        -0.00021
       5 <- 34        -0.00018
       5 <- 39        -0.00036
       5 <- 41         0.00065
       5 <- 43         0.00011
       5 <- 45         0.00037
       5 <- 47        -0.00065
       5 <- 51         0.00024
       6 <- 12        -0.00019
       6 <- 16         0.00638
       6 <- 19        -0.00298
       6 <- 22        -0.00460
       6 <- 25        -0.00076
       6 <- 29        -0.00534
       6 <- 33         0.00047
       6 <- 36        -0.00185
       6 <- 40         0.00157
       6 <- 42        -0.00062
       6 <- 49         0.00188
       6 <- 53        -0.00122
       7 <- 27        -0.00065
       7 <- 38         0.00052
       7 <- 46         0.00311
       8 <- 10        -0.02409
       8 <- 11        -0.01062
       8 <- 14         0.01088
       8 <- 15         0.00327
       8 <- 17         0.00076
       8 <- 20        -0.00273
       8 <- 21        -0.00207
       8 <- 24         0.00157
       8 <- 26         0.00180
       8 <- 30        -0.00043
       8 <- 32         0.00285
       8 <- 34         0.00122
       8 <- 35        -0.00046
       8 <- 39         0.00149
       8 <- 41         0.00044
       8 <- 43         0.00046
       8 <- 45         0.00208
       8 <- 47        -0.00352
       8 <- 51         0.00138
       8 <- 54        -0.00053

 Excited State   5:      Singlet-B1     6.2682 eV  197.80 nm  f=0.0079  <S**2>=0.000
       3 ->  9        -0.01366
       3 -> 13         0.00081
       3 -> 18        -0.00309
       3 -> 23         0.00096
       3 -> 28        -0.00335
       3 -> 31        -0.00161
       3 -> 44         0.00048
       3 -> 48        -0.00232
       4 ->  9        -0.03436
       4 -> 13         0.00636
       4 -> 18         0.00143
       4 -> 23         0.00465
       4 -> 28         0.00193
       4 -> 31        -0.00017
       4 -> 37         0.00035
       4 -> 44        -0.00047
       4 -> 48         0.00057
       4 -> 52         0.00011
       5 -> 27        -0.00729
       5 -> 38        -0.00312
       5 -> 46         0.00051
       6 ->  9        -0.08436
       6 -> 13        -0.00299
       6 -> 18         0.00224
       6 -> 23        -0.00096
       6 -> 28         0.00334
       6 -> 31        -0.00364
       6 -> 37         0.00192
       6 -> 48         0.00084
       6 -> 52        -0.00053
       7 -> 10         0.67876
       7 -> 11         0.14200
       7 -> 14        -0.09543
       7 -> 15        -0.04769
       7 -> 17        -0.00968
       7 -> 20        -0.00476
       7 -> 21         0.00370
       7 -> 24        -0.00981
       7 -> 26        -0.00749
       7 -> 30        -0.00668
       7 -> 32        -0.00174
       7 -> 34        -0.00399
       7 -> 35        -0.00189
       7 -> 39        -0.00067
       7 -> 43         0.00060
       7 -> 45         0.00087
       7 -> 47         0.00196
       7 -> 51         0.00100
       7 -> 54        -0.00136
       8 -> 27         0.00112
       8 -> 38         0.00031
       8 -> 46         0.00230
       3 <-  9        -0.00290
       3 <- 13         0.00066
       3 <- 18        -0.00125
       3 <- 23         0.00062
       3 <- 28        -0.00208
       3 <- 31        -0.00031
       3 <- 37        -0.00021
       3 <- 44         0.00021
       3 <- 48        -0.00250
       3 <- 52         0.00042
       4 <-  9        -0.01106
       4 <- 13         0.00242
       4 <- 18         0.00053
       4 <- 23         0.00231
       4 <- 28         0.00174
       4 <- 31        -0.00030
       4 <- 37         0.00042
       4 <- 44        -0.00069
       4 <- 48         0.00016
       5 <- 27        -0.00484
       5 <- 38        -0.00238
       5 <- 46         0.00047
       6 <-  9        -0.02482
       6 <- 18        -0.00365
       6 <- 23         0.00026
       6 <- 28        -0.00065
       6 <- 31        -0.00412
       6 <- 37         0.00164
       6 <- 44         0.00028

 The electronic state is 1-A1.
 Alpha  occ. eigenvalues --  -19.17446 -10.33174  -0.91340  -0.70357  -0.48954
 Alpha  occ. eigenvalues --   -0.40650  -0.32133  -0.28891
 Alpha virt. eigenvalues --   -0.15561  -0.03009   0.00543   0.04073   0.06111
 Alpha virt. eigenvalues --    0.07626   0.12363   0.14019   0.18884   0.21265
 Alpha virt. eigenvalues --    0.23986   0.30265   0.38812   0.40505   0.50861

 Mulliken charges:
               1
     1  C   -0.074938
     2  H    0.185101
     3  H    0.185101
     4  O   -0.295264
 Sum of Mulliken charges =   0.00000

 Dipole moment (field-independent basis, Debye):
    X=             -0.0000    Y=             -0.0000    Z=             -3.9154  Tot=              3.9154
 Quadrupole moment (field-independent basis, Debye-Ang):
   XX=            -12.8605   YY=            -11.9419   ZZ=            -11.0770
   XY=              0.0000   XZ=              0.0000   YZ=             -0.0000

 Normal termination of Gaussian 16 at Fri Sep 17 10:53:02 2021.
