 Gaussian 16, Revision A.03,
 Gaussian 16:  ES64L-G16RevA.03 25-Dec-2016

 --------------------------------------------------------------------
 #p B3LYP/6-311+G** #p TD=(singlets,nstates=30)IOp(6/8=3) IOp(9/40=4)
 --------------------------------------------------------------------

 ---------------------------------------------
 Scan Step 197, Bond Length 1.4849999999999999
 ---------------------------------------------
 Symbolic Z-matrix:
 Charge =  0 Multiplicity = 1

                         Standard orientation:
 ---------------------------------------------------------------------
 Center     Atomic      Atomic             Coordinates (Angstroms)
 Number     Number       Type             X           Y           Z
 ---------------------------------------------------------------------
      1          6           0        0.000000    0.000000   -0.668581
      2          1           0        0.000000    0.937260   -1.259931
      3          1           0       -0.000000   -0.937260   -1.259931
      4          8           0        0.000000   -0.000000    0.816419
 ---------------------------------------------------------------------

 SCF Done:  E(RB3LYP) =  -114.470869089     A.U. after   10 cycles

 Excitation energies and oscillator strengths:

 Excited State   1:      Singlet-A2     2.4559 eV  504.85 nm  f=0.0000  <S**2>=0.000
       3 -> 27         0.00151
       3 -> 38         0.00119
       3 -> 46         0.00315
       4 -> 27         0.00095
       4 -> 38        -0.00022
       4 -> 46        -0.00139
       5 ->  9         0.01161
       5 -> 13         0.00047
       5 -> 18         0.00366
       5 -> 23         0.00151
       5 -> 28         0.00327
       5 -> 31        -0.00045
       5 -> 37         0.00188
       5 -> 44         0.00041
       5 -> 52         0.00046
       6 -> 27        -0.00058
       6 -> 38        -0.00085
       6 -> 46         0.00153
       7 -> 12        -0.00076
       7 -> 15         0.00432
       7 -> 19        -0.00372
       7 -> 22        -0.00046
       7 -> 25         0.00114
       7 -> 30        -0.00134
       7 -> 33         0.00041
       7 -> 42        -0.00010
       7 -> 49         0.00014
       7 -> 50         0.00022
       7 -> 53         0.00047
       8 ->  9         0.70767
       8 -> 13        -0.01838
       8 -> 18         0.02196
       8 -> 23        -0.00522
       8 -> 28         0.01102
       8 -> 31         0.00036
       8 -> 37         0.00064
       8 -> 48        -0.00030
       8 -> 52         0.00192
       3 <- 27         0.00080
       3 <- 38         0.00089
       3 <- 46         0.00322
       4 <- 27         0.00157
       4 <- 38         0.00022
       4 <- 46        -0.00113
       5 <-  9        -0.00047
       5 <- 13        -0.00062
       5 <- 18        -0.00084
       5 <- 23         0.00035
       5 <- 28        -0.00059
       5 <- 31         0.00045
       5 <- 37         0.00101
       5 <- 44         0.00014
       5 <- 52         0.00012
       6 <- 38        -0.00071
       6 <- 46         0.00119
       7 <- 12         0.00011
       7 <- 15        -0.00948
       7 <- 19         0.00274
       7 <- 22         0.00728
       7 <- 25         0.00042
       7 <- 30         0.00491
       7 <- 33        -0.00073
       7 <- 35         0.00131
       7 <- 40         0.00067
       7 <- 42         0.00011
       7 <- 49        -0.00028
       7 <- 50         0.00014
       7 <- 53         0.00144
       8 <-  9        -0.04178
       8 <- 13         0.00104
       8 <- 18        -0.00593
       8 <- 23         0.00043
       8 <- 28        -0.00204
       8 <- 31        -0.00055
       8 <- 37        -0.00067
       8 <- 52         0.00052
 This state for optimization and/or second-order correction.
 Total Energy, E(TD-HF/TD-DFT) =  -114.380617062
 Copying the excited state density for this state as the 1-particle RhoCI density.

 Excited State   2:      Singlet-A1     6.1777 eV  200.69 nm  f=0.1075  <S**2>=0.000
       3 -> 10         0.00894
       3 -> 11        -0.01665
       3 -> 14         0.01154
       3 -> 16         0.01834
       3 -> 17        -0.00411
       3 -> 20        -0.00279
       3 -> 21        -0.00304
       3 -> 24         0.00415
       3 -> 26         0.00602
       3 -> 29        -0.00041
       3 -> 32         0.00282
       3 -> 34         0.00356
       3 -> 36         0.00036
       3 -> 39         0.00110
       3 -> 43         0.00046
       3 -> 45         0.00116
       3 -> 47         0.00181
       3 -> 51         0.00064
       3 -> 54         0.00028
       4 -> 10         0.01990
       4 -> 11         0.01035
       4 -> 14         0.01193
       4 -> 16        -0.00727
       4 -> 17         0.00337
       4 -> 20         0.00769
       4 -> 21         0.00030
       4 -> 24        -0.00624
       4 -> 26         0.00582
       4 -> 29         0.00115
       4 -> 32        -0.00122
       4 -> 34        -0.00251
       4 -> 36        -0.00018
       4 -> 39        -0.00019
       4 -> 41         0.00014
       4 -> 43        -0.00027
       4 -> 45         0.00010
       4 -> 47        -0.00166
       4 -> 51        -0.00024
       5 -> 12         0.02350
       5 -> 15         0.01953
       5 -> 19         0.00169
       5 -> 22         0.00584
       5 -> 25         0.01078
       5 -> 30        -0.00135
       5 -> 33        -0.00333
       5 -> 35         0.00245
       5 -> 40         0.00161
       5 -> 42         0.00064
       5 -> 49         0.00059
       5 -> 50        -0.00056
       5 -> 53        -0.00022
       6 -> 10        -0.06467
       6 -> 11         0.09540
       6 -> 14        -0.06173
       6 -> 16        -0.11828
       6 -> 17        -0.01892
       6 -> 20        -0.02176
       6 -> 21         0.02105
       6 -> 24        -0.01927
       6 -> 26        -0.00981
       6 -> 29        -0.00962
       6 -> 34         0.00212
       6 -> 36        -0.00149
       6 -> 39         0.00049
       6 -> 41        -0.00067
       6 -> 43         0.00064
       6 -> 45        -0.00013
       6 -> 47         0.00173
       6 -> 51         0.00083
       6 -> 54        -0.00044
       7 ->  9         0.68615
       7 -> 13         0.00995
       7 -> 18        -0.02350
       7 -> 23         0.00299
       7 -> 28        -0.00336
       7 -> 31        -0.00250
       7 -> 37         0.00048
       7 -> 44        -0.00103
       7 -> 48         0.00056
       7 -> 52         0.00103
       8 -> 12        -0.00360
       8 -> 15         0.09854
       8 -> 19        -0.02656
       8 -> 22        -0.03719
       8 -> 25         0.00172
       8 -> 30        -0.01415
       8 -> 33         0.00376
       8 -> 35        -0.00474
       8 -> 40        -0.00209
       8 -> 42        -0.00034
       8 -> 49         0.00069
       8 -> 50         0.00030
       8 -> 53        -0.00087
       3 <- 10         0.00533
       3 <- 11        -0.01064
       3 <- 14         0.00815
       3 <- 16         0.01228
       3 <- 17        -0.00208
       3 <- 20        -0.00174
       3 <- 21        -0.00290
       3 <- 24         0.00278
       3 <- 26         0.00380
       3 <- 29        -0.00017
       3 <- 32         0.00258
       3 <- 34         0.00237
       3 <- 36         0.00017
       3 <- 39         0.00089
       3 <- 41         0.00012
       3 <- 43         0.00051
       3 <- 45         0.00105
       3 <- 47         0.00204
       3 <- 51         0.00061
       3 <- 54         0.00035
       4 <- 10         0.00917
       4 <- 11         0.00576
       4 <- 14         0.00561
       4 <- 16        -0.00433
       4 <- 17         0.00151
       4 <- 20         0.00541
       4 <- 21         0.00028
       4 <- 24        -0.00394
       4 <- 26         0.00429
       4 <- 29         0.00026
       4 <- 32        -0.00158
       4 <- 34        -0.00216
       4 <- 39        -0.00024
       4 <- 43        -0.00027
       4 <- 45         0.00046
       4 <- 47        -0.00134
       5 <- 12         0.00857
       5 <- 15         0.00854
       5 <- 19         0.00108
       5 <- 22         0.00327
       5 <- 25         0.00667
       5 <- 30        -0.00075
       5 <- 33        -0.00247
       5 <- 35         0.00195
       5 <- 40         0.00137
       5 <- 42         0.00050
       5 <- 49         0.00050
       5 <- 50        -0.00051
       5 <- 53        -0.00020
       6 <- 10        -0.01601
       6 <- 11         0.02537
       6 <- 14        -0.02119
       6 <- 16        -0.04530
       6 <- 17        -0.00790
       6 <- 20        -0.01120
       6 <- 21         0.01105
       6 <- 24        -0.01098
       6 <- 26        -0.00576
       6 <- 29        -0.00625
       6 <- 32         0.00052
       6 <- 34         0.00227
       6 <- 36        -0.00112
       6 <- 39         0.00064
       6 <- 41        -0.00045
       6 <- 43         0.00056
       6 <- 45        -0.00036
       6 <- 47         0.00126
       6 <- 51         0.00063
       6 <- 54        -0.00035
       7 <-  9        -0.11396
       7 <- 13         0.01001
       7 <- 18        -0.01468
       7 <- 23         0.00544
       7 <- 28        -0.00510
       7 <- 31        -0.00092
       7 <- 44        -0.00051
       7 <- 52         0.00087
       8 <- 12        -0.00054
       8 <- 15         0.02676
       8 <- 19        -0.00911
       8 <- 22        -0.01757
       8 <- 25         0.00055
       8 <- 30        -0.00949
       8 <- 33         0.00266
       8 <- 35        -0.00346
       8 <- 40        -0.00165
       8 <- 42        -0.00027
       8 <- 49         0.00048
       8 <- 50         0.00024
       8 <- 53        -0.00077

 Excited State   3:      Singlet-B1     6.3032 eV  196.70 nm  f=0.0015  <S**2>=0.000
       3 ->  9        -0.03162
       3 -> 13         0.00254
       3 -> 18        -0.00550
       3 -> 23         0.00239
       3 -> 28        -0.00138
       3 -> 31        -0.00050
       3 -> 44         0.00034
       3 -> 48         0.00076
       3 -> 52         0.00105
       4 ->  9         0.01503
       4 -> 13        -0.00271
       4 -> 18         0.00049
       4 -> 23        -0.00248
       4 -> 28         0.00020
       4 -> 31        -0.00178
       4 -> 37        -0.00045
       4 -> 48        -0.00132
       4 -> 52        -0.00074
       5 -> 27        -0.00070
       5 -> 38         0.00199
       5 -> 46         0.00142
       6 ->  9         0.70601
       6 -> 13        -0.02339
       6 -> 18         0.01867
       6 -> 23        -0.01154
       6 -> 28         0.00524
       6 -> 31         0.00375
       6 -> 37        -0.00242
       6 -> 44        -0.00324
       6 -> 48         0.00465
       6 -> 52         0.00166
       7 -> 10        -0.00840
       7 -> 11         0.01128
       7 -> 14        -0.00713
       7 -> 16        -0.00725
       7 -> 17        -0.00998
       7 -> 20         0.00229
       7 -> 21        -0.00084
       7 -> 24         0.00018
       7 -> 26        -0.00078
       7 -> 29        -0.00431
       7 -> 32        -0.00099
       7 -> 36         0.00180
       7 -> 39         0.00012
       7 -> 41        -0.00099
       7 -> 43         0.00069
       7 -> 45         0.00273
       7 -> 47         0.00391
       7 -> 51         0.00115
       7 -> 54         0.00053
       8 -> 27         0.00109
       8 -> 38         0.00033
       8 -> 46         0.00600
       3 <-  9        -0.01036
       3 <- 13        -0.00026
       3 <- 18        -0.00315
       3 <- 23        -0.00030
       3 <- 28        -0.00091
       3 <- 31        -0.00057
       3 <- 44        -0.00026
       3 <- 48         0.00097
       3 <- 52         0.00083
       4 <-  9         0.00650
       4 <- 18         0.00223
       4 <- 23        -0.00040
       4 <- 28         0.00195
       4 <- 31        -0.00132
       4 <- 37        -0.00013
       4 <- 44         0.00016
       4 <- 48        -0.00115
       4 <- 52        -0.00042
       5 <- 27        -0.00112
       5 <- 38         0.00156
       5 <- 46         0.00127
       6 <-  9        -0.02304
       6 <- 13         0.00188
       6 <- 18        -0.00304
       6 <- 23        -0.00019
       6 <- 28        -0.00305
       6 <- 31         0.00184
       6 <- 37        -0.00220
       6 <- 44        -0.00191
       6 <- 48         0.00414
       6 <- 52         0.00060
       7 <- 10         0.00550
       7 <- 11        -0.00847
       7 <- 14         0.00685
       7 <- 16         0.01697
       7 <- 17         0.00025
       7 <- 20         0.00594
       7 <- 21        -0.00532
       7 <- 24         0.00494
       7 <- 26         0.00219
       7 <- 29         0.00070
       7 <- 32        -0.00071
       7 <- 34        -0.00069
       7 <- 36         0.00284
       7 <- 39         0.00038
       7 <- 41        -0.00058
       7 <- 43         0.00060
       7 <- 45         0.00260
       7 <- 47         0.00345
       7 <- 51         0.00091
       7 <- 54         0.00110
       8 <- 27         0.00141
       8 <- 38         0.00048
       8 <- 46         0.00549

 Excited State   4:      Singlet-B2     6.8355 eV  181.38 nm  f=0.0157  <S**2>=0.000
       3 -> 12         0.00187
       3 -> 15        -0.00048
       3 -> 19         0.00268
       3 -> 22        -0.00029
       3 -> 25         0.00062
       3 -> 30         0.00146
       3 -> 33         0.00038
       3 -> 35        -0.00133
       3 -> 40        -0.00094
       3 -> 42        -0.00012
       3 -> 49         0.00113
       3 -> 50        -0.00015
       3 -> 53        -0.00019
       4 -> 12        -0.00109
       4 -> 15         0.00268
       4 -> 19         0.00112
       4 -> 22        -0.00342
       4 -> 25         0.00289
       4 -> 30        -0.00047
       4 -> 33         0.00022
       4 -> 35        -0.00015
       4 -> 40         0.00046
       4 -> 42        -0.00010
       4 -> 49        -0.00016
       5 -> 10        -0.00557
       5 -> 11        -0.00102
       5 -> 14         0.01237
       5 -> 16         0.00448
       5 -> 17        -0.00160
       5 -> 20        -0.00026
       5 -> 21        -0.00615
       5 -> 24        -0.00163
       5 -> 26         0.00199
       5 -> 29         0.00143
       5 -> 32        -0.00031
       5 -> 34         0.00117
       5 -> 36         0.00052
       5 -> 39         0.00036
       5 -> 41        -0.00077
       5 -> 43        -0.00017
       5 -> 45         0.00022
       5 -> 47         0.00042
       5 -> 51        -0.00027
       5 -> 54         0.00017
       6 -> 12        -0.00309
       6 -> 15         0.00098
       6 -> 19        -0.00104
       6 -> 22        -0.00104
       6 -> 25         0.00070
       6 -> 33        -0.00046
       6 -> 35         0.00166
       6 -> 40         0.00097
       6 -> 49        -0.00049
       6 -> 53         0.00015
       7 -> 27         0.00022
       7 -> 38        -0.00097
       7 -> 46        -0.00164
       8 -> 10         0.69607
       8 -> 11        -0.09507
       8 -> 14         0.05839
       8 -> 16         0.05205
       8 -> 17         0.00190
       8 -> 20         0.01117
       8 -> 21        -0.00079
       8 -> 24         0.00234
       8 -> 26         0.00466
       8 -> 29         0.00468
       8 -> 32         0.00118
       8 -> 34         0.00042
       8 -> 36         0.00036
       8 -> 39         0.00033
       8 -> 41        -0.00048
       8 -> 43         0.00067
       8 -> 45         0.00151
       8 -> 47         0.00131
       8 -> 51        -0.00111
       8 -> 54         0.00065
       3 <- 12         0.00049
       3 <- 15         0.00011
       3 <- 19         0.00120
       3 <- 22        -0.00073
       3 <- 25         0.00026
       3 <- 30         0.00051
       3 <- 33         0.00033
       3 <- 35        -0.00110
       3 <- 40        -0.00087
       3 <- 49         0.00118
       3 <- 50        -0.00012
       3 <- 53        -0.00042
       4 <- 12         0.00067
       4 <- 15         0.00232
       4 <- 19         0.00111
       4 <- 22        -0.00249
       4 <- 25         0.00182
       4 <- 30        -0.00038
       4 <- 33         0.00032
       4 <- 35        -0.00033
       4 <- 40         0.00011
       4 <- 42        -0.00020
       4 <- 49        -0.00013
       5 <- 10         0.00193
       5 <- 11         0.00074
       5 <- 14         0.00425
       5 <- 16        -0.00160
       5 <- 17        -0.00028
       5 <- 21        -0.00159
       5 <- 24        -0.00270
       5 <- 26         0.00106
       5 <- 29         0.00032
       5 <- 32        -0.00073
       5 <- 34         0.00064
       5 <- 36         0.00013
       5 <- 41        -0.00066
       5 <- 43        -0.00022
       5 <- 45         0.00036
       5 <- 47         0.00018
       5 <- 51        -0.00012
       6 <- 12        -0.00028
       6 <- 15        -0.00227
       6 <- 19         0.00123
       6 <- 22         0.00137
       6 <- 25         0.00024
       6 <- 30         0.00201
       6 <- 33        -0.00058
       6 <- 35         0.00161
       6 <- 40         0.00091
       6 <- 49        -0.00053
       6 <- 50        -0.00011
       6 <- 53         0.00047
       7 <- 27         0.00027
       7 <- 38        -0.00073
       7 <- 46        -0.00131
       8 <- 10        -0.00318
       8 <- 11         0.00476
       8 <- 14        -0.00582
       8 <- 16        -0.00460
       8 <- 17        -0.00031
       8 <- 20         0.00042
       8 <- 21         0.00185
       8 <- 24         0.00017
       8 <- 26        -0.00152
       8 <- 29         0.00029
       8 <- 32        -0.00042
       8 <- 34        -0.00053
       8 <- 36        -0.00039
       8 <- 39        -0.00057
       8 <- 41        -0.00039
       8 <- 43         0.00017
       8 <- 45         0.00162
       8 <- 47         0.00063
       8 <- 51        -0.00057
       8 <- 54         0.00016

 Excited State   5:      Singlet-B2     7.2944 eV  169.97 nm  f=0.0164  <S**2>=0.000
       3 -> 12         0.00069
       3 -> 15         0.00200
       3 -> 19        -0.00217
       3 -> 22        -0.00047
       3 -> 25         0.00074
       3 -> 30        -0.00356
       3 -> 33        -0.00013
       3 -> 35         0.00122
       3 -> 40         0.00099
       3 -> 49        -0.00129
       3 -> 50         0.00014
       4 -> 12        -0.00165
       4 -> 15        -0.00071
       4 -> 19         0.00024
       4 -> 22         0.00083
       4 -> 25        -0.00106
       4 -> 30         0.00186
       4 -> 33        -0.00044
       4 -> 35         0.00065
       4 -> 40        -0.00011
       4 -> 50        -0.00013
       5 -> 10        -0.00534
       5 -> 11         0.00188
       5 -> 14        -0.00842
       5 -> 16         0.00425
       5 -> 17         0.00312
       5 -> 20         0.00322
       5 -> 21         0.00336
       5 -> 24         0.00042
       5 -> 26        -0.00157
       5 -> 29        -0.00130
       5 -> 32        -0.00135
       5 -> 34        -0.00034
       5 -> 36        -0.00075
       5 -> 39        -0.00088
       5 -> 41         0.00033
       5 -> 43        -0.00036
       5 -> 45        -0.00074
       5 -> 47        -0.00059
       5 -> 51         0.00050
       6 -> 12         0.00105
       6 -> 19         0.00117
       6 -> 22        -0.00101
       6 -> 30        -0.00127
       6 -> 33         0.00032
       6 -> 35        -0.00126
       6 -> 40        -0.00139
       6 -> 42        -0.00023
       6 -> 49         0.00178
       6 -> 50        -0.00014
       6 -> 53        -0.00019
       7 -> 27        -0.00077
       7 -> 38         0.00038
       7 -> 46         0.00297
       8 -> 10         0.10273
       8 -> 11         0.69496
       8 -> 14        -0.03075
       8 -> 16        -0.07244
       8 -> 17        -0.00553
       8 -> 20         0.01364
       8 -> 21         0.00334
       8 -> 24        -0.00445
       8 -> 26        -0.00068
       8 -> 29        -0.00532
       8 -> 32        -0.00060
       8 -> 34        -0.00080
       8 -> 36        -0.00105
       8 -> 39         0.00012

 The electronic state is 1-A1.
 Alpha  occ. eigenvalues --  -19.16740 -10.31625  -0.95878  -0.68421  -0.48840
 Alpha  occ. eigenvalues --   -0.42976  -0.34790  -0.29008
 Alpha virt. eigenvalues --   -0.12673  -0.00243   0.02544   0.04124   0.06167
 Alpha virt. eigenvalues --    0.11102   0.15226   0.15970   0.18955   0.21609
 Alpha virt. eigenvalues --    0.23869   0.30059   0.39928   0.42301   0.50979

 Mulliken charges:
               1
     1  C   -0.038947
     2  H    0.166510
     3  H    0.166510
     4  O   -0.294073
 Sum of Mulliken charges =  -0.00000

 Dipole moment (field-independent basis, Debye):
    X=             -0.0000    Y=              0.0000    Z=             -3.4823  Tot=              3.4823
 Quadrupole moment (field-independent basis, Debye-Ang):
   XX=            -12.5020   YY=            -11.8117   ZZ=            -11.6510
   XY=              0.0000   XZ=              0.0000   YZ=             -0.0000

 Normal termination of Gaussian 16 at Fri Sep 17 10:52:53 2021.
