 Gaussian 16, Revision C.01,
 Gaussian 16:  ES64L-G16RevC.01  3-Jul-2019

 ----------------------------------------
 #P wB97XD/6-311+G* NoSymm #P Field=Y-262
 ----------------------------------------

 -------
 TitleMe
 -------
 Symbolic Z-matrix:
 Charge =  1 Multiplicity = 1

                          Input orientation:
 ---------------------------------------------------------------------
 Center     Atomic      Atomic             Coordinates (Angstroms)
 Number     Number       Type             X           Y           Z
 ---------------------------------------------------------------------
      1          6           0        0.519300    1.233000   -0.031900
      2          6           0        1.944500    1.269200   -0.036700
      3          6           0        2.620400    0.092800   -0.025000
      4          6           0       -0.196000    0.030100    0.001000
      5          1           0       -0.020700    2.174200   -0.043400
      6          1           0        2.482800    2.208900   -0.036100
      7          1           0       -1.277700    0.039900    0.011700
      8          7           0        4.092100    0.095900    0.036600
      9          8           0        4.639300   -1.021700    0.144600
     10          8           0        4.664900    1.198400   -0.023300
     11          6           0        0.494300   -1.167100    0.021000
     12          1           0       -0.032500   -2.114900    0.054500
     13          6           0        1.962900   -1.216500   -0.021100
     14          1           0        2.443600   -1.963100    0.615100
     15         35           0        2.173000   -1.949100   -1.906200
 ---------------------------------------------------------------------

 SCF Done:  E(RwB97XD) =  -3010.56233703     A.U. after   23 cycles

 Alpha  occ. eigenvalues -- -483.35582 -62.90643 -56.70276 -56.69792 -56.69782
 Alpha  occ. eigenvalues --  -19.46995 -19.46480 -14.86009 -10.61936 -10.59948
 Alpha  occ. eigenvalues --  -10.59346 -10.57549 -10.54321 -10.53134  -9.06477
 Alpha  occ. eigenvalues --   -6.88988  -6.87386  -6.87349  -2.98931  -2.98509
 Alpha  occ. eigenvalues --   -2.98479  -2.97196  -2.97195  -1.50331  -1.33290
 Alpha  occ. eigenvalues --   -1.24337  -1.15045  -1.13765  -1.07660  -1.01797
 Alpha  occ. eigenvalues --   -0.96928  -0.91791  -0.86332  -0.81894  -0.81594
 Alpha  occ. eigenvalues --   -0.80744  -0.79444  -0.77083  -0.76429  -0.74081
 Alpha  occ. eigenvalues --   -0.69585  -0.67897  -0.64980  -0.62931  -0.61345
 Alpha  occ. eigenvalues --   -0.58549  -0.57908  -0.56375  -0.55913
 Alpha virt. eigenvalues --   -0.32014  -0.21967  -0.21203  -0.19522  -0.17148
 Alpha virt. eigenvalues --   -0.15689  -0.13745  -0.11339  -0.10765  -0.09228
 Alpha virt. eigenvalues --   -0.07350  -0.06265  -0.05479  -0.04621  -0.02709

 Mulliken charges:
               1
     1  C   -0.123232
     2  C    0.248035
     3  C   -0.025571
     4  C   -0.277789
     5  H    0.445622
     6  H    0.441025
     7  H    0.340053
     8  N   -0.233703
     9  O   -0.049658
    10  O    0.221095
    11  C   -0.182953
    12  H    0.255380
    13  C   -0.394941
    14  H    0.346228
    15  Br  -0.009591
 Sum of Mulliken charges =   1.00000

 Dipole moment (field-independent basis, Debye):
    X=              2.3833    Y=              6.8471    Z=              0.2691  Tot=              7.2550
 Quadrupole moment (field-independent basis, Debye-Ang):
   XX=            -68.2799   YY=            -56.2930   ZZ=            -65.1468
   XY=             13.1463   XZ=             -0.3502   YZ=             -1.6846

 Normal termination of Gaussian 16 at Thu May  2 14:22:23 2024.
