 Gaussian 16, Revision C.01,
 Gaussian 16:  ES64L-G16RevC.01  3-Jul-2019

 ----------------------------------------
 #P wB97XD/6-311+G* NoSymm #P Field=Y+204
 ----------------------------------------

 -------
 TitleMe
 -------
 Symbolic Z-matrix:
 Charge =  1 Multiplicity = 1

                          Input orientation:
 ---------------------------------------------------------------------
 Center     Atomic      Atomic             Coordinates (Angstroms)
 Number     Number       Type             X           Y           Z
 ---------------------------------------------------------------------
      1          6           0        0.519300    1.233000   -0.031900
      2          6           0        1.944500    1.269200   -0.036700
      3          6           0        2.620400    0.092800   -0.025000
      4          6           0       -0.196000    0.030100    0.001000
      5          1           0       -0.020700    2.174200   -0.043400
      6          1           0        2.482800    2.208900   -0.036100
      7          1           0       -1.277700    0.039900    0.011700
      8          7           0        4.092100    0.095900    0.036600
      9          8           0        4.639300   -1.021700    0.144600
     10          8           0        4.664900    1.198400   -0.023300
     11          6           0        0.494300   -1.167100    0.021000
     12          1           0       -0.032500   -2.114900    0.054500
     13          6           0        1.962900   -1.216500   -0.021100
     14          1           0        2.443600   -1.963100    0.615100
     15         35           0        2.173000   -1.949100   -1.906200
 ---------------------------------------------------------------------

 SCF Done:  E(RwB97XD) =  -3010.56325870     A.U. after   21 cycles

 Alpha  occ. eigenvalues -- -483.28280 -62.83249 -56.62987 -56.62364 -56.62342
 Alpha  occ. eigenvalues --  -19.46382 -19.45990 -14.85444 -10.58642 -10.56673
 Alpha  occ. eigenvalues --  -10.55611 -10.55225 -10.53716 -10.52019  -8.99014
 Alpha  occ. eigenvalues --   -6.81808  -6.79775  -6.79706  -2.91683  -2.91160
 Alpha  occ. eigenvalues --   -2.91105  -2.89479  -2.89478  -1.49793  -1.32770
 Alpha  occ. eigenvalues --   -1.21384  -1.12091  -1.11052  -1.03015  -0.99087
 Alpha  occ. eigenvalues --   -0.94279  -0.89856  -0.84646  -0.80474  -0.79837
 Alpha  occ. eigenvalues --   -0.79345  -0.77190  -0.75881  -0.74499  -0.70756
 Alpha  occ. eigenvalues --   -0.67462  -0.66623  -0.62143  -0.58378  -0.57331
 Alpha  occ. eigenvalues --   -0.56445  -0.55699  -0.52510  -0.51878
 Alpha virt. eigenvalues --   -0.28750  -0.20144  -0.16927  -0.13635  -0.12592
 Alpha virt. eigenvalues --   -0.12149  -0.07778  -0.07591  -0.06031  -0.03673
 Alpha virt. eigenvalues --   -0.03211  -0.02111  -0.00955  -0.00145   0.00203

 Mulliken charges:
               1
     1  C   -0.102494
     2  C    0.218786
     3  C   -0.129621
     4  C   -0.391950
     5  H    0.254470
     6  H    0.266479
     7  H    0.326439
     8  N   -0.247565
     9  O    0.202961
    10  O   -0.045728
    11  C   -0.167789
    12  H    0.425867
    13  C   -0.409643
    14  H    0.458927
    15  Br   0.340860
 Sum of Mulliken charges =   1.00000

 Dipole moment (field-independent basis, Debye):
    X=              3.0920    Y=             -6.9242    Z=             -1.5998  Tot=              7.7501
 Quadrupole moment (field-independent basis, Debye-Ang):
   XX=            -67.5475   YY=            -48.6513   ZZ=            -60.0440
   XY=            -15.5543   XZ=             -4.4179   YZ=              5.6543

 Normal termination of Gaussian 16 at Thu May  2 14:20:41 2024.
