 Gaussian 16, Revision C.01,
 Gaussian 16:  ES64L-G16RevC.01  3-Jul-2019

 ----------------------------------------
 #P wB97XD/6-311+G* NoSymm #P Field=X+233
 ----------------------------------------

 -------
 TitleMe
 -------
 Symbolic Z-matrix:
 Charge =  1 Multiplicity = 1

                          Input orientation:
 ---------------------------------------------------------------------
 Center     Atomic      Atomic             Coordinates (Angstroms)
 Number     Number       Type             X           Y           Z
 ---------------------------------------------------------------------
      1          6           0        0.029500    1.339700    0.068200
      2          6           0        1.434800    1.286700    0.006400
      3          6           0        2.111800    0.051100   -0.005400
      4          6           0        1.445100   -1.137200    0.031200
      5          6           0       -0.687900    0.168200    0.110000
      6          1           0       -0.471300    2.298400    0.078100
      7          1           0        2.027300    2.196500   -0.032200
      8          1           0        1.989700   -2.076400    0.023200
      9          1           0       -1.771600    0.180400    0.158200
     10          7           0        3.586400    0.051000   -0.067500
     11          8           0        4.147100   -1.059700   -0.088100
     12          8           0        4.145000    1.163900   -0.090100
     13          6           0       -0.023600   -1.145800    0.083500
     14          1           0       -0.436700   -1.872500    0.788900
     15         35           0       -0.535900   -1.869700   -1.740800
 ---------------------------------------------------------------------

 SCF Done:  E(RwB97XD) =  -3010.57541637     A.U. after   21 cycles

 Alpha  occ. eigenvalues -- -483.33116 -62.88096 -56.67822 -56.67213 -56.67198
 Alpha  occ. eigenvalues --  -19.57596 -19.57505 -14.96697 -10.62870 -10.61826
 Alpha  occ. eigenvalues --  -10.61172 -10.60318 -10.59227 -10.55369  -9.03869
 Alpha  occ. eigenvalues --   -6.86630  -6.84642  -6.84588  -2.96513  -2.95997
 Alpha  occ. eigenvalues --   -2.95953  -2.94364  -2.94363  -1.61302  -1.44406
 Alpha  occ. eigenvalues --   -1.26951  -1.18718  -1.15146  -1.08181  -1.06217
 Alpha  occ. eigenvalues --   -0.98842  -0.96419  -0.93307  -0.91100  -0.89645
 Alpha  occ. eigenvalues --   -0.85964  -0.83060  -0.81057  -0.79364  -0.75666
 Alpha  occ. eigenvalues --   -0.71964  -0.70638  -0.68897  -0.68700  -0.67663
 Alpha  occ. eigenvalues --   -0.67141  -0.62955  -0.57550  -0.57070
 Alpha virt. eigenvalues --   -0.32558  -0.31078  -0.19137  -0.18332  -0.16837
 Alpha virt. eigenvalues --   -0.14478  -0.13201  -0.11913  -0.11066  -0.08875
 Alpha virt. eigenvalues --   -0.07613  -0.06856  -0.05751  -0.05280  -0.04439

 Mulliken charges:
               1
     1  C   -0.627816
     2  C    0.578470
     3  C   -0.748886
     4  C    0.139444
     5  C    0.088382
     6  H    0.382119
     7  H    0.323285
     8  H    0.340796
     9  H    0.447377
    10  N   -0.107568
    11  O   -0.074201
    12  O   -0.077159
    13  C   -0.420641
    14  H    0.443264
    15  Br   0.313136
 Sum of Mulliken charges =   1.00000

 Dipole moment (field-independent basis, Debye):
    X=             -8.0364    Y=             -1.4396    Z=             -0.6331  Tot=              8.1888
 Quadrupole moment (field-independent basis, Debye-Ang):
   XX=            -89.1652   YY=            -51.2806   ZZ=            -60.9489
   XY=              2.3352   XZ=              2.9582   YZ=              3.3739

 Normal termination of Gaussian 16 at Wed May  1 14:49:35 2024.
