 Gaussian 16, Revision C.01,
 Gaussian 16:  ES64L-G16RevC.01  3-Jul-2019

 ---------------------------------------
 #P wB97XD/6-311+G* NoSymm #P Field=Y-87
 ---------------------------------------

 -------
 TitleMe
 -------
 Symbolic Z-matrix:
 Charge =  1 Multiplicity = 1

                          Input orientation:
 ---------------------------------------------------------------------
 Center     Atomic      Atomic             Coordinates (Angstroms)
 Number     Number       Type             X           Y           Z
 ---------------------------------------------------------------------
      1          6           0        0.029500    1.339700    0.068200
      2          6           0        1.434800    1.286700    0.006400
      3          6           0        2.111800    0.051100   -0.005400
      4          6           0        1.445100   -1.137200    0.031200
      5          6           0       -0.687900    0.168200    0.110000
      6          1           0       -0.471300    2.298400    0.078100
      7          1           0        2.027300    2.196500   -0.032200
      8          1           0        1.989700   -2.076400    0.023200
      9          1           0       -1.771600    0.180400    0.158200
     10          7           0        3.586400    0.051000   -0.067500
     11          8           0        4.147100   -1.059700   -0.088100
     12          8           0        4.145000    1.163900   -0.090100
     13          6           0       -0.023600   -1.145800    0.083500
     14          1           0       -0.436700   -1.872500    0.788900
     15         35           0       -0.535900   -1.869700   -1.740800
 ---------------------------------------------------------------------

 SCF Done:  E(RwB97XD) =  -3010.53761251     A.U. after   18 cycles

 Alpha  occ. eigenvalues -- -483.32497 -62.87539 -56.67209 -56.66668 -56.66667
 Alpha  occ. eigenvalues --  -19.46018 -19.45784 -14.85413 -10.59321 -10.57448
 Alpha  occ. eigenvalues --  -10.57361 -10.57242 -10.56609 -10.52399  -9.03358
 Alpha  occ. eigenvalues --   -6.85974  -6.84196  -6.84186  -2.95893  -2.95419
 Alpha  occ. eigenvalues --   -2.95409  -2.93987  -2.93987  -1.49684  -1.32654
 Alpha  occ. eigenvalues --   -1.22892  -1.14557  -1.11705  -1.05324  -1.01069
 Alpha  occ. eigenvalues --   -0.95693  -0.91036  -0.85298  -0.80842  -0.80672
 Alpha  occ. eigenvalues --   -0.80061  -0.78640  -0.76127  -0.75855  -0.72698
 Alpha  occ. eigenvalues --   -0.69322  -0.67406  -0.63842  -0.60738  -0.58032
 Alpha  occ. eigenvalues --   -0.57106  -0.56252  -0.56042  -0.55591
 Alpha virt. eigenvalues --   -0.29940  -0.21413  -0.16341  -0.13646  -0.11093
 Alpha virt. eigenvalues --   -0.07491  -0.07048  -0.06108  -0.04921  -0.03792
 Alpha virt. eigenvalues --   -0.03307  -0.02788  -0.02338  -0.01742  -0.01588

 Mulliken charges:
               1
     1  C   -0.559471
     2  C    0.476390
     3  C   -0.672862
     4  C    0.267175
     5  C    0.028613
     6  H    0.369067
     7  H    0.397177
     8  H    0.344077
     9  H    0.353416
    10  N   -0.108604
    11  O   -0.012803
    12  O    0.078175
    13  C   -0.459310
    14  H    0.381546
    15  Br   0.117413
 Sum of Mulliken charges =   1.00000

 Dipole moment (field-independent basis, Debye):
    X=             -0.5263    Y=              1.9125    Z=              0.3031  Tot=              2.0066
 Quadrupole moment (field-independent basis, Debye-Ang):
   XX=            -70.7546   YY=            -53.2051   ZZ=            -63.3603
   XY=              4.0951   XZ=              0.8317   YZ=              0.5177

 Normal termination of Gaussian 16 at Wed May  1 15:04:40 2024.
