 Gaussian 16, Revision A.03,
 Gaussian 16:  ES64L-G16RevA.03 25-Dec-2016

 --------------------------------------------------------------------
 #p B3LYP/6-311+G** #p TD=(singlets,nstates=30)IOp(6/8=3) IOp(9/40=4)
 --------------------------------------------------------------------

 ---------------------------------------------
 Scan Step 226, Bond Length 1.6300000000000001
 ---------------------------------------------
 Symbolic Z-matrix:
 Charge =  0 Multiplicity = 1

                         Standard orientation:
 ---------------------------------------------------------------------
 Center     Atomic      Atomic             Coordinates (Angstroms)
 Number     Number       Type             X           Y           Z
 ---------------------------------------------------------------------
      1          6           0        0.000000    0.000000   -0.741081
      2          1           0        0.000000    0.937260   -1.332431
      3          1           0       -0.000000   -0.937260   -1.332431
      4          8           0        0.000000   -0.000000    0.888919
 ---------------------------------------------------------------------

 SCF Done:  E(RB3LYP) =  -114.416656368     A.U. after   10 cycles

 Excitation energies and oscillator strengths:

 Excited State   1:      Singlet-A2     1.8749 eV  661.30 nm  f=0.0000  <S**2>=0.000
       3 -> 27         0.00111
       3 -> 38         0.00080
       3 -> 46         0.00331
       4 -> 27         0.00065
       4 -> 38        -0.00011
       4 -> 46        -0.00126
       5 ->  9         0.00646
       5 -> 13         0.00099
       5 -> 18         0.00270
       5 -> 23         0.00161
       5 -> 28         0.00232
       5 -> 31        -0.00013
       5 -> 37         0.00127
       5 -> 44         0.00031
       5 -> 52         0.00031
       6 -> 27        -0.00063
       6 -> 38        -0.00074
       6 -> 46         0.00128
       7 -> 12        -0.00095
       7 -> 16         0.00484
       7 -> 19        -0.00413
       7 -> 22        -0.00085
       7 -> 25         0.00089
       7 -> 30        -0.00159
       7 -> 33         0.00035
       7 -> 49         0.00012
       7 -> 50         0.00015
       7 -> 53         0.00044
       8 ->  9         0.70879
       8 -> 13        -0.01213
       8 -> 18         0.02154
       8 -> 23        -0.00302
       8 -> 28         0.01098
       8 -> 31         0.00119
       8 -> 37         0.00061
       8 -> 48        -0.00031
       8 -> 52         0.00193
       3 <- 27         0.00049
       3 <- 38         0.00054
       3 <- 46         0.00336
       4 <- 27         0.00114
       4 <- 38         0.00023
       4 <- 46        -0.00101
       5 <-  9        -0.00016
       5 <- 13        -0.00049
       5 <- 18        -0.00064
       5 <- 23         0.00025
       5 <- 28        -0.00044
       5 <- 31         0.00033
       5 <- 37         0.00072
       5 <- 44         0.00010
       6 <- 38        -0.00060
       6 <- 46         0.00098
       7 <- 12         0.00080
       7 <- 16        -0.01017
       7 <- 19         0.00400
       7 <- 22         0.00678
       7 <- 25         0.00055
       7 <- 30         0.00534
       7 <- 33        -0.00048
       7 <- 36         0.00070
       7 <- 40        -0.00043
       7 <- 42         0.00015
       7 <- 49        -0.00042
       7 <- 53         0.00146
       8 <-  9        -0.05459
       8 <- 13         0.00033
       8 <- 18        -0.00677
       8 <- 28        -0.00244
       8 <- 31        -0.00066
       8 <- 37        -0.00042
       8 <- 48         0.00010
       8 <- 52         0.00050
 This state for optimization and/or second-order correction.
 Total Energy, E(TD-HF/TD-DFT) =  -114.347756397
 Copying the excited state density for this state as the 1-particle RhoCI density.

 Excited State   2:      Singlet-A1     4.8402 eV  256.16 nm  f=0.0680  <S**2>=0.000
       3 -> 10        -0.01700
       3 -> 11        -0.01185
       3 -> 14         0.00974
       3 -> 15         0.00477
       3 -> 17        -0.00347
       3 -> 20        -0.00396
       3 -> 21        -0.00086
       3 -> 24         0.00217
       3 -> 26         0.00356
       3 -> 29        -0.00124
       3 -> 32         0.00277
       3 -> 34         0.00220
       3 -> 35        -0.00113
       3 -> 39         0.00077
       3 -> 43         0.00046
       3 -> 45         0.00021
       3 -> 47         0.00227
       3 -> 51         0.00111
       3 -> 54         0.00016
       4 -> 10        -0.00993
       4 -> 11         0.01286
       4 -> 14         0.00501
       4 -> 15        -0.00974
       4 -> 17         0.00303
       4 -> 20         0.00481
       4 -> 21         0.00041
       4 -> 24        -0.00486
       4 -> 26         0.00485
       4 -> 29         0.00105
       4 -> 32        -0.00135
       4 -> 34        -0.00157
       4 -> 35         0.00042
       4 -> 41         0.00013
       4 -> 43        -0.00047
       4 -> 45        -0.00082
       4 -> 47        -0.00117
       4 -> 51        -0.00032
       4 -> 54         0.00011
       5 -> 12         0.01617
       5 -> 16         0.00969
       5 -> 19         0.00146
       5 -> 22         0.00747
       5 -> 25         0.00778
       5 -> 30        -0.00013
       5 -> 33        -0.00299
       5 -> 36         0.00277
       5 -> 40        -0.00145
       5 -> 42         0.00067
       5 -> 49         0.00043
       5 -> 50        -0.00070
       5 -> 53        -0.00012
       6 -> 10         0.16371
       6 -> 11         0.09859
       6 -> 14        -0.09190
       6 -> 15        -0.05694
       6 -> 17        -0.01966
       6 -> 20        -0.00956
       6 -> 21         0.01249
       6 -> 24        -0.01322
       6 -> 26        -0.00631
       6 -> 29        -0.00767
       6 -> 32         0.00109
       6 -> 34         0.00144
       6 -> 35        -0.00056
       6 -> 39         0.00090
       6 -> 41        -0.00037
       6 -> 43         0.00083
       6 -> 45         0.00081
       6 -> 47         0.00118
       6 -> 51         0.00081
       6 -> 54        -0.00071
       7 ->  9         0.68326
       7 -> 13        -0.00051
       7 -> 18        -0.01735
       7 -> 23        -0.00035
       7 -> 28        -0.00102
       7 -> 31        -0.00307
       7 -> 37         0.00096
       7 -> 44        -0.00105
       7 -> 48         0.00036
       7 -> 52         0.00105
       8 -> 12        -0.00757
       8 -> 16         0.06488
       8 -> 19        -0.02363
       8 -> 22        -0.02460
       8 -> 25         0.00049
       8 -> 30        -0.01155
       8 -> 33         0.00205
       8 -> 36        -0.00239
       8 -> 40         0.00116
       8 -> 42        -0.00035
       8 -> 49         0.00054
       8 -> 50         0.00022
       8 -> 53        -0.00068
       3 <- 10        -0.01167
       3 <- 11        -0.00857
       3 <- 14         0.00732
       3 <- 15         0.00313
       3 <- 17        -0.00181
       3 <- 20        -0.00293
       3 <- 21        -0.00122
       3 <- 24         0.00131
       3 <- 26         0.00207
       3 <- 29        -0.00075
       3 <- 32         0.00252
       3 <- 34         0.00138
       3 <- 35        -0.00097
       3 <- 39         0.00069
       3 <- 43         0.00055
       3 <- 45         0.00040
       3 <- 47         0.00236
       3 <- 51         0.00109
       3 <- 54         0.00026
       4 <- 10        -0.00479
       4 <- 11         0.00821
       4 <- 14         0.00263
       4 <- 15        -0.00589
       4 <- 17         0.00157
       4 <- 20         0.00419
       4 <- 21         0.00029
       4 <- 24        -0.00336
       4 <- 26         0.00388
       4 <- 29         0.00026
       4 <- 32        -0.00164
       4 <- 34        -0.00137
       4 <- 35         0.00066
       4 <- 39        -0.00011
       4 <- 43        -0.00046
       4 <- 45        -0.00089
       4 <- 47        -0.00077
       4 <- 51        -0.00017
       5 <- 12         0.00754
       5 <- 16         0.00512
       5 <- 19         0.00103
       5 <- 22         0.00472
       5 <- 25         0.00538
       5 <- 33        -0.00234
       5 <- 36         0.00227
       5 <- 40        -0.00127
       5 <- 42         0.00056
       5 <- 49         0.00038
       5 <- 50        -0.00064
       5 <- 53        -0.00011
       6 <- 10         0.04974
       6 <- 11         0.03226
       6 <- 14        -0.03679
       6 <- 15        -0.02491
       6 <- 17        -0.00981
       6 <- 20        -0.00633
       6 <- 21         0.00740
       6 <- 24        -0.00812
       6 <- 26        -0.00367
       6 <- 29        -0.00529
       6 <- 32         0.00152
       6 <- 34         0.00175
       6 <- 35        -0.00081
       6 <- 39         0.00095
       6 <- 41        -0.00026
       6 <- 43         0.00071
       6 <- 45         0.00072
       6 <- 47         0.00073
       6 <- 51         0.00064
       6 <- 54        -0.00061
       7 <-  9        -0.12566
       7 <- 13         0.00693
       7 <- 18        -0.01360
       7 <- 23         0.00315
       7 <- 28        -0.00360
       7 <- 31        -0.00144
       7 <- 37         0.00037
       7 <- 44        -0.00064
       7 <- 48        -0.00021
       7 <- 52         0.00092
       8 <- 12        -0.00191
       8 <- 16         0.02400
       8 <- 19        -0.01055
       8 <- 22        -0.01368
       8 <- 30        -0.00845
       8 <- 33         0.00154
       8 <- 36        -0.00184
       8 <- 40         0.00093
       8 <- 42        -0.00028
       8 <- 49         0.00035
       8 <- 50         0.00018
       8 <- 53        -0.00062

 Excited State   3:      Singlet-B1     5.1931 eV  238.75 nm  f=0.0013  <S**2>=0.000
       3 ->  9        -0.02818
       3 -> 13         0.00160
       3 -> 18        -0.00452
       3 -> 23         0.00170
       3 -> 28        -0.00089
       3 -> 31        -0.00048
       3 -> 44         0.00023
       3 -> 48         0.00098
       3 -> 52         0.00094
       4 ->  9         0.01320
       4 -> 13        -0.00264
       4 -> 18         0.00023
       4 -> 23        -0.00239
       4 -> 28         0.00025
       4 -> 31        -0.00150
       4 -> 37        -0.00040
       4 -> 44         0.00013
       4 -> 48        -0.00105
       4 -> 52        -0.00055
       5 -> 38         0.00201
       5 -> 46         0.00085
       6 ->  9         0.70448
       6 -> 13        -0.01970
       6 -> 18         0.01647
       6 -> 23        -0.01087
       6 -> 28         0.00413
       6 -> 31         0.00317
       6 -> 37        -0.00212
       6 -> 44        -0.00274
       6 -> 48         0.00406
       6 -> 52         0.00140
       7 -> 10         0.05014
       7 -> 11         0.02636
       7 -> 14        -0.01877
       7 -> 15        -0.00659
       7 -> 17        -0.00906
       7 -> 20         0.00304
       7 -> 21         0.00034
       7 -> 24        -0.00075
       7 -> 26        -0.00163
       7 -> 29        -0.00387
       7 -> 32        -0.00053
       7 -> 34         0.00083
       7 -> 35         0.00175
       7 -> 39         0.00015
       7 -> 41        -0.00049
       7 -> 43         0.00053
       7 -> 45        -0.00022
       7 -> 47         0.00416
       7 -> 51         0.00119
       7 -> 54         0.00037
       8 -> 27         0.00043
       8 -> 46         0.00521
       3 <-  9        -0.00947
       3 <- 13        -0.00068
       3 <- 18        -0.00285
       3 <- 23        -0.00058
       3 <- 28        -0.00056
       3 <- 31        -0.00068
       3 <- 44        -0.00024
       3 <- 48         0.00115
       3 <- 52         0.00076
       4 <-  9         0.00673
       4 <- 13        -0.00031
       4 <- 18         0.00188
       4 <- 23        -0.00065
       4 <- 28         0.00159
       4 <- 31        -0.00100
       4 <- 37        -0.00022
       4 <- 48        -0.00090
       4 <- 52        -0.00031
       5 <- 27        -0.00059
       5 <- 38         0.00165
       5 <- 46         0.00075
       6 <-  9        -0.02620
       6 <- 13         0.00171
       6 <- 18        -0.00336
       6 <- 23        -0.00026
       6 <- 28        -0.00343
       6 <- 31         0.00113
       6 <- 37        -0.00183
       6 <- 44        -0.00143
       6 <- 48         0.00363
       6 <- 52         0.00045
       7 <- 10        -0.01942
       7 <- 11        -0.01249
       7 <- 14         0.01510
       7 <- 15         0.01174
       7 <- 17         0.00167
       7 <- 20         0.00481
       7 <- 21        -0.00418
       7 <- 24         0.00444
       7 <- 26         0.00173
       7 <- 29         0.00121
       7 <- 34         0.00085
       7 <- 35         0.00257
       7 <- 39         0.00046
       7 <- 41        -0.00015
       7 <- 43         0.00038
       7 <- 45        -0.00037
       7 <- 47         0.00382
       7 <- 51         0.00108
       7 <- 54         0.00105
       8 <- 27         0.00090
       8 <- 38         0.00025
       8 <- 46         0.00485

 Excited State   4:      Singlet-B2     5.7802 eV  214.50 nm  f=0.0113  <S**2>=0.000
       3 -> 12        -0.00152
       3 -> 16         0.00200
       3 -> 19        -0.00460
       3 -> 22         0.00058
       3 -> 25         0.00051
       3 -> 30        -0.00338
       3 -> 33        -0.00021
       3 -> 36         0.00215
       3 -> 40        -0.00181
       3 -> 42         0.00027
       3 -> 49        -0.00288
       3 -> 50         0.00022
       3 -> 53         0.00030
       4 -> 12         0.00044
       4 -> 16        -0.00259
       4 -> 19         0.00022
       4 -> 22         0.00296
       4 -> 25        -0.00175
       4 -> 30         0.00145
       4 -> 33        -0.00048
       4 -> 36         0.00054
       4 -> 40         0.00049
       4 -> 49         0.00048
       4 -> 50        -0.00012
       5 -> 10         0.00829
       5 -> 11         0.00536
       5 -> 14        -0.01100
       5 -> 15         0.00397
       5 -> 17         0.00039
       5 -> 20         0.00214
       5 -> 21         0.00585
       5 -> 24         0.00186
       5 -> 26        -0.00165
       5 -> 29        -0.00200
       5 -> 32        -0.00176
       5 -> 34        -0.00113
       5 -> 35        -0.00039
       5 -> 39        -0.00102
       5 -> 41         0.00070
       5 -> 45         0.00016
       5 -> 47        -0.00081
       5 -> 51         0.00049
       5 -> 54        -0.00024
       6 -> 12         0.00314
       6 -> 16        -0.00185
       6 -> 19         0.00324
       6 -> 22        -0.00024
       6 -> 25        -0.00086
       6 -> 30        -0.00050
       6 -> 33         0.00028
       6 -> 36        -0.00208
       6 -> 40         0.00170
       6 -> 42        -0.00045
       6 -> 49         0.00164
       6 -> 53        -0.00038
       7 -> 27        -0.00068
       7 -> 38         0.00079
       7 -> 46         0.00375
       8 -> 10         0.65153
       8 -> 11         0.23952
       8 -> 14        -0.12210
       8 -> 15        -0.05609
       8 -> 17        -0.01437
       8 -> 20        -0.00069
       8 -> 21         0.00725
       8 -> 24        -0.00680
       8 -> 26        -0.00561
       8 -> 29        -0.01038
       8 -> 32        -0.00325
       8 -> 34        -0.00196
       8 -> 35        -0.00019
       8 -> 39        -0.00068
       8 -> 41         0.00018
       8 -> 43        -0.00037
       8 -> 45         0.00164
       8 -> 47        -0.00448
       8 -> 51         0.00221
       8 -> 54        -0.00178
       3 <- 12        -0.00055
       3 <- 16         0.00055
       3 <- 19        -0.00217
       3 <- 22         0.00092
       3 <- 25         0.00048
       3 <- 30        -0.00135
       3 <- 33        -0.00017
       3 <- 36         0.00165
       3 <- 40        -0.00160
       3 <- 42         0.00023
       3 <- 49        -0.00296
       3 <- 50         0.00020
       3 <- 53         0.00086
       4 <- 12        -0.00014
       4 <- 16        -0.00229
       4 <- 19        -0.00011
       4 <- 22         0.00272
       4 <- 25        -0.00109
       4 <- 30         0.00132
       4 <- 33        -0.00054
       4 <- 36         0.00076
       4 <- 40         0.00017
       4 <- 42         0.00010
       4 <- 49         0.00036
       5 <- 11        -0.00155
       5 <- 14        -0.00139
       5 <- 15         0.00381
       5 <- 17         0.00022
       5 <- 20         0.00060
       5 <- 21         0.00211
       5 <- 24         0.00247
       5 <- 26        -0.00048
       5 <- 29        -0.00049
       5 <- 34        -0.00026
       5 <- 39        -0.00036
       5 <- 41         0.00072
       5 <- 43         0.00011
       5 <- 45         0.00045
       5 <- 47        -0.00069
       5 <- 51         0.00026
       6 <- 16         0.00577
       6 <- 19        -0.00261
       6 <- 22        -0.00419
       6 <- 25        -0.00058
       6 <- 30        -0.00492
       6 <- 33         0.00057
       6 <- 36        -0.00207
       6 <- 40         0.00171
       6 <- 42        -0.00051
       6 <- 49         0.00181
       6 <- 53        -0.00110
       7 <- 27        -0.00066
       7 <- 38         0.00062
       7 <- 46         0.00311
       8 <- 10        -0.01769
       8 <- 11        -0.01188
       8 <- 14         0.01163
       8 <- 15         0.00416
       8 <- 17         0.00047
       8 <- 20        -0.00254
       8 <- 21        -0.00226
       8 <- 24         0.00143
       8 <- 26         0.00195
       8 <- 29        -0.00073
       8 <- 32         0.00256
       8 <- 34         0.00136
       8 <- 35        -0.00032
       8 <- 39         0.00151
       8 <- 41         0.00053
       8 <- 43         0.00036
       8 <- 45         0.00231
       8 <- 47        -0.00337
       8 <- 51         0.00138
       8 <- 54        -0.00045

 Excited State   5:      Singlet-B1     6.9091 eV  179.45 nm  f=0.0063  <S**2>=0.000
       3 ->  9        -0.01533
       3 -> 13         0.00097
       3 -> 18        -0.00311
       3 -> 23         0.00112
       3 -> 28        -0.00345
       3 -> 31        -0.00150
       3 -> 44         0.00052
       3 -> 48        -0.00201
       4 ->  9        -0.03609
       4 -> 13         0.00637
       4 -> 18         0.00160
       4 -> 23         0.00464
       4 -> 28         0.00216
       4 -> 31        -0.00036
       4 -> 37         0.00039
       4 -> 44        -0.00043
       4 -> 48         0.00047
       5 -> 27        -0.00744
       5 -> 38        -0.00301
       5 -> 46         0.00062
       6 ->  9        -0.05691
       6 -> 13        -0.00417
       6 -> 18         0.00234
       6 -> 23        -0.00151
       6 -> 28         0.00321
       6 -> 31        -0.00356
       6 -> 37         0.00175
       6 -> 44        -0.00016
       6 -> 48         0.00108
       6 -> 52        -0.00044
       7 -> 10         0.66384
       7 -> 11         0.20104
       7 -> 14        -0.10696
       7 -> 15        -0.05644
       7 -> 17        -0.00883
       7 -> 20        -0.00567
       7 -> 21         0.00300
       7 -> 24        -0.00885
       7 -> 26        -0.00785
       7 -> 29        -0.00623
       7 -> 32        -0.00114
       7 -> 34        -0.00380
       7 -> 35        -0.00218
       7 -> 39        -0.00069
       7 -> 43         0.00052
       7 -> 45         0.00068
       7 -> 47         0.00216
       7 -> 51         0.00110
       7 -> 54        -0.00117
       8 -> 27         0.00134
       8 -> 38         0.00037
       8 -> 46         0.00248
       3 <-  9        -0.00316
       3 <- 13         0.00067
       3 <- 18        -0.00126
       3 <- 23         0.00066
       3 <- 28        -0.00208
       3 <- 31        -0.00028
       3 <- 37        -0.00022
       3 <- 44         0.00023
       3 <- 48        -0.00221
       3 <- 52         0.00043
       4 <-  9        -0.00995
       4 <- 13         0.00218
       4 <- 18         0.00057
       4 <- 23         0.00209
       4 <- 28         0.00187
       4 <- 31        -0.00047
       4 <- 37         0.00046
       4 <- 44        -0.00068

 The electronic state is 1-A1.
 Alpha  occ. eigenvalues --  -19.17302 -10.32843  -0.92280  -0.69922  -0.48883
 Alpha  occ. eigenvalues --   -0.41245  -0.32711  -0.28941
 Alpha virt. eigenvalues --   -0.14915  -0.01842   0.00933   0.04084   0.06121
 Alpha virt. eigenvalues --    0.08405   0.12721   0.14292   0.18920   0.21353
 Alpha virt. eigenvalues --    0.23977   0.30200   0.38994   0.40894   0.50915

 Mulliken charges:
               1
     1  C   -0.066208
     2  H    0.181493
     3  H    0.181493
     4  O   -0.296778
 Sum of Mulliken charges =  -0.00000

 Dipole moment (field-independent basis, Debye):
    X=             -0.0000    Y=             -0.0000    Z=             -3.8165  Tot=              3.8165
 Quadrupole moment (field-independent basis, Debye-Ang):
   XX=            -12.7823   YY=            -11.9077   ZZ=            -11.2248
   XY=              0.0000   XZ=              0.0000   YZ=              0.0000

 Normal termination of Gaussian 16 at Fri Sep 17 10:53:03 2021.
