 Gaussian 16, Revision C.01,
 Gaussian 16:  ES64L-G16RevC.01  3-Jul-2019

 ----------------------------------------
 #P wB97XD/6-311+G* NoSymm #P Field=Y-233
 ----------------------------------------

 -------
 TitleMe
 -------
 Symbolic Z-matrix:
 Charge =  1 Multiplicity = 1

                          Input orientation:
 ---------------------------------------------------------------------
 Center     Atomic      Atomic             Coordinates (Angstroms)
 Number     Number       Type             X           Y           Z
 ---------------------------------------------------------------------
      1          6           0        0.029500    1.339700    0.068200
      2          6           0        1.434800    1.286700    0.006400
      3          6           0        2.111800    0.051100   -0.005400
      4          6           0        1.445100   -1.137200    0.031200
      5          6           0       -0.687900    0.168200    0.110000
      6          1           0       -0.471300    2.298400    0.078100
      7          1           0        2.027300    2.196500   -0.032200
      8          1           0        1.989700   -2.076400    0.023200
      9          1           0       -1.771600    0.180400    0.158200
     10          7           0        3.586400    0.051000   -0.067500
     11          8           0        4.147100   -1.059700   -0.088100
     12          8           0        4.145000    1.163900   -0.090100
     13          6           0       -0.023600   -1.145800    0.083500
     14          1           0       -0.436700   -1.872500    0.788900
     15         35           0       -0.535900   -1.869700   -1.740800
 ---------------------------------------------------------------------

 SCF Done:  E(RwB97XD) =  -3010.56069532     A.U. after   21 cycles

 Alpha  occ. eigenvalues -- -483.35163 -62.90225 -56.69860 -56.69371 -56.69365
 Alpha  occ. eigenvalues --  -19.46862 -19.46336 -14.85950 -10.61534 -10.58490
 Alpha  occ. eigenvalues --  -10.58406 -10.57274 -10.56777 -10.51967  -9.06058
 Alpha  occ. eigenvalues --   -6.88575  -6.86954  -6.86938  -2.98517  -2.98083
 Alpha  occ. eigenvalues --   -2.98070  -2.96772  -2.96772  -1.50288  -1.33255
 Alpha  occ. eigenvalues --   -1.23938  -1.15989  -1.12113  -1.07332  -1.01663
 Alpha  occ. eigenvalues --   -0.96604  -0.91716  -0.86019  -0.81707  -0.81255
 Alpha  occ. eigenvalues --   -0.80713  -0.79751  -0.76655  -0.76163  -0.74113
 Alpha  occ. eigenvalues --   -0.69515  -0.67319  -0.64626  -0.62687  -0.61004
 Alpha  occ. eigenvalues --   -0.57910  -0.57516  -0.56735  -0.56013
 Alpha virt. eigenvalues --   -0.31048  -0.22056  -0.19872  -0.18671  -0.15090
 Alpha virt. eigenvalues --   -0.14272  -0.13476  -0.10023  -0.08879  -0.08485
 Alpha virt. eigenvalues --   -0.06752  -0.05477  -0.04415  -0.03412  -0.02158

 Mulliken charges:
               1
     1  C   -0.521611
     2  C    0.420294
     3  C   -0.616428
     4  C    0.279949
     5  C    0.058031
     6  H    0.423296
     7  H    0.444910
     8  H    0.291030
     9  H    0.358423
    10  N   -0.110006
    11  O   -0.083938
    12  O    0.163808
    13  C   -0.473443
    14  H    0.343636
    15  Br   0.022047
 Sum of Mulliken charges =   1.00000

 Dipole moment (field-independent basis, Debye):
    X=              0.0300    Y=              6.1372    Z=              0.8281  Tot=              6.1929
 Quadrupole moment (field-independent basis, Debye-Ang):
   XX=            -69.8213   YY=            -55.8174   ZZ=            -64.6889
   XY=              8.8001   XZ=              0.3701   YZ=             -1.4378

 Normal termination of Gaussian 16 at Wed May  1 14:49:20 2024.
