 Gaussian 16, Revision A.03,
 Gaussian 16:  ES64L-G16RevA.03 25-Dec-2016

 --------------------------------------------------------------------
 #p B3LYP/6-311+G** #p TD=(singlets,nstates=30)IOp(6/8=3) IOp(9/40=4)
 --------------------------------------------------------------------

 -------------------------------
 Scan Step 268, Bond Length 1.84
 -------------------------------
 Symbolic Z-matrix:
 Charge =  0 Multiplicity = 1

                         Standard orientation:
 ---------------------------------------------------------------------
 Center     Atomic      Atomic             Coordinates (Angstroms)
 Number     Number       Type             X           Y           Z
 ---------------------------------------------------------------------
      1          6           0        0.000000    0.000000   -0.846081
      2          1           0        0.000000    0.937260   -1.437431
      3          1           0       -0.000000   -0.937260   -1.437431
      4          8           0        0.000000   -0.000000    0.993919
 ---------------------------------------------------------------------

 SCF Done:  E(RB3LYP) =  -114.343556429     A.U. after   11 cycles

 Excitation energies and oscillator strengths:

 Excited State   1:      Singlet-A2     1.2725 eV  974.35 nm  f=0.0000  <S**2>=0.000
       3 -> 27         0.00071
       3 -> 38         0.00044
       3 -> 46         0.00334
       4 -> 27         0.00038
       4 -> 46        -0.00095
       5 ->  9         0.00160
       5 -> 13         0.00110
       5 -> 18         0.00168
       5 -> 23         0.00136
       5 -> 28         0.00129
       5 -> 37         0.00073
       5 -> 44         0.00020
       5 -> 52         0.00017
       6 -> 27        -0.00057
       6 -> 38        -0.00056
       6 -> 46         0.00093
       7 -> 12        -0.00129
       7 -> 16         0.00531
       7 -> 19        -0.00470
       7 -> 22        -0.00112
       7 -> 25        -0.00056
       7 -> 29        -0.00192
       7 -> 33         0.00027
       7 -> 49         0.00013
       7 -> 53         0.00038
       8 ->  9         0.71091
       8 -> 13        -0.00671
       8 -> 18         0.02078
       8 -> 23        -0.00093
       8 -> 28         0.01026
       8 -> 31         0.00161
       8 -> 37         0.00049
       8 -> 48        -0.00029
       8 -> 52         0.00185
       3 <- 27         0.00019
       3 <- 38         0.00022
       3 <- 46         0.00336
       4 <- 27         0.00071
       4 <- 38         0.00019
       4 <- 46        -0.00074
       5 <-  9         0.00037
       5 <- 13        -0.00033
       5 <- 18        -0.00038
       5 <- 23         0.00016
       5 <- 28        -0.00028
       5 <- 31         0.00022
       5 <- 37         0.00042
       6 <- 38        -0.00042
       6 <- 46         0.00068
       7 <- 12         0.00183
       7 <- 16        -0.01054
       7 <- 19         0.00562
       7 <- 22         0.00569
       7 <- 25        -0.00063
       7 <- 29         0.00562
       7 <- 33        -0.00035
       7 <- 35         0.00015
       7 <- 40        -0.00011
       7 <- 42        -0.00010
       7 <- 49        -0.00048
       7 <- 53         0.00145
       8 <-  9        -0.07591
       8 <- 13        -0.00045
       8 <- 18        -0.00775
       8 <- 23        -0.00034
       8 <- 28        -0.00276
       8 <- 31        -0.00082
       8 <- 37        -0.00020
       8 <- 48         0.00013
       8 <- 52         0.00044
 This state for optimization and/or second-order correction.
 Total Energy, E(TD-HF/TD-DFT) =  -114.296793650
 Copying the excited state density for this state as the 1-particle RhoCI density.

 Excited State   2:      Singlet-A1     3.3484 eV  370.27 nm  f=0.0304  <S**2>=0.000
       3 -> 10        -0.01448
       3 -> 11        -0.00306
       3 -> 14         0.00135
       3 -> 15         0.00043
       3 -> 17        -0.00306
       3 -> 20        -0.00352
       3 -> 21         0.00046
       3 -> 24         0.00051
       3 -> 26         0.00131
       3 -> 30        -0.00054
       3 -> 32         0.00276
       3 -> 34        -0.00107
       3 -> 36        -0.00098
       3 -> 39        -0.00041
       3 -> 43         0.00052
       3 -> 45        -0.00100
       3 -> 47         0.00231
       3 -> 50         0.00156
       4 -> 10        -0.00155
       4 -> 11         0.01038
       4 -> 14         0.00186
       4 -> 15        -0.00772
       4 -> 17         0.00222
       4 -> 20         0.00211
       4 -> 21         0.00027
       4 -> 24        -0.00379
       4 -> 26         0.00328
       4 -> 30         0.00032
       4 -> 32        -0.00122
       4 -> 34         0.00078
       4 -> 36         0.00012
       4 -> 39        -0.00021
       4 -> 43        -0.00046
       4 -> 45         0.00077
       4 -> 47        -0.00077
       4 -> 50        -0.00027
       4 -> 54         0.00015
       5 -> 12         0.00960
       5 -> 16         0.00266
       5 -> 19         0.00115
       5 -> 22         0.00679
       5 -> 25        -0.00458
       5 -> 29         0.00034
       5 -> 33        -0.00241
       5 -> 35         0.00273
       5 -> 40        -0.00099
       5 -> 42        -0.00098
       5 -> 49         0.00014
       5 -> 51        -0.00086
       6 -> 10         0.25098
       6 -> 11         0.03725
       6 -> 14        -0.04195
       6 -> 15        -0.02304
       6 -> 17        -0.01571
       6 -> 20        -0.00155
       6 -> 21         0.00544
       6 -> 24        -0.00790
       6 -> 26        -0.00317
       6 -> 30        -0.00403
       6 -> 32         0.00407
       6 -> 34        -0.00138
       6 -> 36         0.00050
       6 -> 39        -0.00136
       6 -> 41        -0.00011
       6 -> 43         0.00082
       6 -> 45        -0.00088
       6 -> 47         0.00079
       6 -> 50         0.00055
       6 -> 54        -0.00096
       7 ->  9         0.67585
       7 -> 13        -0.00693
       7 -> 18        -0.01033
       7 -> 23        -0.00263
       7 -> 28         0.00125
       7 -> 31        -0.00328
       7 -> 37         0.00132
       7 -> 44        -0.00096
       7 -> 52         0.00105
       8 -> 12        -0.00749
       8 -> 16         0.03642
       8 -> 19        -0.01843
       8 -> 22        -0.01253
       8 -> 29        -0.00796
       8 -> 33         0.00096
       8 -> 35        -0.00071
       8 -> 40         0.00027
       8 -> 42         0.00025
       8 -> 49         0.00010
       8 -> 51         0.00014
       8 -> 53        -0.00051
       3 <- 10        -0.01143
       3 <- 11        -0.00277
       3 <- 14         0.00114
       3 <- 17        -0.00176
       3 <- 20        -0.00304
       3 <- 26         0.00039
       3 <- 30        -0.00012
       3 <- 32         0.00240
       3 <- 34        -0.00056
       3 <- 36        -0.00099
       3 <- 39        -0.00037
       3 <- 43         0.00057
       3 <- 45        -0.00113
       3 <- 47         0.00232
       3 <- 50         0.00156
       4 <- 10         0.00012
       4 <- 11         0.00763
       4 <- 14         0.00145
       4 <- 15        -0.00532
       4 <- 17         0.00134
       4 <- 20         0.00258
       4 <- 24        -0.00290
       4 <- 26         0.00291
       4 <- 30        -0.00026
       4 <- 32        -0.00128
       4 <- 34         0.00066
       4 <- 36         0.00040
       4 <- 39        -0.00023
       4 <- 43        -0.00042
       4 <- 45         0.00071
       4 <- 47        -0.00047
       4 <- 50        -0.00014
       4 <- 54         0.00012
       5 <- 12         0.00580
       5 <- 16         0.00178
       5 <- 19         0.00093
       5 <- 22         0.00491
       5 <- 25        -0.00358
       5 <- 29         0.00035
       5 <- 33        -0.00202
       5 <- 35         0.00237
       5 <- 40        -0.00090
       5 <- 42        -0.00087
       5 <- 49         0.00014
       5 <- 51        -0.00081
       6 <- 10         0.08602
       6 <- 11         0.01561
       6 <- 14        -0.02048
       6 <- 15        -0.01238
       6 <- 17        -0.00953
       6 <- 20        -0.00227
       6 <- 21         0.00382
       6 <- 24        -0.00525
       6 <- 26        -0.00161
       6 <- 30        -0.00262
       6 <- 32         0.00395
       6 <- 34        -0.00155
       6 <- 39        -0.00123
       6 <- 41        -0.00011
       6 <- 43         0.00068
       6 <- 45        -0.00065
       6 <- 47         0.00045
       6 <- 50         0.00041
       6 <- 54        -0.00088
       7 <-  9        -0.13090
       7 <- 13         0.00333
       7 <- 18        -0.01129
       7 <- 23         0.00076
       7 <- 28        -0.00168
       7 <- 31        -0.00159
       7 <- 37         0.00063
       7 <- 44        -0.00079
       7 <- 48        -0.00042
       7 <- 52         0.00097
       8 <- 12        -0.00311
       8 <- 16         0.01840
       8 <- 19        -0.01072
       8 <- 22        -0.00833
       8 <- 25         0.00013
       8 <- 29        -0.00640
       8 <- 33         0.00077
       8 <- 35        -0.00056
       8 <- 40         0.00021
       8 <- 42         0.00020
       8 <- 51         0.00012
       8 <- 53        -0.00047

 Excited State   3:      Singlet-B2     3.6579 eV  338.95 nm  f=0.0025  <S**2>=0.000
       3 -> 12        -0.00122
       3 -> 16         0.00129
       3 -> 19        -0.00393
       3 -> 22         0.00106
       3 -> 25        -0.00087
       3 -> 29        -0.00260
       3 -> 33         0.00023
       3 -> 35         0.00142
       3 -> 40        -0.00130
       3 -> 42        -0.00050
       3 -> 49        -0.00385
       3 -> 51         0.00017
       3 -> 53         0.00027
       4 -> 12         0.00039
       4 -> 16        -0.00150
       4 -> 19         0.00037
       4 -> 22         0.00179
       4 -> 25         0.00065
       4 -> 29         0.00091
       4 -> 33        -0.00034
       4 -> 35         0.00043
       4 -> 40         0.00029
       4 -> 42         0.00012
       4 -> 49         0.00073
       4 -> 51        -0.00010
       5 -> 10         0.01014
       5 -> 11         0.00134
       5 -> 14        -0.00352
       5 -> 15         0.00322
       5 -> 17        -0.00050
       5 -> 20         0.00198
       5 -> 21         0.00314
       5 -> 24         0.00144
       5 -> 26        -0.00055
       5 -> 30        -0.00210
       5 -> 32        -0.00131
       5 -> 34         0.00028
       5 -> 39         0.00067
       5 -> 41         0.00042
       5 -> 47        -0.00041
       5 -> 50         0.00026
       5 -> 54        -0.00019
       6 -> 12         0.00248
       6 -> 16        -0.00274
       6 -> 19         0.00413
       6 -> 22        -0.00062
       6 -> 25         0.00113
       6 -> 29         0.00013
       6 -> 33        -0.00012
       6 -> 35        -0.00127
       6 -> 40         0.00085
       6 -> 42         0.00065
       6 -> 49         0.00124
       6 -> 53        -0.00045
       7 -> 27        -0.00054
       7 -> 38         0.00035
       7 -> 46         0.00308
       8 -> 10         0.70281
       8 -> 11         0.06092
       8 -> 14        -0.05658
       8 -> 15        -0.02283
       8 -> 17        -0.01648
       8 -> 20         0.00478
       8 -> 21         0.00607
       8 -> 24        -0.00586
       8 -> 26        -0.00449
       8 -> 30        -0.01302
       8 -> 32        -0.00145
       8 -> 34         0.00121
       8 -> 36         0.00140
       8 -> 39         0.00053
       8 -> 41        -0.00016
       8 -> 45        -0.00083
       8 -> 47        -0.00380
       8 -> 50         0.00147
       8 -> 54        -0.00243
       3 <- 12        -0.00043
       3 <- 16         0.00045
       3 <- 19        -0.00194
       3 <- 22         0.00093
       3 <- 25        -0.00078
       3 <- 29        -0.00106
       3 <- 33         0.00022
       3 <- 35         0.00095
       3 <- 40        -0.00113
       3 <- 42        -0.00035
       3 <- 49        -0.00391
       3 <- 51         0.00016
       3 <- 53         0.00074
       4 <- 12         0.00010
       4 <- 16        -0.00171
       4 <- 19         0.00018
       4 <- 22         0.00211
       4 <- 25         0.00037
       4 <- 29         0.00113
       4 <- 33        -0.00035
       4 <- 35         0.00063
       4 <- 40         0.00012
       4 <- 49         0.00051
       5 <- 10        -0.00092
       5 <- 11        -0.00067
       5 <- 14        -0.00048
       5 <- 15         0.00253
       5 <- 17         0.00020
       5 <- 20         0.00077
       5 <- 21         0.00166
       5 <- 24         0.00164
       5 <- 26        -0.00013
       5 <- 30        -0.00045
       5 <- 32        -0.00030
       5 <- 39         0.00030
       5 <- 41         0.00045
       5 <- 45        -0.00023
       5 <- 47        -0.00041
       5 <- 50         0.00014
       6 <- 12        -0.00075
       6 <- 16         0.00771
       6 <- 19        -0.00412
       6 <- 22        -0.00516
       6 <- 25         0.00121
       6 <- 29        -0.00606
       6 <- 33         0.00022
       6 <- 35        -0.00110
       6 <- 40         0.00085
       6 <- 42         0.00068
       6 <- 49         0.00172
       6 <- 53        -0.00141
       7 <- 27        -0.00054
       7 <- 38         0.00028
       7 <- 46         0.00266
       8 <- 10        -0.04282
       8 <- 11        -0.00748
       8 <- 14         0.00776
       8 <- 15         0.00225
       8 <- 17         0.00193
       8 <- 20        -0.00323
       8 <- 21        -0.00136
       8 <- 24         0.00154
       8 <- 26         0.00123
       8 <- 30         0.00159
       8 <- 32         0.00286
       8 <- 34        -0.00085
       8 <- 36        -0.00078
       8 <- 39        -0.00110
       8 <- 41         0.00022
       8 <- 43         0.00042
       8 <- 45        -0.00158
       8 <- 47        -0.00314
       8 <- 50         0.00119
       8 <- 54        -0.00065

 Excited State   4:      Singlet-B1     3.8088 eV  325.52 nm  f=0.0002  <S**2>=0.000
       3 ->  9        -0.02286
       3 -> 13         0.00084
       3 -> 18        -0.00374
       3 -> 23         0.00123
       3 -> 28        -0.00102
       3 -> 31        -0.00081
       3 -> 37         0.00016
       3 -> 44         0.00034
       3 -> 48         0.00016
       3 -> 52         0.00070
       4 ->  9         0.00543
       4 -> 13        -0.00134
       4 -> 18         0.00017
       4 -> 23        -0.00123
       4 -> 28         0.00057
       4 -> 31        -0.00115
       4 -> 37        -0.00023
       4 -> 48        -0.00042
       4 -> 52        -0.00028
       5 -> 27        -0.00051
       5 -> 38         0.00131
       5 -> 46         0.00044
       6 ->  9         0.64309
       6 -> 13        -0.01627
       6 -> 18         0.01378
       6 -> 23        -0.00980
       6 -> 28         0.00365
       6 -> 31         0.00187
       6 -> 37        -0.00127
       6 -> 44        -0.00165
       6 -> 48         0.00322
       6 -> 52         0.00087
       7 -> 10         0.29757
       7 -> 11         0.02886
       7 -> 14        -0.02796
       7 -> 15        -0.01031
       7 -> 17        -0.01060
       7 -> 20         0.00389
       7 -> 21         0.00198
       7 -> 24        -0.00357
       7 -> 26        -0.00335
       7 -> 30        -0.00551
       7 -> 32         0.00038
       7 -> 34        -0.00029
       7 -> 36         0.00133
       7 -> 39        -0.00015
       7 -> 41        -0.00017
       7 -> 43         0.00048
       7 -> 45        -0.00071
       7 -> 47         0.00352
       7 -> 50         0.00120
       7 -> 54        -0.00036
       8 -> 27         0.00012
       8 -> 46         0.00430
       3 <-  9        -0.00764
       3 <- 13        -0.00078
       3 <- 18        -0.00249
       3 <- 23        -0.00046
       3 <- 28        -0.00058
       3 <- 31        -0.00077
       3 <- 37         0.00015
       3 <- 48         0.00024
       3 <- 52         0.00069
       4 <-  9         0.00388
       4 <- 13        -0.00015
       4 <- 18         0.00138
       4 <- 23        -0.00044
       4 <- 28         0.00144
       4 <- 31        -0.00083
       4 <- 37        -0.00013
       4 <- 44        -0.00019
       4 <- 48        -0.00040
       4 <- 52        -0.00014
       5 <- 27        -0.00084
       5 <- 38         0.00116
       5 <- 46         0.00039
       6 <-  9        -0.04457
       6 <- 13         0.00221
       6 <- 18        -0.00526
       6 <- 23         0.00030
       6 <- 28        -0.00410
       6 <- 31        -0.00039
       6 <- 37        -0.00097
       6 <- 44        -0.00033
       6 <- 48         0.00294
       6 <- 52        -0.00013
       7 <- 10        -0.05178
       7 <- 11        -0.00915
       7 <- 14         0.01301
       7 <- 15         0.00792
       7 <- 17         0.00322
       7 <- 20         0.00225
       7 <- 21        -0.00329
       7 <- 24         0.00389
       7 <- 26         0.00179
       7 <- 30         0.00217
       7 <- 32         0.00026
       7 <- 34        -0.00078
       7 <- 36         0.00105
       7 <- 39        -0.00058
       7 <- 41         0.00020
       7 <- 43         0.00027
       7 <- 45        -0.00044
       7 <- 47         0.00326
       7 <- 50         0.00134
       7 <- 54         0.00072
       8 <- 27         0.00054
       8 <- 38         0.00010
       8 <- 46         0.00401

 Excited State   5:      Singlet-B1     4.4377 eV  279.39 nm  f=0.0067  <S**2>=0.000
       3 ->  9        -0.00280
       3 -> 18        -0.00170
       3 -> 23         0.00031
       3 -> 28        -0.00241
       3 -> 31        -0.00134
       3 -> 48        -0.00318
       3 -> 52        -0.00024
       4 ->  9        -0.03023
       4 -> 13         0.00599
       4 -> 18         0.00084
       4 -> 23         0.00468
       4 -> 28         0.00096
       4 -> 31         0.00042
       4 -> 37         0.00034
       4 -> 44        -0.00042
       4 -> 48         0.00089
       4 -> 52         0.00018
       5 -> 27        -0.00627
       5 -> 38        -0.00353
       5 -> 46         0.00015
       6 ->  9        -0.29673
       6 -> 13         0.00360
       6 -> 18        -0.00073
       6 -> 23         0.00266
       6 -> 28         0.00255
       6 -> 31        -0.00402
       6 -> 37         0.00249
       6 -> 44         0.00092
       6 -> 48        -0.00063
       6 -> 52        -0.00088
       7 -> 10         0.63769
       7 -> 11         0.04738
       7 -> 14        -0.04674
       7 -> 15        -0.02780
       7 -> 17        -0.00819
       7 -> 20        -0.00227
       7 -> 21         0.00294
       7 -> 24        -0.00877
       7 -> 26        -0.00530
       7 -> 30        -0.00716
       7 -> 32        -0.00114
       7 -> 34         0.00360
       7 -> 36        -0.00138
       7 -> 39         0.00062
       7 -> 43         0.00047
       7 -> 45        -0.00088
       7 -> 47         0.00051
       7 -> 50         0.00021
       7 -> 54        -0.00168
       8 -> 27         0.00058
       8 -> 38         0.00019
       8 -> 46         0.00063
       3 <-  9        -0.00035
       3 <- 13         0.00076
       3 <- 18        -0.00053
       3 <- 23         0.00063
       3 <- 28        -0.00168
       3 <- 37        -0.00025
       3 <- 48        -0.00329
       3 <- 52         0.00019
       4 <-  9        -0.01402
       4 <- 13         0.00286
       4 <- 23         0.00284
       4 <- 28         0.00089
       4 <- 31         0.00024
       4 <- 37         0.00036
       4 <- 44        -0.00060
       4 <- 48         0.00049
       4 <- 52         0.00014
       5 <- 27        -0.00453
       5 <- 38        -0.00291
       5 <- 46         0.00017
       6 <-  9        -0.02586
       6 <- 13        -0.00038
       6 <- 18        -0.00311
       6 <- 23         0.00062
       6 <- 28         0.00011
       6 <- 31        -0.00474
       6 <- 37         0.00236
       6 <- 44         0.00088
       6 <- 52        -0.00129

 The electronic state is 1-A1.
 Alpha  occ. eigenvalues --  -19.17748 -10.33983  -0.89118  -0.71489  -0.49261
 Alpha  occ. eigenvalues --   -0.38783  -0.30643  -0.28690
 Alpha virt. eigenvalues --   -0.17264  -0.07574  -0.00076   0.04044   0.06091
 Alpha virt. eigenvalues --    0.06387   0.11740   0.13279   0.18716   0.20995
 Alpha virt. eigenvalues --    0.23943   0.30411   0.38515   0.39535   0.50603

 Mulliken charges:
               1
     1  C   -0.098950
     2  H    0.192591
     3  H    0.192591
     4  O   -0.286231
 Sum of Mulliken charges =   0.00000

 Dipole moment (field-independent basis, Debye):
    X=             -0.0000    Y=              0.0000    Z=             -4.1967  Tot=              4.1967
 Quadrupole moment (field-independent basis, Debye-Ang):
   XX=            -13.0488   YY=            -12.0471   ZZ=            -10.6060
   XY=              0.0000   XZ=              0.0000   YZ=             -0.0000

 Normal termination of Gaussian 16 at Fri Sep 17 10:53:09 2021.
