 Gaussian 16, Revision A.03,
 Gaussian 16:  ES64L-G16RevA.03 25-Dec-2016

 --------------------------------------------------------------------
 #p B3LYP/6-311+G** #p TD=(singlets,nstates=30)IOp(6/8=3) IOp(9/40=4)
 --------------------------------------------------------------------

 -------------------------------
 Scan Step 73, Bond Length 0.865
 -------------------------------
 Symbolic Z-matrix:
 Charge =  0 Multiplicity = 1

                         Standard orientation:
 ---------------------------------------------------------------------
 Center     Atomic      Atomic             Coordinates (Angstroms)
 Number     Number       Type             X           Y           Z
 ---------------------------------------------------------------------
      1          6           0        0.000000    0.000000   -0.358581
      2          1           0        0.000000    0.937260   -0.949931
      3          1           0       -0.000000   -0.937260   -0.949931
      4          8           0        0.000000   -0.000000    0.506419
 ---------------------------------------------------------------------

 SCF Done:  E(RB3LYP) =  -114.132061924     A.U. after    9 cycles

 Excitation energies and oscillator strengths:

 Excited State   1:      Singlet-A2     5.5573 eV  223.10 nm  f=0.0000  <S**2>=0.000
       3 -> 27         0.00273
       3 -> 35         0.00210
       3 -> 46         0.00108
       4 -> 10         0.00635
       4 -> 13         0.00820
       4 -> 17         0.00592
       4 -> 22        -0.00349
       4 -> 28         0.00292
       4 -> 32         0.00157
       4 -> 37         0.00327
       4 -> 43         0.00047
       4 -> 52         0.00065
       5 -> 27         0.00357
       5 -> 35        -0.00068
       5 -> 46        -0.00061
       6 -> 11        -0.00053
       6 -> 16        -0.00078
       6 -> 18        -0.00043
       6 -> 23         0.00168
       6 -> 24         0.00035
       6 -> 29        -0.00030
       6 -> 33         0.00024
       6 -> 36         0.00051
       6 -> 42         0.00050
       6 -> 47         0.00063
       6 -> 50        -0.00018
       6 -> 53         0.00024
       7 -> 27         0.00100
       7 -> 35        -0.00021
       7 -> 46         0.00105
       8 -> 10         0.69677
       8 -> 13         0.11627
       8 -> 17         0.03062
       8 -> 22        -0.00599
       8 -> 28         0.00474
       8 -> 32         0.00337
       8 -> 37        -0.00239
       8 -> 43        -0.00016
       8 -> 52         0.00084
       3 <- 27         0.00205
       3 <- 35         0.00180
       3 <- 46         0.00111
       4 <- 10         0.00024
       4 <- 13         0.00115
       4 <- 17         0.00018
       4 <- 22         0.00017
       4 <- 32        -0.00105
       4 <- 37         0.00151
       4 <- 43         0.00043
       4 <- 52         0.00016
       5 <- 27         0.00396
       5 <- 35        -0.00051
       5 <- 46        -0.00060
       6 <- 11        -0.00090
       6 <- 16         0.00149
       6 <- 18        -0.00299
       6 <- 23         0.00407
       6 <- 24        -0.00169
       6 <- 29         0.00162
       6 <- 33        -0.00079
       6 <- 36         0.00177
       6 <- 40        -0.00012
       6 <- 42         0.00081
       6 <- 47         0.00049
       6 <- 53         0.00066
       7 <- 27         0.00106
       7 <- 35        -0.00027
       7 <- 46         0.00085
       8 <- 10        -0.00689
       8 <- 13        -0.00863
       8 <- 17        -0.00437
       8 <- 22         0.00042
       8 <- 28        -0.00039
       8 <- 32         0.00289
       8 <- 37        -0.00222
       8 <- 52         0.00026
 This state for optimization and/or second-order correction.
 Total Energy, E(TD-HF/TD-DFT) =  -113.927833902
 Copying the excited state density for this state as the 1-particle RhoCI density.

 Excited State   2:      Singlet-B2     5.7843 eV  214.35 nm  f=0.0904  <S**2>=0.000
       3 -> 11         0.00087
       3 -> 16         0.00029
       3 -> 18         0.00098
       3 -> 24         0.00112
       3 -> 29        -0.00020
       3 -> 42         0.00015
       3 -> 50        -0.00015
       4 ->  9         0.00188
       4 -> 12         0.00630
       4 -> 14         0.00511
       4 -> 15         0.00161
       4 -> 19         0.00372
       4 -> 20         0.00131
       4 -> 21         0.00271
       4 -> 25         0.00129
       4 -> 26        -0.00110
       4 -> 30        -0.00209
       4 -> 31         0.00038
       4 -> 34         0.00039
       4 -> 38        -0.00081
       4 -> 39         0.00013
       4 -> 41         0.00045
       4 -> 44         0.00042
       4 -> 45        -0.00058
       4 -> 48         0.00038
       5 -> 11        -0.00650
       5 -> 16         0.00128
       5 -> 18         0.00114
       5 -> 23        -0.00236
       5 -> 24         0.00410
       5 -> 29        -0.00064
       5 -> 33        -0.00103
       5 -> 36         0.00087
       5 -> 40        -0.00015
       5 -> 42         0.00044
       6 -> 27         0.00110
       6 -> 35         0.00030
       6 -> 46         0.00087
       7 -> 11         0.00258
       7 -> 16         0.00336
       7 -> 18         0.00357
       7 -> 23        -0.00204
       7 -> 24         0.00249
       7 -> 29         0.00013
       7 -> 36        -0.00023
       7 -> 42        -0.00037
       7 -> 47         0.00041
       7 -> 50         0.00049
       8 ->  9         0.70624
       8 -> 12         0.01152
       8 -> 14        -0.02242
       8 -> 15         0.01136
       8 -> 19         0.02045
       8 -> 20        -0.00764
       8 -> 21        -0.00811
       8 -> 25         0.00064
       8 -> 26        -0.00048
       8 -> 31         0.00295
       8 -> 34         0.00149
       8 -> 38         0.00089
       8 -> 39        -0.00052
       8 -> 41        -0.00044
       8 -> 44        -0.00022
       8 -> 45        -0.00107
       8 -> 48         0.00035
       8 -> 54        -0.00014
       3 <- 11         0.00029
       3 <- 18         0.00060
       3 <- 24         0.00082
       3 <- 29        -0.00018
       3 <- 42         0.00013
       3 <- 53         0.00011
       4 <-  9         0.00200
       4 <- 12        -0.00012
       4 <- 14         0.00405
       4 <- 15         0.00177
       4 <- 19         0.00094
       4 <- 20         0.00048
       4 <- 21         0.00171
       4 <- 25         0.00163
       4 <- 26        -0.00125
       4 <- 30        -0.00077
       4 <- 31        -0.00012
       4 <- 34         0.00017
       4 <- 38        -0.00052
       4 <- 39         0.00016
       4 <- 41         0.00044
       4 <- 44         0.00029
       4 <- 45        -0.00052
       4 <- 48         0.00033
       5 <- 11        -0.00019
       5 <- 16         0.00121
       5 <- 18         0.00227
       5 <- 23        -0.00138
       5 <- 24         0.00316
       5 <- 29        -0.00052
       5 <- 33        -0.00078
       5 <- 36         0.00066
       5 <- 40        -0.00019
       5 <- 42         0.00020
       6 <- 27         0.00086
       6 <- 35         0.00024
       6 <- 46         0.00073
       7 <- 11         0.00069
       7 <- 16         0.00210
       7 <- 18         0.00120
       7 <- 23        -0.00083
       7 <- 24         0.00116
       7 <- 29         0.00075
       7 <- 42        -0.00032
       7 <- 47         0.00038
       7 <- 50         0.00055
       8 <-  9        -0.00468
       8 <- 12         0.00237
       8 <- 14        -0.01360
       8 <- 15        -0.00242
       8 <- 19        -0.00115
       8 <- 20         0.00023
       8 <- 21        -0.00431
       8 <- 25        -0.00313
       8 <- 26        -0.00065
       8 <- 30         0.00048
       8 <- 31         0.00159
       8 <- 34         0.00154
       8 <- 38         0.00088
       8 <- 39        -0.00043
       8 <- 41        -0.00029
       8 <- 44        -0.00027
       8 <- 45        -0.00079
       8 <- 48         0.00032

 Excited State   3:      Singlet-B2     6.5807 eV  188.41 nm  f=0.0231  <S**2>=0.000
       3 -> 11         0.00011
       3 -> 16        -0.00064
       3 -> 23        -0.00019
       3 -> 24        -0.00044
       3 -> 29        -0.00089
       3 -> 33        -0.00014
       3 -> 36         0.00029
       3 -> 42         0.00030
       3 -> 47        -0.00019
       3 -> 50        -0.00020
       3 -> 53         0.00010
       4 ->  9         0.00468
       4 -> 14        -0.00273
       4 -> 15        -0.00439
       4 -> 19         0.00308
       4 -> 20        -0.00052
       4 -> 21        -0.00140
       4 -> 25        -0.00092
       4 -> 26        -0.00119
       4 -> 30         0.00074
       4 -> 31         0.00218
       4 -> 34         0.00040
       4 -> 39         0.00081
       4 -> 41         0.00064
       4 -> 45        -0.00061
       4 -> 48         0.00041
       4 -> 51         0.00020
       5 -> 11        -0.00257
       5 -> 16        -0.00457
       5 -> 18        -0.00132
       5 -> 23         0.00133
       5 -> 24        -0.00373
       5 -> 29         0.00126
       5 -> 33        -0.00055
       5 -> 40         0.00026
       5 -> 47        -0.00012
       5 -> 50        -0.00010
       6 -> 27         0.00089
       6 -> 35         0.00134
       6 -> 46         0.00102
       7 -> 11         0.00290
       7 -> 16         0.00025
       7 -> 18         0.00239
       7 -> 23        -0.00128
       7 -> 24         0.00048
       7 -> 33         0.00023
       7 -> 36        -0.00117
       7 -> 40         0.00030
       7 -> 42        -0.00063
       7 -> 47         0.00066
       7 -> 50         0.00057
       7 -> 53        -0.00017
       8 ->  9        -0.01180
       8 -> 12         0.70597
       8 -> 14         0.01855
       8 -> 15         0.02405
       8 -> 19         0.01638
       8 -> 20         0.01522
       8 -> 21         0.00322
       8 -> 25        -0.00041
       8 -> 26         0.00052
       8 -> 30        -0.00179
       8 -> 31        -0.00054
       8 -> 34        -0.00037
       8 -> 38         0.00014
       8 -> 39         0.00083
       8 -> 41         0.00121
       8 -> 44        -0.00011
       8 -> 45        -0.00069
       8 -> 48         0.00057
       8 -> 54        -0.00016
       3 <- 11        -0.00021
       3 <- 16        -0.00060
       3 <- 18        -0.00019
       3 <- 24        -0.00049
       3 <- 29        -0.00060
       3 <- 33        -0.00017
       3 <- 36         0.00031
       3 <- 42         0.00026
       3 <- 47        -0.00015
       3 <- 50        -0.00011
       3 <- 53         0.00021
       4 <-  9        -0.00136
       4 <- 12        -0.00020
       4 <- 14        -0.00177
       4 <- 15        -0.00060
       4 <- 19        -0.00064
       4 <- 20         0.00031
       4 <- 21        -0.00102
       4 <- 25        -0.00093
       4 <- 26        -0.00094
       4 <- 30         0.00087
       4 <- 31         0.00087
       4 <- 34         0.00094
       4 <- 39         0.00059
       4 <- 41         0.00065
       4 <- 45        -0.00063
       4 <- 48         0.00028
       4 <- 51         0.00019
       5 <- 11        -0.00022
       5 <- 16        -0.00088
       5 <- 18        -0.00109
       5 <- 23         0.00125
       5 <- 24        -0.00188
       5 <- 29         0.00057
       5 <- 33        -0.00058
       5 <- 36        -0.00021
       5 <- 40         0.00026
       5 <- 50        -0.00019
       6 <- 27         0.00043
       6 <- 35         0.00111
       6 <- 46         0.00088
       7 <- 11         0.00037
       7 <- 16         0.00042
       7 <- 18         0.00020
       7 <- 23        -0.00024
       7 <- 29         0.00040
       7 <- 36        -0.00080
       7 <- 40         0.00024
       7 <- 42        -0.00044
       7 <- 47         0.00058
       7 <- 50         0.00054
       8 <-  9         0.00221
       8 <- 12         0.00136
       8 <- 14         0.00705
       8 <- 15         0.00176
       8 <- 19        -0.00186
       8 <- 20        -0.00211
       8 <- 21         0.00279
       8 <- 25         0.00046
       8 <- 26        -0.00074
       8 <- 30        -0.00125
       8 <- 31        -0.00112
       8 <- 38         0.00030
       8 <- 39         0.00059
       8 <- 41         0.00102
       8 <- 45        -0.00058
       8 <- 48         0.00036
       8 <- 51         0.00012

 Excited State   4:      Singlet-A1     6.7183 eV  184.55 nm  f=0.0387  <S**2>=0.000
       3 ->  9         0.00129
       3 -> 12         0.00078
       3 -> 15         0.00059
       3 -> 19         0.00133
       3 -> 20        -0.00028
       3 -> 21        -0.00034
       3 -> 25         0.00028
       3 -> 30        -0.00103
       3 -> 31        -0.00021
       3 -> 34        -0.00022
       3 -> 38        -0.00034
       3 -> 39        -0.00026
       3 -> 41        -0.00011
       3 -> 48        -0.00014
       3 -> 51        -0.00027
       3 -> 54         0.00020
       4 -> 11         0.00739
       4 -> 16         0.00810
       4 -> 18         0.00650
       4 -> 23         0.00096
       4 -> 24         0.00401
       4 -> 29         0.00068
       4 -> 33        -0.00015
       4 -> 36         0.00096
       4 -> 42        -0.00024
       4 -> 50        -0.00035
       4 -> 53        -0.00013
       5 ->  9         0.00570
       5 -> 12        -0.01072
       5 -> 14         0.00623
       5 -> 15         0.00236
       5 -> 19         0.00126
       5 -> 20        -0.00677
       5 -> 21         0.00186
       5 -> 25         0.00680
       5 -> 26        -0.00092
       5 -> 30         0.00085
       5 -> 31        -0.00080
       5 -> 34        -0.00109
       5 -> 38        -0.00035
       5 -> 39         0.00094
       5 -> 41         0.00012
       5 -> 44         0.00017
       5 -> 45        -0.00032
       5 -> 48        -0.00030
       6 -> 10         0.00703
       6 -> 13        -0.00306
       6 -> 17         0.00509
       6 -> 22         0.00395
       6 -> 28         0.00078
       6 -> 32         0.00090
       6 -> 37         0.00054
       6 -> 43         0.00045
       6 -> 49        -0.00036
       7 ->  9         0.01298
       7 -> 12         0.00544
       7 -> 14         0.00254
       7 -> 15        -0.00105
       7 -> 19         0.00816
       7 -> 20        -0.00256
       7 -> 21         0.00076
       7 -> 25         0.00187
       7 -> 26         0.00015
       7 -> 30        -0.00030
       7 -> 31         0.00068
       7 -> 34        -0.00096
       7 -> 38        -0.00010
       7 -> 39         0.00024
       7 -> 48        -0.00022
       7 -> 51         0.00041
       8 -> 11         0.70541
       8 -> 16         0.04319
       8 -> 18        -0.00450
       8 -> 23         0.00304
       8 -> 24         0.00172
       8 -> 29         0.00351
       8 -> 33         0.00157
       8 -> 36        -0.00261
       8 -> 40         0.00015
       8 -> 42         0.00147
       8 -> 47        -0.00049
       8 -> 53        -0.00011
       3 <-  9         0.00057
       3 <- 12         0.00031
       3 <- 15         0.00030
       3 <- 19         0.00075
       3 <- 20        -0.00010
       3 <- 21        -0.00013
       3 <- 25         0.00031
       3 <- 30        -0.00061
       3 <- 31        -0.00018
       3 <- 34        -0.00018
       3 <- 38        -0.00025
       3 <- 39        -0.00023
       3 <- 41        -0.00013
       3 <- 48        -0.00016
       3 <- 51        -0.00023
       3 <- 54         0.00018
       4 <- 11         0.00262
       4 <- 16         0.00254
       4 <- 18         0.00326
       4 <- 23         0.00090
       4 <- 24         0.00216
       4 <- 29         0.00025
       4 <- 33        -0.00028
       4 <- 36         0.00083
       4 <- 42        -0.00021
       4 <- 50        -0.00029
       4 <- 53        -0.00011
       5 <-  9         0.00594
       5 <- 12        -0.00397
       5 <- 14         0.00469
       5 <- 15         0.00220
       5 <- 19         0.00091
       5 <- 20        -0.00382
       5 <- 21         0.00047
       5 <- 25         0.00419
       5 <- 26        -0.00042
       5 <- 30         0.00019
       5 <- 31        -0.00100
       5 <- 34        -0.00089
       5 <- 38        -0.00045
       5 <- 39         0.00077
       5 <- 44         0.00023
       5 <- 45        -0.00028
       5 <- 48        -0.00024
       6 <- 10         0.00268
       6 <- 13        -0.00129
       6 <- 17         0.00242
       6 <- 22         0.00240
       6 <- 28         0.00049
       6 <- 32         0.00070
       6 <- 37         0.00044
       6 <- 43         0.00039
       6 <- 49        -0.00032
       7 <-  9         0.00455
       7 <- 12         0.00139
       7 <- 14         0.00122
       7 <- 15        -0.00039
       7 <- 19         0.00358
       7 <- 20        -0.00155
       7 <- 21         0.00020
       7 <- 25         0.00114
       7 <- 30        -0.00034
       7 <- 31         0.00042
       7 <- 34        -0.00067
       7 <- 38        -0.00015
       7 <- 39         0.00030
       7 <- 45        -0.00012
       7 <- 48        -0.00011
       7 <- 51         0.00038
       8 <- 11        -0.00405
       8 <- 16         0.00531
       8 <- 18        -0.01134
       8 <- 23        -0.00118
       8 <- 24        -0.00182
       8 <- 29         0.00187
       8 <- 33         0.00122
       8 <- 36        -0.00188
       8 <- 42         0.00119
       8 <- 47        -0.00055
       8 <- 53        -0.00013

 Excited State   5:      Singlet-A2     7.5945 eV  163.26 nm  f=0.0000  <S**2>=0.000
       3 -> 27         0.00195
       3 -> 35         0.00158
       3 -> 46         0.00075
       4 -> 10         0.00751
       4 -> 13         0.00890
       4 -> 17        -0.00166
       4 -> 22        -0.00181
       4 -> 28         0.00042
       4 -> 32         0.00222
       4 -> 37         0.00270
       4 -> 43         0.00032
       4 -> 49        -0.00011
       4 -> 52         0.00044
       5 -> 27         0.00126
       5 -> 35        -0.00078
       5 -> 46        -0.00025
       6 -> 11         0.00015
       6 -> 16        -0.00192
       6 -> 18        -0.00037
       6 -> 23         0.00144
       6 -> 24         0.00014
       6 -> 29        -0.00038
       6 -> 33         0.00010
       6 -> 36         0.00041
       6 -> 42         0.00042
       6 -> 47         0.00041
       6 -> 53         0.00019
       7 -> 27         0.00033
       7 -> 35        -0.00019
       7 -> 46         0.00080
       8 -> 10        -0.11702
       8 -> 13         0.69681
       8 -> 17         0.01032
       8 -> 22        -0.02363
       8 -> 28         0.00226
       8 -> 32         0.00179
       8 -> 37        -0.00139
       8 -> 43        -0.00017
       8 -> 49        -0.00014
       8 -> 52         0.00049
       3 <- 27         0.00121
       3 <- 35         0.00129
       3 <- 46         0.00085
       4 <- 10         0.00033
       4 <- 13         0.00040
       4 <- 17        -0.00044
       4 <- 32        -0.00036
       4 <- 37         0.00090
       4 <- 43         0.00027
       4 <- 52         0.00014
       5 <- 27         0.00183
       5 <- 35        -0.00013
       5 <- 46        -0.00031
       6 <- 11         0.00039
       6 <- 16        -0.00044
       6 <- 18        -0.00085
       6 <- 23         0.00273
       6 <- 24        -0.00071
       6 <- 29         0.00015
       6 <- 33        -0.00076
       6 <- 36         0.00142
       6 <- 42         0.00077
       6 <- 47         0.00019
       6 <- 53         0.00041
       7 <- 27         0.00054
       7 <- 35        -0.00027
       7 <- 46         0.00043
       8 <- 10        -0.00715
       8 <- 13        -0.00204
       8 <- 17        -0.00124
       8 <- 22         0.00059
       8 <- 28        -0.00029
       8 <- 32         0.00141
       8 <- 37        -0.00118
       8 <- 52         0.00019

 Excited State   6:      Singlet-B2     9.8308 eV  126.12 nm  f=0.2424  <S**2>=0.000
       3 -> 11        -0.00040
       3 -> 16         0.00128

 The electronic state is 1-A1.
 Alpha  occ. eigenvalues --  -19.13945 -10.23660  -1.28491  -0.62588  -0.59186
 Alpha  occ. eigenvalues --   -0.57965  -0.52604  -0.23717
 Alpha virt. eigenvalues --    0.01388   0.01902   0.04427   0.04428   0.09585
 Alpha virt. eigenvalues --    0.14270   0.17711   0.20254   0.21841   0.23619
 Alpha virt. eigenvalues --    0.25872   0.36421   0.50250   0.53091   0.54198

 Mulliken charges:
               1
     1  C    0.240845
     2  H   -0.009945
     3  H   -0.009945
     4  O   -0.220954
 Sum of Mulliken charges =   0.00000

 Dipole moment (field-independent basis, Debye):
    X=              0.0000    Y=             -0.0000    Z=             -0.3397  Tot=              0.3397
 Quadrupole moment (field-independent basis, Debye-Ang):
   XX=            -10.7150   YY=            -12.4590   ZZ=            -13.2716
   XY=             -0.0000   XZ=             -0.0000   YZ=             -0.0000

 Normal termination of Gaussian 16 at Fri Sep 17 10:52:31 2021.
