 Gaussian 16, Revision C.01,
 Gaussian 16:  ES64L-G16RevC.01  3-Jul-2019

 ----------------------------------------
 #P wB97XD/6-311+G* NoSymm #P Field=X+116
 ----------------------------------------

 -------
 TitleMe
 -------
 Symbolic Z-matrix:
 Charge =  1 Multiplicity = 1

                          Input orientation:
 ---------------------------------------------------------------------
 Center     Atomic      Atomic             Coordinates (Angstroms)
 Number     Number       Type             X           Y           Z
 ---------------------------------------------------------------------
      1          6           0        0.029500    1.339700    0.068200
      2          6           0        1.434800    1.286700    0.006400
      3          6           0        2.111800    0.051100   -0.005400
      4          6           0        1.445100   -1.137200    0.031200
      5          6           0       -0.687900    0.168200    0.110000
      6          1           0       -0.471300    2.298400    0.078100
      7          1           0        2.027300    2.196500   -0.032200
      8          1           0        1.989700   -2.076400    0.023200
      9          1           0       -1.771600    0.180400    0.158200
     10          7           0        3.586400    0.051000   -0.067500
     11          8           0        4.147100   -1.059700   -0.088100
     12          8           0        4.145000    1.163900   -0.090100
     13          6           0       -0.023600   -1.145800    0.083500
     14          1           0       -0.436700   -1.872500    0.788900
     15         35           0       -0.535900   -1.869700   -1.740800
 ---------------------------------------------------------------------

 SCF Done:  E(RwB97XD) =  -3010.54706903     A.U. after   19 cycles

 Alpha  occ. eigenvalues -- -483.31933 -62.86939 -56.66648 -56.66056 -56.66050
 Alpha  occ. eigenvalues --  -19.51645 -19.51565 -14.90970 -10.59847 -10.59219
 Alpha  occ. eigenvalues --  -10.59193 -10.59095 -10.57780 -10.53913  -9.02732
 Alpha  occ. eigenvalues --   -6.85451  -6.83517  -6.83492  -2.95345  -2.94835
 Alpha  occ. eigenvalues --   -2.94814  -2.93267  -2.93267  -1.55379  -1.38423
 Alpha  occ. eigenvalues --   -1.24477  -1.16104  -1.13275  -1.05649  -1.03897
 Alpha  occ. eigenvalues --   -0.96957  -0.93112  -0.89108  -0.85368  -0.83992
 Alpha  occ. eigenvalues --   -0.83620  -0.80440  -0.79542  -0.77394  -0.73773
 Alpha  occ. eigenvalues --   -0.70451  -0.68936  -0.65293  -0.62914  -0.62488
 Alpha  occ. eigenvalues --   -0.61593  -0.61220  -0.56785  -0.56022
 Alpha virt. eigenvalues --   -0.30898  -0.25814  -0.16946  -0.15410  -0.11260
 Alpha virt. eigenvalues --   -0.08599  -0.08135  -0.06822  -0.06657  -0.04958
 Alpha virt. eigenvalues --   -0.03605  -0.03373  -0.02964  -0.01386  -0.01061

 Mulliken charges:
               1
     1  C   -0.605618
     2  C    0.554563
     3  C   -0.743285
     4  C    0.224867
     5  C    0.042743
     6  H    0.357986
     7  H    0.345044
     8  H    0.356847
     9  H    0.400838
    10  N   -0.103683
    11  O   -0.020905
    12  O   -0.024123
    13  C   -0.448770
    14  H    0.423240
    15  Br   0.240255
 Sum of Mulliken charges =   1.00000

 Dipole moment (field-independent basis, Debye):
    X=             -4.3263    Y=             -0.9900    Z=             -0.3110  Tot=              4.4490
 Quadrupole moment (field-independent basis, Debye-Ang):
   XX=            -79.6330   YY=            -51.6358   ZZ=            -61.7881
   XY=              1.8311   XZ=              2.0060   YZ=              2.4806

 Normal termination of Gaussian 16 at Wed May  1 14:46:32 2024.
