 Gaussian 16, Revision C.01,
 Gaussian 16:  ES64L-G16RevC.01  3-Jul-2019

 ----------------------------------------
 #P wB97XD/6-311+G* NoSymm #P Field=Y-136
 ----------------------------------------

 -------
 TitleMe
 -------
 Symbolic Z-matrix:
 Charge =  1 Multiplicity = 1

                          Input orientation:
 ---------------------------------------------------------------------
 Center     Atomic      Atomic             Coordinates (Angstroms)
 Number     Number       Type             X           Y           Z
 ---------------------------------------------------------------------
      1          6           0        0.029500    1.339700    0.068200
      2          6           0        1.434800    1.286700    0.006400
      3          6           0        2.111800    0.051100   -0.005400
      4          6           0        1.445100   -1.137200    0.031200
      5          6           0       -0.687900    0.168200    0.110000
      6          1           0       -0.471300    2.298400    0.078100
      7          1           0        2.027300    2.196500   -0.032200
      8          1           0        1.989700   -2.076400    0.023200
      9          1           0       -1.771600    0.180400    0.158200
     10          7           0        3.586400    0.051000   -0.067500
     11          8           0        4.147100   -1.059700   -0.088100
     12          8           0        4.145000    1.163900   -0.090100
     13          6           0       -0.023600   -1.145800    0.083500
     14          1           0       -0.436700   -1.872500    0.788900
     15         35           0       -0.535900   -1.869700   -1.740800
 ---------------------------------------------------------------------

 SCF Done:  E(RwB97XD) =  -3010.54265805     A.U. after   19 cycles

 Alpha  occ. eigenvalues -- -483.33351 -62.88401 -56.68059 -56.67534 -56.67533
 Alpha  occ. eigenvalues --  -19.46266 -19.45937 -14.85576 -10.60042 -10.57767
 Alpha  occ. eigenvalues --  -10.57695 -10.57237 -10.56662 -10.52236  -9.04225
 Alpha  occ. eigenvalues --   -6.86809  -6.85080  -6.85073  -2.96736  -2.96273
 Alpha  occ. eigenvalues --   -2.96265  -2.94882  -2.94882  -1.49861  -1.32830
 Alpha  occ. eigenvalues --   -1.23207  -1.15004  -1.11824  -1.05980  -1.01244
 Alpha  occ. eigenvalues --   -0.95979  -0.91242  -0.85496  -0.81080  -0.80838
 Alpha  occ. eigenvalues --   -0.80260  -0.79008  -0.76289  -0.75940  -0.73130
 Alpha  occ. eigenvalues --   -0.69404  -0.67405  -0.64076  -0.61314  -0.58997
 Alpha  occ. eigenvalues --   -0.57350  -0.56674  -0.56303  -0.55724
 Alpha virt. eigenvalues --   -0.30280  -0.21609  -0.17037  -0.14387  -0.13028
 Alpha virt. eigenvalues --   -0.09557  -0.09483  -0.07025  -0.05806  -0.05030
 Alpha virt. eigenvalues --   -0.04222  -0.04040  -0.02571  -0.02382  -0.01458

 Mulliken charges:
               1
     1  C   -0.547887
     2  C    0.456024
     3  C   -0.651334
     4  C    0.264125
     5  C    0.039902
     6  H    0.387914
     7  H    0.413751
     8  H    0.326704
     9  H    0.355009
    10  N   -0.109222
    11  O   -0.037098
    12  O    0.106774
    13  C   -0.458881
    14  H    0.368827
    15  Br   0.085393
 Sum of Mulliken charges =   1.00000

 Dipole moment (field-independent basis, Debye):
    X=             -0.3470    Y=              3.3227    Z=              0.4812  Tot=              3.3752
 Quadrupole moment (field-independent basis, Debye-Ang):
   XX=            -70.4568   YY=            -53.9911   ZZ=            -63.7930
   XY=              5.6723   XZ=              0.6759   YZ=             -0.1301

 Normal termination of Gaussian 16 at Wed May  1 15:04:41 2024.
