 Gaussian 16, Revision C.01,
 Gaussian 16:  ES64L-G16RevC.01  3-Jul-2019

 ----------------------------------------
 #P wB97XD/6-311+G* NoSymm #P Field=X+194
 ----------------------------------------

 -------
 TitleMe
 -------
 Symbolic Z-matrix:
 Charge =  1 Multiplicity = 1

                          Input orientation:
 ---------------------------------------------------------------------
 Center     Atomic      Atomic             Coordinates (Angstroms)
 Number     Number       Type             X           Y           Z
 ---------------------------------------------------------------------
      1          6           0        0.029500    1.339700    0.068200
      2          6           0        1.434800    1.286700    0.006400
      3          6           0        2.111800    0.051100   -0.005400
      4          6           0        1.445100   -1.137200    0.031200
      5          6           0       -0.687900    0.168200    0.110000
      6          1           0       -0.471300    2.298400    0.078100
      7          1           0        2.027300    2.196500   -0.032200
      8          1           0        1.989700   -2.076400    0.023200
      9          1           0       -1.771600    0.180400    0.158200
     10          7           0        3.586400    0.051000   -0.067500
     11          8           0        4.147100   -1.059700   -0.088100
     12          8           0        4.145000    1.163900   -0.090100
     13          6           0       -0.023600   -1.145800    0.083500
     14          1           0       -0.436700   -1.872500    0.788900
     15         35           0       -0.535900   -1.869700   -1.740800
 ---------------------------------------------------------------------

 SCF Done:  E(RwB97XD) =  -3010.56406405     A.U. after   19 cycles

 Alpha  occ. eigenvalues -- -483.32676 -62.87666 -56.67386 -56.66782 -56.66770
 Alpha  occ. eigenvalues --  -19.55636 -19.55548 -14.94816 -10.61845 -10.60919
 Alpha  occ. eigenvalues --  -10.60515 -10.59882 -10.58720 -10.54851  -9.03446
 Alpha  occ. eigenvalues --   -6.86194  -6.84221  -6.84180  -2.96080  -2.95565
 Alpha  occ. eigenvalues --   -2.95531  -2.93953  -2.93953  -1.59348  -1.42434
 Alpha  occ. eigenvalues --   -1.26078  -1.17815  -1.14501  -1.07196  -1.05550
 Alpha  occ. eigenvalues --   -0.98190  -0.95145  -0.92037  -0.89200  -0.87683
 Alpha  occ. eigenvalues --   -0.85209  -0.82265  -0.80536  -0.78674  -0.75006
 Alpha  occ. eigenvalues --   -0.71416  -0.70033  -0.66977  -0.66774  -0.66393
 Alpha  occ. eigenvalues --   -0.65653  -0.62375  -0.57262  -0.56699
 Alpha virt. eigenvalues --   -0.31978  -0.29306  -0.18358  -0.16680  -0.15318
 Alpha virt. eigenvalues --   -0.12252  -0.11334  -0.09992  -0.09488  -0.07112
 Alpha virt. eigenvalues --   -0.06237  -0.05523  -0.04695  -0.03796  -0.03219

 Mulliken charges:
               1
     1  C   -0.621122
     2  C    0.571885
     3  C   -0.749664
     4  C    0.170347
     5  C    0.072633
     6  H    0.374084
     7  H    0.330514
     8  H    0.345962
     9  H    0.432276
    10  N   -0.104993
    11  O   -0.056237
    12  O   -0.059306
    13  C   -0.430664
    14  H    0.436509
    15  Br   0.287776
 Sum of Mulliken charges =   1.00000

 Dipole moment (field-independent basis, Debye):
    X=             -6.7676    Y=             -1.2828    Z=             -0.5211  Tot=              6.9078
 Quadrupole moment (field-independent basis, Debye-Ang):
   XX=            -85.8172   YY=            -51.4022   ZZ=            -61.2325
   XY=              2.1689   XZ=              2.6315   YZ=              3.0652

 Normal termination of Gaussian 16 at Wed May  1 14:47:37 2024.
