 Gaussian 16, Revision A.03,
 Gaussian 16:  ES64L-G16RevA.03 25-Dec-2016

 --------------------------------------------------------------------
 #p B3LYP/6-311+G** #p TD=(singlets,nstates=30)IOp(6/8=3) IOp(9/40=4)
 --------------------------------------------------------------------

 --------------------------------
 Scan Step 223, Bond Length 1.615
 --------------------------------
 Symbolic Z-matrix:
 Charge =  0 Multiplicity = 1

                         Standard orientation:
 ---------------------------------------------------------------------
 Center     Atomic      Atomic             Coordinates (Angstroms)
 Number     Number       Type             X           Y           Z
 ---------------------------------------------------------------------
      1          6           0        0.000000    0.000000   -0.733581
      2          1           0        0.000000    0.937260   -1.324931
      3          1           0       -0.000000   -0.937260   -1.324931
      4          8           0        0.000000   -0.000000    0.881419
 ---------------------------------------------------------------------

 SCF Done:  E(RB3LYP) =  -114.422232858     A.U. after   10 cycles

 Excitation energies and oscillator strengths:

 Excited State   1:      Singlet-A2     1.9284 eV  642.94 nm  f=0.0000  <S**2>=0.000
       3 -> 27         0.00114
       3 -> 38         0.00084
       3 -> 46         0.00330
       4 -> 27         0.00068
       4 -> 38        -0.00012
       4 -> 46        -0.00128
       5 ->  9         0.00693
       5 -> 13         0.00096
       5 -> 18         0.00279
       5 -> 23         0.00161
       5 -> 28         0.00241
       5 -> 31        -0.00015
       5 -> 37         0.00133
       5 -> 44         0.00032
       5 -> 52         0.00033
       6 -> 27        -0.00063
       6 -> 38        -0.00076
       6 -> 46         0.00131
       7 -> 12        -0.00093
       7 -> 16         0.00479
       7 -> 19        -0.00408
       7 -> 22        -0.00082
       7 -> 25         0.00091
       7 -> 30        -0.00157
       7 -> 33         0.00036
       7 -> 49         0.00012
       7 -> 50         0.00015
       7 -> 53         0.00044
       8 ->  9         0.70866
       8 -> 13        -0.01266
       8 -> 18         0.02158
       8 -> 23        -0.00322
       8 -> 28         0.01101
       8 -> 31         0.00113
       8 -> 37         0.00062
       8 -> 48        -0.00031
       8 -> 52         0.00193
       3 <- 27         0.00051
       3 <- 38         0.00057
       3 <- 46         0.00335
       4 <- 27         0.00118
       4 <- 38         0.00023
       4 <- 46        -0.00103
       5 <-  9        -0.00020
       5 <- 13        -0.00051
       5 <- 18        -0.00066
       5 <- 23         0.00026
       5 <- 28        -0.00046
       5 <- 31         0.00034
       5 <- 37         0.00075
       5 <- 44         0.00011
       6 <- 38        -0.00061
       6 <- 46         0.00101
       7 <- 12         0.00073
       7 <- 16        -0.01011
       7 <- 19         0.00388
       7 <- 22         0.00684
       7 <- 25         0.00054
       7 <- 30         0.00530
       7 <- 33        -0.00050
       7 <- 36         0.00076
       7 <- 40         0.00046
       7 <- 42         0.00014
       7 <- 49        -0.00041
       7 <- 53         0.00146
       8 <-  9        -0.05316
       8 <- 13         0.00040
       8 <- 18        -0.00669
       8 <- 23         0.00012
       8 <- 28        -0.00241
       8 <- 31        -0.00064
       8 <- 37        -0.00044
       8 <- 52         0.00051
 This state for optimization and/or second-order correction.
 Total Energy, E(TD-HF/TD-DFT) =  -114.351365689
 Copying the excited state density for this state as the 1-particle RhoCI density.

 Excited State   2:      Singlet-A1     4.9665 eV  249.64 nm  f=0.0717  <S**2>=0.000
       3 -> 10        -0.01631
       3 -> 11        -0.01294
       3 -> 14         0.01060
       3 -> 15         0.00564
       3 -> 17        -0.00350
       3 -> 20        -0.00393
       3 -> 21        -0.00103
       3 -> 24         0.00234
       3 -> 26         0.00378
       3 -> 29        -0.00120
       3 -> 32         0.00277
       3 -> 34         0.00234
       3 -> 35        -0.00107
       3 -> 39         0.00080
       3 -> 43         0.00045
       3 -> 45         0.00012
       3 -> 47         0.00227
       3 -> 51         0.00107
       3 -> 54         0.00017
       4 -> 10        -0.01106
       4 -> 11         0.01263
       4 -> 14         0.00551
       4 -> 15        -0.00978
       4 -> 17         0.00308
       4 -> 20         0.00507
       4 -> 21         0.00041
       4 -> 24        -0.00497
       4 -> 26         0.00496
       4 -> 29         0.00107
       4 -> 32        -0.00134
       4 -> 34        -0.00166
       4 -> 35         0.00041
       4 -> 41         0.00013
       4 -> 43        -0.00046
       4 -> 45        -0.00081
       4 -> 47        -0.00121
       4 -> 51        -0.00032
       4 -> 54         0.00011
       5 -> 12         0.01680
       5 -> 16         0.01047
       5 -> 19         0.00148
       5 -> 22         0.00742
       5 -> 25         0.00806
       5 -> 30        -0.00021
       5 -> 33        -0.00303
       5 -> 36         0.00276
       5 -> 40         0.00147
       5 -> 42         0.00065
       5 -> 49         0.00045
       5 -> 50        -0.00069
       5 -> 53        -0.00013
       6 -> 10         0.15141
       6 -> 11         0.10408
       6 -> 14        -0.09447
       6 -> 15        -0.06241
       6 -> 17        -0.01990
       6 -> 20        -0.01049
       6 -> 21         0.01321
       6 -> 24        -0.01373
       6 -> 26        -0.00661
       6 -> 29        -0.00787
       6 -> 32         0.00093
       6 -> 34         0.00145
       6 -> 35        -0.00066
       6 -> 39         0.00087
       6 -> 41        -0.00039
       6 -> 43         0.00082
       6 -> 45         0.00080
       6 -> 47         0.00123
       6 -> 51         0.00082
       6 -> 54        -0.00069
       7 ->  9         0.68373
       7 -> 13         0.00027
       7 -> 18        -0.01796
       7 -> 28        -0.00124
       7 -> 31        -0.00304
       7 -> 37         0.00092
       7 -> 44        -0.00105
       7 -> 48         0.00039
       7 -> 52         0.00105
       8 -> 12        -0.00742
       8 -> 16         0.06771
       8 -> 19        -0.02399
       8 -> 22        -0.02575
       8 -> 25         0.00058
       8 -> 30        -0.01183
       8 -> 33         0.00218
       8 -> 36        -0.00258
       8 -> 40        -0.00125
       8 -> 42        -0.00035
       8 -> 49         0.00056
       8 -> 50         0.00023
       8 -> 53        -0.00070
       3 <- 10        -0.01105
       3 <- 11        -0.00923
       3 <- 14         0.00790
       3 <- 15         0.00374
       3 <- 17        -0.00181
       3 <- 20        -0.00287
       3 <- 21        -0.00135
       3 <- 24         0.00144
       3 <- 26         0.00223
       3 <- 29        -0.00072
       3 <- 32         0.00253
       3 <- 34         0.00149
       3 <- 35        -0.00092
       3 <- 39         0.00071
       3 <- 43         0.00054
       3 <- 45         0.00032
       3 <- 47         0.00236
       3 <- 51         0.00105
       3 <- 54         0.00028
       4 <- 10        -0.00541
       4 <- 11         0.00800
       4 <- 14         0.00283
       4 <- 15        -0.00586
       4 <- 17         0.00158
       4 <- 20         0.00432
       4 <- 21         0.00029
       4 <- 24        -0.00341
       4 <- 26         0.00394
       4 <- 29         0.00028
       4 <- 32        -0.00164
       4 <- 34        -0.00145
       4 <- 35         0.00065
       4 <- 39        -0.00013
       4 <- 43        -0.00045
       4 <- 45        -0.00090
       4 <- 47        -0.00081
       4 <- 51        -0.00017
       5 <- 12         0.00765
       5 <- 16         0.00543
       5 <- 19         0.00103
       5 <- 22         0.00463
       5 <- 25         0.00552
       5 <- 33        -0.00236
       5 <- 36         0.00225
       5 <- 40         0.00128
       5 <- 42         0.00054
       5 <- 49         0.00040
       5 <- 50        -0.00063
       5 <- 53        -0.00012
       6 <- 10         0.04529
       6 <- 11         0.03341
       6 <- 14        -0.03728
       6 <- 15        -0.02686
       6 <- 17        -0.00976
       6 <- 20        -0.00674
       6 <- 21         0.00773
       6 <- 24        -0.00838
       6 <- 26        -0.00386
       6 <- 29        -0.00540
       6 <- 32         0.00138
       6 <- 34         0.00177
       6 <- 35        -0.00086
       6 <- 39         0.00093
       6 <- 41        -0.00028
       6 <- 43         0.00070
       6 <- 45         0.00072
       6 <- 47         0.00077
       6 <- 51         0.00065
       6 <- 54        -0.00058
       7 <-  9        -0.12479
       7 <- 13         0.00723
       7 <- 18        -0.01375
       7 <- 23         0.00336
       7 <- 28        -0.00375
       7 <- 31        -0.00140
       7 <- 37         0.00034
       7 <- 44        -0.00063
       7 <- 48        -0.00019
       7 <- 52         0.00092
       8 <- 12        -0.00179
       8 <- 16         0.02437
       8 <- 19        -0.01046
       8 <- 22        -0.01410
       8 <- 25         0.00012
       8 <- 30        -0.00859
       8 <- 33         0.00163
       8 <- 36        -0.00198
       8 <- 40        -0.00101
       8 <- 42        -0.00028
       8 <- 49         0.00037
       8 <- 50         0.00019
       8 <- 53        -0.00064

 Excited State   3:      Singlet-B1     5.3001 eV  233.93 nm  f=0.0014  <S**2>=0.000
       3 ->  9        -0.02857
       3 -> 13         0.00167
       3 -> 18        -0.00461
       3 -> 23         0.00175
       3 -> 28        -0.00092
       3 -> 31        -0.00048
       3 -> 44         0.00024
       3 -> 48         0.00097
       3 -> 52         0.00095
       4 ->  9         0.01343
       4 -> 13        -0.00266
       4 -> 18         0.00025
       4 -> 23        -0.00241
       4 -> 28         0.00024
       4 -> 31        -0.00152
       4 -> 37        -0.00041
       4 -> 44         0.00013
       4 -> 48        -0.00108
       4 -> 52        -0.00057
       5 -> 38         0.00201
       5 -> 46         0.00089
       6 ->  9         0.70490
       6 -> 13        -0.01999
       6 -> 18         0.01668
       6 -> 23        -0.01094
       6 -> 28         0.00422
       6 -> 31         0.00324
       6 -> 37        -0.00215
       6 -> 44        -0.00280
       6 -> 48         0.00412
       6 -> 52         0.00143
       7 -> 10         0.04280
       7 -> 11         0.02594
       7 -> 14        -0.01799
       7 -> 15        -0.00686
       7 -> 17        -0.00912
       7 -> 20         0.00297
       7 -> 21         0.00023
       7 -> 24        -0.00065
       7 -> 26        -0.00156
       7 -> 29        -0.00390
       7 -> 32        -0.00058
       7 -> 34         0.00077
       7 -> 35         0.00178
       7 -> 39         0.00014
       7 -> 41        -0.00053
       7 -> 43         0.00054
       7 -> 45        -0.00034
       7 -> 47         0.00421
       7 -> 51         0.00118
       7 -> 54         0.00039
       8 -> 27         0.00048
       8 -> 46         0.00528
       3 <-  9        -0.00959
       3 <- 13        -0.00065
       3 <- 18        -0.00289
       3 <- 23        -0.00056
       3 <- 28        -0.00059
       3 <- 31        -0.00067
       3 <- 44        -0.00025
       3 <- 48         0.00114
       3 <- 52         0.00077
       4 <-  9         0.00674
       4 <- 13        -0.00028
       4 <- 18         0.00192
       4 <- 23        -0.00062
       4 <- 28         0.00162
       4 <- 31        -0.00102
       4 <- 37        -0.00022
       4 <- 48        -0.00093
       4 <- 52        -0.00032
       5 <- 27        -0.00064
       5 <- 38         0.00164
       5 <- 46         0.00079
       6 <-  9        -0.02570
       6 <- 13         0.00171
       6 <- 18        -0.00331
       6 <- 23        -0.00027
       6 <- 28        -0.00340
       6 <- 31         0.00119
       6 <- 37        -0.00187
       6 <- 44        -0.00149
       6 <- 48         0.00368
       6 <- 52         0.00047
       7 <- 10        -0.01733
       7 <- 11        -0.01266
       7 <- 14         0.01492
       7 <- 15         0.01230
       7 <- 17         0.00156
       7 <- 20         0.00493
       7 <- 21        -0.00428
       7 <- 24         0.00447
       7 <- 26         0.00175
       7 <- 29         0.00115
       7 <- 32        -0.00010
       7 <- 34         0.00075
       7 <- 35         0.00264
       7 <- 39         0.00045
       7 <- 41        -0.00018
       7 <- 43         0.00040
       7 <- 45        -0.00048
       7 <- 47         0.00385
       7 <- 51         0.00106
       7 <- 54         0.00106
       8 <- 27         0.00095
       8 <- 38         0.00027
       8 <- 46         0.00492

 Excited State   4:      Singlet-B2     5.9333 eV  208.96 nm  f=0.0127  <S**2>=0.000
       3 -> 12        -0.00154
       3 -> 16         0.00198
       3 -> 19        -0.00456
       3 -> 22         0.00053
       3 -> 25         0.00045
       3 -> 30        -0.00338
       3 -> 33        -0.00024
       3 -> 36         0.00216
       3 -> 40         0.00179
       3 -> 42         0.00024
       3 -> 49        -0.00276
       3 -> 50         0.00022
       3 -> 53         0.00030
       4 -> 12         0.00044
       4 -> 16        -0.00267
       4 -> 19         0.00015
       4 -> 22         0.00306
       4 -> 25        -0.00188
       4 -> 30         0.00146
       4 -> 33        -0.00048
       4 -> 36         0.00054
       4 -> 40        -0.00050
       4 -> 49         0.00045
       4 -> 50        -0.00012
       5 -> 10         0.00731
       5 -> 11         0.00568
       5 -> 14        -0.01181
       5 -> 15         0.00367
       5 -> 17         0.00056
       5 -> 20         0.00211
       5 -> 21         0.00606
       5 -> 24         0.00188
       5 -> 26        -0.00175
       5 -> 29        -0.00200
       5 -> 32        -0.00166
       5 -> 34        -0.00120
       5 -> 35        -0.00045
       5 -> 39        -0.00102
       5 -> 41         0.00073
       5 -> 45         0.00017
       5 -> 47        -0.00083
       5 -> 51         0.00050
       5 -> 54        -0.00024
       6 -> 12         0.00321
       6 -> 16        -0.00174
       6 -> 19         0.00311
       6 -> 22        -0.00017
       6 -> 25        -0.00084
       6 -> 30        -0.00053
       6 -> 33         0.00031
       6 -> 36        -0.00212
       6 -> 40        -0.00173
       6 -> 42        -0.00041
       6 -> 49         0.00163
       6 -> 53        -0.00036
       7 -> 27        -0.00067
       7 -> 38         0.00083
       7 -> 46         0.00372
       8 -> 10         0.64216
       8 -> 11         0.26156
       8 -> 14        -0.12423
       8 -> 15        -0.06055
       8 -> 17        -0.01377
       8 -> 20        -0.00120
       8 -> 21         0.00701
       8 -> 24        -0.00667
       8 -> 26        -0.00562
       8 -> 29        -0.01010
       8 -> 32        -0.00307
       8 -> 34        -0.00192
       8 -> 35        -0.00032
       8 -> 39        -0.00065
       8 -> 41         0.00023
       8 -> 43        -0.00041
       8 -> 45         0.00175
       8 -> 47        -0.00439
       8 -> 51         0.00221
       8 -> 54        -0.00169
       3 <- 12        -0.00056
       3 <- 16         0.00053
       3 <- 19        -0.00215
       3 <- 22         0.00090
       3 <- 25         0.00043
       3 <- 30        -0.00135
       3 <- 33        -0.00021
       3 <- 36         0.00167
       3 <- 40         0.00159
       3 <- 42         0.00021
       3 <- 49        -0.00284
       3 <- 50         0.00019
       3 <- 53         0.00085
       4 <- 12        -0.00018
       4 <- 16        -0.00233
       4 <- 19        -0.00017
       4 <- 22         0.00275
       4 <- 25        -0.00117
       4 <- 30         0.00130
       4 <- 33        -0.00055
       4 <- 36         0.00075
       4 <- 40        -0.00017
       4 <- 42         0.00011
       4 <- 49         0.00034
       5 <- 10         0.00020
       5 <- 11        -0.00158
       5 <- 14        -0.00159
       5 <- 15         0.00386
       5 <- 17         0.00022
       5 <- 20         0.00057
       5 <- 21         0.00212
       5 <- 24         0.00254
       5 <- 26        -0.00052
       5 <- 29        -0.00050
       5 <- 34        -0.00029
       5 <- 39        -0.00035
       5 <- 41         0.00074
       5 <- 43         0.00011
       5 <- 45         0.00047
       5 <- 47        -0.00069
       5 <- 51         0.00027
       6 <- 16         0.00555
       6 <- 19        -0.00250
       6 <- 22        -0.00402
       6 <- 25        -0.00053
       6 <- 30        -0.00475
       6 <- 33         0.00060
       6 <- 36        -0.00211
       6 <- 40        -0.00173
       6 <- 42        -0.00047
       6 <- 49         0.00177
       6 <- 53        -0.00106
       7 <- 27        -0.00065
       7 <- 38         0.00065
       7 <- 46         0.00307
       8 <- 10        -0.01569
       8 <- 11        -0.01201
       8 <- 14         0.01168
       8 <- 15         0.00451
       8 <- 17         0.00039
       8 <- 20        -0.00247
       8 <- 21        -0.00230
       8 <- 24         0.00136
       8 <- 26         0.00199
       8 <- 29        -0.00079
       8 <- 32         0.00245
       8 <- 34         0.00139
       8 <- 35        -0.00027
       8 <- 39         0.00149
       8 <- 41         0.00055
       8 <- 43         0.00032
       8 <- 45         0.00238
       8 <- 47        -0.00327
       8 <- 51         0.00136
       8 <- 54        -0.00042

 Excited State   5:      Singlet-B2     7.0282 eV  176.41 nm  f=0.0017  <S**2>=0.000
       3 -> 12         0.00153
       3 -> 16         0.00136
       3 -> 19        -0.00066
       3 -> 22        -0.00035
       3 -> 25         0.00091
       3 -> 30        -0.00213
       3 -> 33         0.00013
       3 -> 36         0.00037
       3 -> 40         0.00036
       3 -> 49        -0.00058
       4 -> 12        -0.00119
       4 -> 16         0.00077
       4 -> 19         0.00095
       4 -> 22        -0.00106
       4 -> 25         0.00082
       4 -> 30         0.00111
       4 -> 33        -0.00010
       4 -> 36         0.00027
       4 -> 50        -0.00011
       5 -> 10         0.00626
       5 -> 11        -0.00461
       5 -> 14         0.00350
       5 -> 15         0.00500
       5 -> 17         0.00070
       5 -> 20         0.00147
       5 -> 21        -0.00020
       5 -> 24        -0.00045
       5 -> 26        -0.00023
       5 -> 29        -0.00034
       5 -> 32        -0.00142
       5 -> 34         0.00041
       5 -> 35        -0.00030
       5 -> 39        -0.00050
       5 -> 41        -0.00019
       5 -> 43        -0.00030
       5 -> 45         0.00027
       5 -> 47        -0.00031
       5 -> 51         0.00022
       6 -> 12        -0.00203
       6 -> 16        -0.00046
       6 -> 19         0.00016
       6 -> 22        -0.00084
       6 -> 25         0.00014
       6 -> 30        -0.00068
       6 -> 40        -0.00043
       6 -> 42        -0.00018
       6 -> 49         0.00110
       7 -> 27        -0.00058
       7 -> 38        -0.00028
       7 -> 46         0.00149
       8 -> 10        -0.26831
       8 -> 11         0.65326
       8 -> 14         0.00292
       8 -> 15        -0.03043
       8 -> 17        -0.00480
       8 -> 20         0.01464
       8 -> 21         0.00365
       8 -> 24        -0.00316
       8 -> 26         0.00184
       8 -> 29        -0.00241
       8 -> 32        -0.00052
       8 -> 34        -0.00069
       8 -> 35        -0.00058
       8 -> 39         0.00013
       8 -> 43         0.00028
       8 -> 45         0.00102
       8 -> 47        -0.00174
       8 -> 51         0.00083

 The electronic state is 1-A1.
 Alpha  occ. eigenvalues --  -19.17253 -10.32735  -0.92589  -0.69783  -0.48866
 Alpha  occ. eigenvalues --   -0.41424  -0.32897  -0.28954
 Alpha virt. eigenvalues --   -0.14709  -0.01558   0.01082   0.04087   0.06124
 Alpha virt. eigenvalues --    0.08685   0.12865   0.14379   0.18928   0.21380
 Alpha virt. eigenvalues --    0.23971   0.30180   0.39059   0.41020   0.50928

 Mulliken charges:
               1
     1  C   -0.063505
     2  H    0.180269
     3  H    0.180269
     4  O   -0.297033
 Sum of Mulliken charges =  -0.00000

 Dipole moment (field-independent basis, Debye):
    X=             -0.0000    Y=             -0.0000    Z=             -3.7855  Tot=              3.7855
 Quadrupole moment (field-independent basis, Debye-Ang):
   XX=            -12.7570   YY=            -11.8975   ZZ=            -11.2692
   XY=              0.0000   XZ=              0.0000   YZ=             -0.0000

 Normal termination of Gaussian 16 at Fri Sep 17 10:53:02 2021.
