 Gaussian 16, Revision C.01,
 Gaussian 16:  ES64L-G16RevC.01  3-Jul-2019

 --------------------------------------
 #P wB97XD/6-311+G* NoSymm #P Field=X+9
 --------------------------------------

 -------
 TitleMe
 -------
 Symbolic Z-matrix:
 Charge =  1 Multiplicity = 1

                          Input orientation:
 ---------------------------------------------------------------------
 Center     Atomic      Atomic             Coordinates (Angstroms)
 Number     Number       Type             X           Y           Z
 ---------------------------------------------------------------------
      1          6           0        0.519300    1.233000   -0.031900
      2          6           0        1.944500    1.269200   -0.036700
      3          6           0        2.620400    0.092800   -0.025000
      4          6           0       -0.196000    0.030100    0.001000
      5          1           0       -0.020700    2.174200   -0.043400
      6          1           0        2.482800    2.208900   -0.036100
      7          1           0       -1.277700    0.039900    0.011700
      8          7           0        4.092100    0.095900    0.036600
      9          8           0        4.639300   -1.021700    0.144600
     10          8           0        4.664900    1.198400   -0.023300
     11          6           0        0.494300   -1.167100    0.021000
     12          1           0       -0.032500   -2.114900    0.054500
     13          6           0        1.962900   -1.216500   -0.021100
     14          1           0        2.443600   -1.963100    0.615100
     15         35           0        2.173000   -1.949100   -1.906200
 ---------------------------------------------------------------------

 SCF Done:  E(RwB97XD) =  -3010.53096522     A.U. after   19 cycles

 Alpha  occ. eigenvalues -- -483.31336 -62.86357 -56.66052 -56.65481 -56.65470
 Alpha  occ. eigenvalues --  -19.46737 -19.46718 -14.86144 -10.59442 -10.58232
 Alpha  occ. eigenvalues --  -10.57442 -10.57094 -10.53627 -10.52842  -9.02162
 Alpha  occ. eigenvalues --   -6.84846  -6.82972  -6.82940  -2.94749  -2.94256
 Alpha  occ. eigenvalues --   -2.94230  -2.92730  -2.92729  -1.50415  -1.33381
 Alpha  occ. eigenvalues --   -1.22626  -1.13044  -1.12657  -1.04971  -1.00558
 Alpha  occ. eigenvalues --   -0.95523  -0.90787  -0.85280  -0.81259  -0.80433
 Alpha  occ. eigenvalues --   -0.80404  -0.78102  -0.76628  -0.75796  -0.72158
 Alpha  occ. eigenvalues --   -0.68660  -0.67747  -0.63503  -0.60021  -0.57899
 Alpha  occ. eigenvalues --   -0.57215  -0.56474  -0.56360  -0.54813
 Alpha virt. eigenvalues --   -0.30272  -0.20721  -0.15842  -0.13311  -0.08615
 Alpha virt. eigenvalues --   -0.06168  -0.05551  -0.04796  -0.04455  -0.03317
 Alpha virt. eigenvalues --   -0.02522  -0.01692  -0.01513  -0.00798   0.00316

 Mulliken charges:
               1
     1  C   -0.110487
     2  C    0.183847
     3  C   -0.079729
     4  C   -0.333208
     5  H    0.347690
     6  H    0.349123
     7  H    0.334917
     8  N   -0.239774
     9  O    0.084867
    10  O    0.065487
    11  C   -0.199030
    12  H    0.358892
    13  C   -0.354032
    14  H    0.410110
    15  Br   0.181328
 Sum of Mulliken charges =   1.00000

 Dipole moment (field-independent basis, Debye):
    X=              2.5262    Y=             -0.8922    Z=             -0.7380  Tot=              2.7789
 Quadrupole moment (field-independent basis, Debye-Ang):
   XX=            -68.8516   YY=            -51.1572   ZZ=            -62.1913
   XY=             -2.9069   XZ=             -2.4899   YZ=              2.4276

 Normal termination of Gaussian 16 at Thu May  2 14:18:28 2024.
