 Gaussian 16, Revision A.03,
 Gaussian 16:  ES64L-G16RevA.03 25-Dec-2016

 --------------------------------------------------------------------
 #p B3LYP/6-311+G** #p TD=(singlets,nstates=30)IOp(6/8=3) IOp(9/40=4)
 --------------------------------------------------------------------

 -------------------------------
 Scan Step 110, Bond Length 1.05
 -------------------------------
 Symbolic Z-matrix:
 Charge =  0 Multiplicity = 1

                         Standard orientation:
 ---------------------------------------------------------------------
 Center     Atomic      Atomic             Coordinates (Angstroms)
 Number     Number       Type             X           Y           Z
 ---------------------------------------------------------------------
      1          6           0        0.000000    0.000000   -0.451081
      2          1           0        0.000000    0.937260   -1.042431
      3          1           0       -0.000000   -0.937260   -1.042431
      4          8           0        0.000000   -0.000000    0.598919
 ---------------------------------------------------------------------

 SCF Done:  E(RB3LYP) =  -114.490562893     A.U. after    9 cycles

 Excitation energies and oscillator strengths:

 Excited State   1:      Singlet-A2     4.8423 eV  256.04 nm  f=0.0000  <S**2>=0.000
       3 -> 27         0.00292
       3 -> 37         0.00245
       3 -> 45         0.00190
       4 -> 27         0.00274
       4 -> 37        -0.00073
       4 -> 45        -0.00104
       5 ->  9         0.01874
       5 -> 13        -0.00746
       5 -> 17         0.00618
       5 -> 23        -0.00223
       5 -> 28         0.00381
       5 -> 31         0.00290
       5 -> 36         0.00401
       5 -> 44         0.00068
       5 -> 47         0.00012
       5 -> 52         0.00086
       6 -> 27         0.00047
       6 -> 37        -0.00063
       6 -> 45         0.00163
       7 -> 12        -0.00062
       7 -> 16         0.00188
       7 -> 18        -0.00182
       7 -> 22         0.00148
       7 -> 24         0.00119
       7 -> 29        -0.00072
       7 -> 34         0.00036
       7 -> 35         0.00048
       7 -> 40        -0.00038
       7 -> 42        -0.00020
       7 -> 48         0.00060
       7 -> 51        -0.00020
       7 -> 53         0.00040
       8 ->  9         0.70170
       8 -> 13        -0.08177
       8 -> 17         0.02547
       8 -> 23        -0.01182
       8 -> 28         0.00705
       8 -> 31         0.00347
       8 -> 36        -0.00131
       8 -> 44        -0.00024
       8 -> 47        -0.00017
       8 -> 52         0.00136
       3 <- 27         0.00203
       3 <- 37         0.00208
       3 <- 45         0.00198
       4 <- 27         0.00351
       4 <- 37        -0.00019
       4 <- 45        -0.00094
       5 <- 13        -0.00096
       5 <- 17        -0.00064
       5 <- 23         0.00050
       5 <- 28        -0.00042
       5 <- 31        -0.00110
       5 <- 36         0.00180
       5 <- 44         0.00038
       5 <- 47         0.00017
       5 <- 52         0.00022
       6 <- 27         0.00087
       6 <- 37        -0.00060
       6 <- 45         0.00127
       7 <- 12        -0.00096
       7 <- 16        -0.00518
       7 <- 18        -0.00148
       7 <- 22         0.00647
       7 <- 24        -0.00084
       7 <- 29         0.00237
       7 <- 34        -0.00127
       7 <- 35         0.00251
       7 <- 40        -0.00081
       7 <- 42        -0.00069
       7 <- 48         0.00043
       7 <- 53         0.00107
       8 <-  9        -0.01684
       8 <- 13         0.00547
       8 <- 17        -0.00385
       8 <- 23         0.00072
       8 <- 28        -0.00053
       8 <- 31         0.00179
       8 <- 36        -0.00203
       8 <- 52         0.00040
 This state for optimization and/or second-order correction.
 Total Energy, E(TD-HF/TD-DFT) =  -114.312611696
 Copying the excited state density for this state as the 1-particle RhoCI density.

 Excited State   2:      Singlet-B2     6.5237 eV  190.05 nm  f=0.0569  <S**2>=0.000
       3 -> 12         0.00117
       3 -> 16         0.00054
       3 -> 18         0.00111
       3 -> 22        -0.00022
       3 -> 24         0.00129
       3 -> 29        -0.00013
       3 -> 35        -0.00024
       4 -> 12        -0.00462
       4 -> 16         0.00084
       4 -> 18         0.00237
       4 -> 22        -0.00326
       4 -> 24         0.00385
       4 -> 34        -0.00082
       4 -> 35         0.00084
       4 -> 40        -0.00046
       4 -> 42        -0.00021
       5 -> 10        -0.00228
       5 -> 11        -0.00906
       5 -> 14         0.00662
       5 -> 15        -0.00131
       5 -> 19         0.00302
       5 -> 21         0.00442
       5 -> 25         0.00037
       5 -> 26        -0.00221
       5 -> 30         0.00233
       5 -> 32        -0.00030
       5 -> 33        -0.00064
       5 -> 38        -0.00045
       5 -> 39        -0.00028
       5 -> 43        -0.00054
       5 -> 46        -0.00055
       5 -> 49         0.00021
       6 -> 12         0.00136
       6 -> 16         0.00074
       6 -> 18         0.00382
       6 -> 22        -0.00270
       6 -> 24         0.00177
       6 -> 29        -0.00028
       6 -> 34        -0.00012
       6 -> 40         0.00012
       6 -> 42         0.00034
       6 -> 48         0.00037
       6 -> 51         0.00050
       7 -> 27         0.00053
       7 -> 37        -0.00023
       7 -> 45         0.00072
       8 -> 10         0.70516
       8 -> 11        -0.04603
       8 -> 14        -0.00068
       8 -> 15        -0.00982
       8 -> 19         0.01773
       8 -> 20         0.01033
       8 -> 21        -0.00530
       8 -> 25         0.00080
       8 -> 26        -0.00124
       8 -> 30         0.00051
       8 -> 32         0.00131
       8 -> 33         0.00211
       8 -> 38         0.00056
       8 -> 39         0.00054
       8 -> 41        -0.00016
       8 -> 43         0.00069
       8 -> 46        -0.00088
       8 -> 54         0.00017
       3 <- 12         0.00033
       3 <- 16         0.00047
       3 <- 18         0.00049
       3 <- 22        -0.00031
       3 <- 24         0.00085
       3 <- 29        -0.00012
       3 <- 35        -0.00023
       4 <- 12         0.00050
       4 <- 16         0.00131
       4 <- 18         0.00256
       4 <- 22        -0.00198
       4 <- 24         0.00276
       4 <- 34        -0.00056
       4 <- 35         0.00057
       4 <- 40        -0.00028
       4 <- 48        -0.00010
       5 <- 10         0.00243
       5 <- 11        -0.00016
       5 <- 14         0.00488
       5 <- 15        -0.00124
       5 <- 19         0.00073
       5 <- 20         0.00025
       5 <- 21         0.00224
       5 <- 25         0.00168
       5 <- 26        -0.00147
       5 <- 30         0.00072
       5 <- 32        -0.00052
       5 <- 33        -0.00062
       5 <- 38        -0.00040
       5 <- 39        -0.00017
       5 <- 41         0.00013
       5 <- 43        -0.00038
       5 <- 46        -0.00047
       5 <- 49         0.00020
       6 <- 12         0.00040
       6 <- 16        -0.00034
       6 <- 18         0.00174
       6 <- 22        -0.00098
       6 <- 24         0.00070
       6 <- 29         0.00042
       6 <- 34        -0.00019
       6 <- 35         0.00024
       6 <- 40         0.00010
       6 <- 42         0.00033
       6 <- 48         0.00031
       6 <- 51         0.00052
       6 <- 53         0.00010
       7 <- 27         0.00041
       7 <- 37        -0.00017
       7 <- 45         0.00062
       8 <- 10        -0.00287
       8 <- 11        -0.00087
       8 <- 14        -0.00877
       8 <- 15         0.00032
       8 <- 19        -0.00054
       8 <- 20        -0.00038
       8 <- 21        -0.00320
       8 <- 25        -0.00287
       8 <- 26        -0.00015
       8 <- 30        -0.00068
       8 <- 32         0.00020
       8 <- 33         0.00160
       8 <- 38         0.00057
       8 <- 39         0.00044
       8 <- 43         0.00054
       8 <- 46        -0.00060
       8 <- 49         0.00011
       8 <- 50         0.00013

 Excited State   3:      Singlet-B2     7.3165 eV  169.46 nm  f=0.0209  <S**2>=0.000
       3 -> 12        -0.00020
       3 -> 16        -0.00066
       3 -> 18         0.00051
       3 -> 22         0.00024
       3 -> 24         0.00033
       3 -> 29         0.00146
       3 -> 34         0.00014
       3 -> 35        -0.00034
       3 -> 40         0.00023
       3 -> 42         0.00026
       3 -> 48         0.00025
       3 -> 51         0.00027
       4 -> 12         0.00312
       4 -> 16        -0.00126
       4 -> 18         0.00333
       4 -> 22        -0.00156
       4 -> 24         0.00335
       4 -> 29        -0.00107
       4 -> 34         0.00054
       4 -> 35        -0.00038
       4 -> 42         0.00018
       4 -> 48         0.00018
       4 -> 51         0.00016
       5 -> 10        -0.00731
       5 -> 11         0.00033
       5 -> 14         0.00546
       5 -> 15        -0.00638
       5 -> 19        -0.00384
       5 -> 20        -0.00261
       5 -> 21         0.00102
       5 -> 25         0.00138
       5 -> 26         0.00079
       5 -> 30         0.00129
       5 -> 32        -0.00137
       5 -> 33        -0.00115
       5 -> 39         0.00049
       5 -> 41        -0.00086
       5 -> 46         0.00076
       5 -> 49        -0.00034
       5 -> 50        -0.00033
       6 -> 12        -0.00323
       6 -> 16        -0.00177
       6 -> 18        -0.00163
       6 -> 22         0.00147
       6 -> 29         0.00047
       6 -> 34        -0.00041
       6 -> 35         0.00143
       6 -> 40        -0.00076
       6 -> 42        -0.00049
       6 -> 48        -0.00077
       6 -> 51        -0.00068
       6 -> 53         0.00013
       7 -> 27        -0.00051
       7 -> 37        -0.00118
       7 -> 45        -0.00140
       8 -> 10         0.04666
       8 -> 11         0.70462
       8 -> 14        -0.01236
       8 -> 15         0.01759
       8 -> 19        -0.02349
       8 -> 20         0.01252
       8 -> 21        -0.00206
       8 -> 25         0.00044
       8 -> 26         0.00130
       8 -> 30        -0.00101
       8 -> 32        -0.00025
       8 -> 33         0.00032
       8 -> 41        -0.00141
       8 -> 46         0.00116
       8 -> 49        -0.00068
       8 -> 50        -0.00051
       8 -> 54        -0.00017
       3 <- 12         0.00031
       3 <- 16        -0.00031
       3 <- 18         0.00072
       3 <- 24         0.00042
       3 <- 29         0.00090
       3 <- 34         0.00021
       3 <- 35        -0.00039
       3 <- 40         0.00021
       3 <- 42         0.00023
       3 <- 48         0.00020
       3 <- 51         0.00016
       3 <- 53        -0.00023
       4 <- 12         0.00035
       4 <- 16         0.00040
       4 <- 18         0.00100
       4 <- 22        -0.00121
       4 <- 24         0.00140
       4 <- 29        -0.00045
       4 <- 34         0.00050
       4 <- 42         0.00021
       4 <- 48         0.00012
       4 <- 51         0.00021
       5 <- 10         0.00132
       5 <- 11        -0.00074
       5 <- 14         0.00218
       5 <- 15        -0.00046
       5 <- 19         0.00074
       5 <- 21         0.00091
       5 <- 25         0.00109
       5 <- 26         0.00065
       5 <- 30         0.00076
       5 <- 32         0.00013
       5 <- 33        -0.00125
       5 <- 38         0.00017
       5 <- 39         0.00025
       5 <- 41        -0.00088
       5 <- 46         0.00071
       5 <- 49        -0.00021
       5 <- 50        -0.00032
       6 <- 12        -0.00035
       6 <- 16        -0.00017
       6 <- 18        -0.00024
       6 <- 22         0.00044
       6 <- 29         0.00012
       6 <- 34        -0.00021
       6 <- 35         0.00106
       6 <- 40        -0.00056
       6 <- 42        -0.00034
       6 <- 48        -0.00065
       6 <- 51        -0.00058
       7 <- 27        -0.00012
       7 <- 37        -0.00095
       7 <- 45        -0.00119
       8 <- 10        -0.00091
       8 <- 11         0.00046
       8 <- 14        -0.00457
       8 <- 15         0.00069
       8 <- 19         0.00281
       8 <- 20        -0.00146
       8 <- 21        -0.00218
       8 <- 26         0.00147
       8 <- 30        -0.00058
       8 <- 32         0.00127
       8 <- 38        -0.00018
       8 <- 39        -0.00018
       8 <- 41        -0.00119
       8 <- 46         0.00094
       8 <- 49        -0.00041
       8 <- 50        -0.00042

 Excited State   4:      Singlet-A1     7.4623 eV  166.15 nm  f=0.0537  <S**2>=0.000
       3 -> 10         0.00160
       3 -> 11        -0.00101
       3 -> 14         0.00048
       3 -> 15        -0.00039
       3 -> 19         0.00097
       3 -> 20         0.00099
       3 -> 21         0.00025
       3 -> 25        -0.00016
       3 -> 26        -0.00066
       3 -> 30         0.00121
       3 -> 32        -0.00033
       3 -> 33        -0.00028
       3 -> 38        -0.00031
       3 -> 39         0.00014
       3 -> 41        -0.00020
       3 -> 50        -0.00037
       3 -> 54        -0.00021
       4 -> 10         0.00539
       4 -> 11         0.00820
       4 -> 14         0.00583
       4 -> 15        -0.00032
       4 -> 19         0.00053
       4 -> 20         0.00561
       4 -> 21         0.00238
       4 -> 25         0.00714
       4 -> 26        -0.00092
       4 -> 30        -0.00051
       4 -> 33        -0.00081
       4 -> 39        -0.00035
       4 -> 41         0.00020
       4 -> 43         0.00014
       4 -> 46        -0.00026
       4 -> 49        -0.00021
       5 -> 12         0.00762
       5 -> 16        -0.00089
       5 -> 18         0.01158
       5 -> 22        -0.00095
       5 -> 24         0.00500
       5 -> 29         0.00021
       5 -> 34        -0.00016
       5 -> 35         0.00084
       5 -> 42         0.00012
       5 -> 51        -0.00034
       5 -> 53        -0.00015
       6 -> 10         0.01333
       6 -> 11        -0.00418
       6 -> 14         0.00411
       6 -> 15         0.00152
       6 -> 19         0.00513
       6 -> 20         0.00439
       6 -> 21         0.00179
       6 -> 25         0.00245
       6 -> 26        -0.00056
       6 -> 30        -0.00088
       6 -> 32         0.00057
       6 -> 33        -0.00060
       6 -> 43         0.00012
       6 -> 49        -0.00026
       6 -> 50         0.00055
       7 ->  9         0.01146
       7 -> 13         0.00721
       7 -> 17         0.00456
       7 -> 23         0.00501
       7 -> 31         0.00085
       7 -> 36         0.00055
       7 -> 44         0.00064
       7 -> 47        -0.00036
       7 -> 52        -0.00010
       8 -> 12         0.70569
       8 -> 16        -0.02361
       8 -> 18         0.02665
       8 -> 22         0.00520
       8 -> 24         0.00210
       8 -> 29         0.00169
       8 -> 34         0.00151
       8 -> 35        -0.00218
       8 -> 40        -0.00057
       8 -> 42        -0.00082
       8 -> 48        -0.00036
       8 -> 51        -0.00028
       8 -> 53        -0.00019
       3 <- 10         0.00058
       3 <- 11        -0.00023
       3 <- 14         0.00030
       3 <- 15        -0.00011
       3 <- 19         0.00043
       3 <- 20         0.00045
       3 <- 21         0.00026
       3 <- 25         0.00013
       3 <- 26        -0.00036
       3 <- 30         0.00075
       3 <- 32        -0.00028
       3 <- 33        -0.00013
       3 <- 38        -0.00025
       3 <- 39         0.00012
       3 <- 41        -0.00017
       3 <- 46         0.00016
       3 <- 50        -0.00032
       3 <- 54        -0.00019
       4 <- 10         0.00502
       4 <- 11         0.00235
       4 <- 14         0.00427
       4 <- 15        -0.00072
       4 <- 19         0.00039
       4 <- 20         0.00318
       4 <- 21         0.00097
       4 <- 25         0.00406
       4 <- 26        -0.00053
       4 <- 32        -0.00024
       4 <- 33        -0.00102
       4 <- 38        -0.00012
       4 <- 39        -0.00037
       4 <- 46        -0.00024
       4 <- 49        -0.00018
       5 <- 12         0.00277
       5 <- 16         0.00121
       5 <- 18         0.00433
       5 <- 22        -0.00014
       5 <- 24         0.00271
       5 <- 34        -0.00033
       5 <- 35         0.00077
       5 <- 42         0.00011
       5 <- 51        -0.00024
       5 <- 53        -0.00014
       6 <- 10         0.00383
       6 <- 11        -0.00059
       6 <- 14         0.00176
       6 <- 15         0.00050
       6 <- 19         0.00187
       6 <- 20         0.00225
       6 <- 21         0.00069
       6 <- 25         0.00132
       6 <- 26        -0.00058
       6 <- 30        -0.00046
       6 <- 32         0.00034
       6 <- 33        -0.00052
       6 <- 39        -0.00016
       6 <- 41         0.00015
       6 <- 49        -0.00015
       6 <- 50         0.00051
       7 <-  9         0.00207
       7 <- 13         0.00213
       7 <- 17         0.00161
       7 <- 23         0.00269
       7 <- 31         0.00061
       7 <- 36         0.00044
       7 <- 44         0.00053
       7 <- 47        -0.00031
       8 <- 12        -0.00195
       8 <- 16        -0.00806
       8 <- 18        -0.00372
       8 <- 22         0.00065
       8 <- 24        -0.00230
       8 <- 29         0.00036
       8 <- 34         0.00087
       8 <- 35        -0.00127
       8 <- 40        -0.00052
       8 <- 42        -0.00069
       8 <- 48        -0.00042
       8 <- 51        -0.00023
       8 <- 53        -0.00020

 Excited State   5:      Singlet-A2     7.9776 eV  155.41 nm  f=0.0000  <S**2>=0.000
       3 -> 27        -0.00079
       3 -> 37        -0.00071
       3 -> 45        -0.00041
       4 -> 37         0.00058
       4 -> 45         0.00012
       5 ->  9        -0.00962
       5 -> 13         0.00018
       5 -> 17         0.00544
       5 -> 23        -0.00100
       5 -> 31        -0.00187
       5 -> 36        -0.00141
       5 -> 44        -0.00025
       5 -> 52        -0.00017
       6 -> 27         0.00018
       6 -> 37         0.00028
       6 -> 45        -0.00043
       7 -> 12        -0.00051
       7 -> 16        -0.00183
       7 -> 18         0.00169
       7 -> 22        -0.00077
       7 -> 24        -0.00021
       7 -> 29         0.00017
       7 -> 35        -0.00020
       7 -> 40         0.00013
       7 -> 42         0.00010
       7 -> 48        -0.00015
       7 -> 53        -0.00010
       8 ->  9         0.08186
       8 -> 13         0.70190
       8 -> 17         0.01151
       8 -> 23         0.01951
       8 -> 28        -0.00026
       8 -> 31        -0.00127
       8 -> 47         0.00018
       8 -> 52        -0.00023
       3 <- 27        -0.00035
       3 <- 37        -0.00053
       3 <- 45        -0.00050
       4 <- 27        -0.00037
       4 <- 45         0.00012
       5 <-  9        -0.00025
       5 <- 13        -0.00023
       5 <- 17         0.00063
       5 <- 36        -0.00035
       6 <- 27        -0.00010
       6 <- 37         0.00022
       6 <- 45        -0.00014
       7 <- 12        -0.00065
       7 <- 16        -0.00070
       7 <- 18         0.00063
       7 <- 22        -0.00146
       7 <- 24        -0.00028
       7 <- 29         0.00016
       7 <- 34         0.00049
       7 <- 35        -0.00083
       7 <- 40         0.00034
       7 <- 42         0.00035
       7 <- 53        -0.00018
       8 <-  9         0.00361
       8 <- 13         0.00132
       8 <- 17         0.00026
       8 <- 23        -0.00030
       8 <- 28         0.00010
       8 <- 31        -0.00023
       8 <- 36         0.00032
       8 <- 52        -0.00011

 Excited State   6:      Singlet-B2    10.2521 eV  120.94 nm  f=0.2082  <S**2>=0.000
       3 -> 12        -0.00036
       3 -> 16        -0.00197
       3 -> 18         0.00052
       3 -> 22         0.00145

 The electronic state is 1-A1.
 Alpha  occ. eigenvalues --  -19.14176 -10.25366  -1.16782  -0.62121  -0.54150
 Alpha  occ. eigenvalues --   -0.48857  -0.47264  -0.26677
 Alpha virt. eigenvalues --   -0.02221   0.01193   0.04200   0.04353   0.07050
 Alpha virt. eigenvalues --    0.13616   0.18162   0.19596   0.22010   0.22641
 Alpha virt. eigenvalues --    0.27073   0.35348   0.48736   0.49751   0.51293

 Mulliken charges:
               1
     1  C    0.079436
     2  H    0.064597
     3  H    0.064597
     4  O   -0.208630
 Sum of Mulliken charges =  -0.00000

 Dipole moment (field-independent basis, Debye):
    X=             -0.0000    Y=              0.0000    Z=             -1.6490  Tot=              1.6490
 Quadrupole moment (field-independent basis, Debye-Ang):
   XX=            -11.2773   YY=            -11.8943   ZZ=            -12.8304
   XY=              0.0000   XZ=              0.0000   YZ=              0.0000

 Normal termination of Gaussian 16 at Fri Sep 17 10:52:37 2021.
