 Gaussian 16, Revision C.01,
 Gaussian 16:  ES64L-G16RevC.01  3-Jul-2019

 ---------------------------------------
 #P wB97XD/6-311+G* NoSymm #P Field=X-97
 ---------------------------------------

 -------
 TitleMe
 -------
 Symbolic Z-matrix:
 Charge =  1 Multiplicity = 1

                          Input orientation:
 ---------------------------------------------------------------------
 Center     Atomic      Atomic             Coordinates (Angstroms)
 Number     Number       Type             X           Y           Z
 ---------------------------------------------------------------------
      1          6           0        0.519300    1.233000   -0.031900
      2          6           0        1.944500    1.269200   -0.036700
      3          6           0        2.620400    0.092800   -0.025000
      4          6           0       -0.196000    0.030100    0.001000
      5          1           0       -0.020700    2.174200   -0.043400
      6          1           0        2.482800    2.208900   -0.036100
      7          1           0       -1.277700    0.039900    0.011700
      8          7           0        4.092100    0.095900    0.036600
      9          8           0        4.639300   -1.021700    0.144600
     10          8           0        4.664900    1.198400   -0.023300
     11          6           0        0.494300   -1.167100    0.021000
     12          1           0       -0.032500   -2.114900    0.054500
     13          6           0        1.962900   -1.216500   -0.021100
     14          1           0        2.443600   -1.963100    0.615100
     15         35           0        2.173000   -1.949100   -1.906200
 ---------------------------------------------------------------------

 SCF Done:  E(RwB97XD) =  -3010.54780323     A.U. after   23 cycles

 Alpha  occ. eigenvalues -- -483.27749 -62.82758 -56.62461 -56.61882 -56.61867
 Alpha  occ. eigenvalues --  -19.40186 -19.40137 -14.79725 -10.55712 -10.54552
 Alpha  occ. eigenvalues --  -10.54502 -10.54266 -10.50558 -10.49648  -8.98554
 Alpha  occ. eigenvalues --   -6.81257  -6.79359  -6.79313  -2.91155  -2.90660
 Alpha  occ. eigenvalues --   -2.90623  -2.89104  -2.89103  -1.43893  -1.26782
 Alpha  occ. eigenvalues --   -1.19159  -1.09716  -1.08913  -1.01319  -0.96421
 Alpha  occ. eigenvalues --   -0.92254  -0.87218  -0.81073  -0.76963  -0.75891
 Alpha  occ. eigenvalues --   -0.75361  -0.74222  -0.72284  -0.70323  -0.68674
 Alpha  occ. eigenvalues --   -0.65831  -0.64413  -0.60398  -0.56374  -0.52695
 Alpha  occ. eigenvalues --   -0.51996  -0.51057  -0.49743  -0.49462
 Alpha virt. eigenvalues --   -0.26826  -0.16155  -0.12121  -0.09298  -0.08935
 Alpha virt. eigenvalues --   -0.06113  -0.04535  -0.03158  -0.02383  -0.01140
 Alpha virt. eigenvalues --   -0.00128   0.00596   0.01425   0.02367   0.03645

 Mulliken charges:
               1
     1  C   -0.101056
     2  C    0.170596
     3  C   -0.018669
     4  C   -0.325238
     5  H    0.319966
     6  H    0.362512
     7  H    0.282270
     8  N   -0.242459
     9  O    0.125951
    10  O    0.116431
    11  C   -0.250771
    12  H    0.332319
    13  C   -0.401173
    14  H    0.423388
    15  Br   0.205934
 Sum of Mulliken charges =   1.00000

 Dipole moment (field-independent basis, Debye):
    X=              5.5572    Y=             -1.0497    Z=             -0.8925  Tot=              5.7255
 Quadrupole moment (field-independent basis, Debye-Ang):
   XX=            -57.1676   YY=            -50.9828   ZZ=            -61.8849
   XY=             -3.6311   XZ=             -3.3343   YZ=              2.7954

 Normal termination of Gaussian 16 at Thu May  2 14:22:15 2024.
