 Gaussian 16, Revision A.03,
 Gaussian 16:  ES64L-G16RevA.03 25-Dec-2016

 --------------------------------------------------------------------
 #p B3LYP/6-311+G** #p TD=(singlets,nstates=30)IOp(6/8=3) IOp(9/40=4)
 --------------------------------------------------------------------

 -------------------------------
 Scan Step 298, Bond Length 1.99
 -------------------------------
 Symbolic Z-matrix:
 Charge =  0 Multiplicity = 1

                         Standard orientation:
 ---------------------------------------------------------------------
 Center     Atomic      Atomic             Coordinates (Angstroms)
 Number     Number       Type             X           Y           Z
 ---------------------------------------------------------------------
      1          6           0        0.000000    0.000000   -0.921081
      2          1           0        0.000000    0.937260   -1.512431
      3          1           0       -0.000000   -0.937260   -1.512431
      4          8           0        0.000000   -0.000000    1.068919
 ---------------------------------------------------------------------

 SCF Done:  E(RB3LYP) =  -114.299138065     A.U. after   13 cycles

 Excitation energies and oscillator strengths:

 Excited State   1:      Singlet-A2     0.9921 eV 1249.77 nm  f=0.0000  <S**2>=0.000
       3 -> 27         0.00053
       3 -> 38         0.00029
       3 -> 47         0.00323
       4 -> 27         0.00025
       4 -> 47        -0.00072
       5 ->  9        -0.00042
       5 -> 14         0.00101
       5 -> 18         0.00117
       5 -> 23         0.00111
       5 -> 28         0.00082
       5 -> 37         0.00051
       5 -> 44         0.00015
       5 -> 52         0.00011
       6 -> 27        -0.00049
       6 -> 38        -0.00044
       6 -> 47         0.00072
       7 -> 12        -0.00150
       7 -> 16         0.00540
       7 -> 19        -0.00504
       7 -> 22        -0.00112
       7 -> 25        -0.00038
       7 -> 30        -0.00209
       7 -> 33         0.00024
       7 -> 49         0.00012
       7 -> 53         0.00034
       8 ->  9         0.71251
       8 -> 14        -0.00438
       8 -> 18         0.01997
       8 -> 23        -0.00013
       8 -> 28         0.00949
       8 -> 31         0.00151
       8 -> 37         0.00044
       8 -> 46        -0.00026
       8 -> 52         0.00175
       3 <- 47         0.00325
       4 <- 27         0.00050
       4 <- 38         0.00014
       4 <- 47        -0.00054
       5 <-  9         0.00071
       5 <- 14        -0.00024
       5 <- 18        -0.00023
       5 <- 23         0.00012
       5 <- 28        -0.00020
       5 <- 31         0.00017
       5 <- 37         0.00029
       6 <- 38        -0.00031
       6 <- 47         0.00050
       7 <- 12         0.00243
       7 <- 16        -0.01034
       7 <- 19         0.00650
       7 <- 22         0.00475
       7 <- 25        -0.00062
       7 <- 30         0.00565
       7 <- 33        -0.00033
       7 <- 49        -0.00045
       7 <- 53         0.00141
       8 <-  9        -0.08922
       8 <- 14        -0.00086
       8 <- 18        -0.00811
       8 <- 23        -0.00052
       8 <- 28        -0.00281
       8 <- 31        -0.00086
       8 <- 37        -0.00012
       8 <- 46         0.00013
       8 <- 52         0.00039
 This state for optimization and/or second-order correction.
 Total Energy, E(TD-HF/TD-DFT) =  -114.262680791
 Copying the excited state density for this state as the 1-particle RhoCI density.

 Excited State   2:      Singlet-B2     2.4654 eV  502.90 nm  f=0.0010  <S**2>=0.000
       3 -> 12        -0.00093
       3 -> 16         0.00068
       3 -> 19        -0.00310
       3 -> 22         0.00113
       3 -> 25        -0.00086
       3 -> 30        -0.00200
       3 -> 33         0.00038
       3 -> 36         0.00087
       3 -> 40        -0.00096
       3 -> 42        -0.00018
       3 -> 49        -0.00412
       3 -> 51         0.00013
       3 -> 53         0.00020
       4 -> 12         0.00027
       4 -> 16        -0.00100
       4 -> 19         0.00021
       4 -> 22         0.00128
       4 -> 25         0.00033
       4 -> 30         0.00055
       4 -> 33        -0.00024
       4 -> 36         0.00036
       4 -> 40         0.00017
       4 -> 49         0.00070
       5 -> 10         0.00810
       5 -> 11         0.00071
       5 -> 13        -0.00166
       5 -> 15         0.00211
       5 -> 17        -0.00051
       5 -> 20         0.00169
       5 -> 21         0.00194
       5 -> 24         0.00114
       5 -> 29        -0.00190
       5 -> 32        -0.00042
       5 -> 39         0.00044
       5 -> 41         0.00029
       5 -> 48        -0.00022
       5 -> 50         0.00015
       5 -> 54        -0.00014
       6 -> 12         0.00231
       6 -> 16        -0.00296
       6 -> 19         0.00445
       6 -> 22        -0.00072
       6 -> 25         0.00115
       6 -> 30         0.00063
       6 -> 33        -0.00026
       6 -> 36        -0.00087
       6 -> 40         0.00051
       6 -> 42         0.00046
       6 -> 49         0.00080
       6 -> 53        -0.00043
       7 -> 27        -0.00038
       7 -> 38         0.00020
       7 -> 47         0.00241
       8 -> 10         0.70813
       8 -> 11         0.03654
       8 -> 13        -0.03417
       8 -> 15        -0.01547
       8 -> 17        -0.01646
       8 -> 20         0.00799
       8 -> 21         0.00391
       8 -> 24        -0.00439
       8 -> 26        -0.00307
       8 -> 29        -0.01382
       8 -> 32         0.00260
       8 -> 34        -0.00079
       8 -> 35         0.00200
       8 -> 39         0.00011
       8 -> 41        -0.00016
       8 -> 45        -0.00071
       8 -> 48        -0.00292
       8 -> 50         0.00090
       8 -> 54        -0.00253
       3 <- 12        -0.00031
       3 <- 16         0.00028
       3 <- 19        -0.00158
       3 <- 22         0.00082
       3 <- 25        -0.00078
       3 <- 30        -0.00083
       3 <- 33         0.00035
       3 <- 36         0.00049
       3 <- 40        -0.00083
       3 <- 49        -0.00416
       3 <- 51         0.00013
       3 <- 53         0.00059
       4 <- 12         0.00012
       4 <- 16        -0.00138
       4 <- 19         0.00019
       4 <- 22         0.00170
       4 <- 25         0.00012
       4 <- 30         0.00087
       4 <- 33        -0.00023
       4 <- 36         0.00050
       4 <- 49         0.00048
       5 <- 10        -0.00098
       5 <- 11        -0.00034
       5 <- 13        -0.00029
       5 <- 15         0.00179
       5 <- 17         0.00018
       5 <- 20         0.00072
       5 <- 21         0.00125
       5 <- 24         0.00121
       5 <- 29        -0.00043
       5 <- 32        -0.00017
       5 <- 39         0.00024
       5 <- 41         0.00031
       5 <- 45        -0.00014
       5 <- 48        -0.00025
       6 <- 12        -0.00134
       6 <- 16         0.00865
       6 <- 19        -0.00527
       6 <- 22        -0.00518
       6 <- 25         0.00144
       6 <- 30        -0.00637
       6 <- 33         0.00011
       6 <- 36        -0.00063
       6 <- 40         0.00048
       6 <- 42         0.00039
       6 <- 49         0.00136
       6 <- 53        -0.00146
       7 <- 27        -0.00040
       7 <- 38         0.00016
       7 <- 47         0.00212
       8 <- 10        -0.06778
       8 <- 11        -0.00687
       8 <- 13         0.00631
       8 <- 15         0.00229
       8 <- 17         0.00330
       8 <- 20        -0.00394
       8 <- 21        -0.00074
       8 <- 24         0.00124
       8 <- 26         0.00066
       8 <- 29         0.00344
       8 <- 32         0.00152
       8 <- 34         0.00070
       8 <- 35        -0.00100
       8 <- 39        -0.00062
       8 <- 41         0.00011
       8 <- 43         0.00021
       8 <- 45        -0.00128
       8 <- 48        -0.00249
       8 <- 50         0.00098
       8 <- 54        -0.00063

 Excited State   3:      Singlet-A1     2.5632 eV  483.70 nm  f=0.0166  <S**2>=0.000
       3 -> 10        -0.01026
       3 -> 11        -0.00160
       3 -> 13        -0.00038
       3 -> 17        -0.00272
       3 -> 20        -0.00291
       3 -> 21         0.00078
       3 -> 24        -0.00014
       3 -> 26         0.00036
       3 -> 29         0.00032
       3 -> 32         0.00238
       3 -> 34         0.00086
       3 -> 35        -0.00083
       3 -> 39        -0.00020
       3 -> 43         0.00036
       3 -> 45        -0.00143
       3 -> 48         0.00231
       3 -> 50         0.00171
       3 -> 54        -0.00016
       4 -> 10         0.00081
       4 -> 11         0.00808
       4 -> 13         0.00095
       4 -> 15        -0.00637
       4 -> 17         0.00170
       4 -> 20         0.00105
       4 -> 21         0.00013
       4 -> 24        -0.00339
       4 -> 26         0.00222
       4 -> 32        -0.00086
       4 -> 34        -0.00054
       4 -> 39        -0.00032
       4 -> 43        -0.00036
       4 -> 45         0.00070
       4 -> 48        -0.00057
       4 -> 50        -0.00018
       4 -> 54         0.00011
       5 -> 12         0.00657
       5 -> 16         0.00032
       5 -> 19         0.00081
       5 -> 22         0.00568
       5 -> 25        -0.00292
       5 -> 30         0.00028
       5 -> 33        -0.00209
       5 -> 36         0.00266
       5 -> 40        -0.00081
       5 -> 42        -0.00095
       5 -> 51        -0.00093
       6 -> 10         0.27094
       6 -> 11         0.02344
       6 -> 13        -0.02377
       6 -> 15        -0.01544
       6 -> 17        -0.01331
       6 -> 20         0.00059
       6 -> 21         0.00266
       6 -> 24        -0.00548
       6 -> 26        -0.00172
       6 -> 29        -0.00098
       6 -> 32         0.00482
       6 -> 34         0.00134
       6 -> 35         0.00091
       6 -> 39        -0.00165
       6 -> 43         0.00072
       6 -> 45        -0.00104
       6 -> 48         0.00060
       6 -> 50         0.00036
       6 -> 54        -0.00099
       7 ->  9         0.67117
       7 -> 14        -0.00868
       7 -> 18        -0.00704
       7 -> 23        -0.00331
       7 -> 28         0.00195
       7 -> 31        -0.00330
       7 -> 37         0.00135
       7 -> 44        -0.00094
       7 -> 52         0.00103
       8 -> 12        -0.00648
       8 -> 16         0.02489
       8 -> 19        -0.01524
       8 -> 22        -0.00756
       8 -> 30        -0.00617
       8 -> 33         0.00065
       8 -> 36        -0.00027
       8 -> 42         0.00010
       8 -> 49        -0.00016
       8 -> 51         0.00010
       8 -> 53        -0.00045
       3 <- 10        -0.00882
       3 <- 11        -0.00169
       3 <- 13        -0.00041
       3 <- 15        -0.00047
       3 <- 17        -0.00166
       3 <- 20        -0.00274
       3 <- 21         0.00039
       3 <- 24        -0.00051
       3 <- 26        -0.00034
       3 <- 29         0.00054
       3 <- 32         0.00198
       3 <- 34         0.00044
       3 <- 35        -0.00093
       3 <- 39        -0.00011
       3 <- 43         0.00037
       3 <- 45        -0.00150
       3 <- 48         0.00230
       3 <- 50         0.00172
       4 <- 10         0.00172
       4 <- 11         0.00648
       4 <- 13         0.00101
       4 <- 15        -0.00473
       4 <- 17         0.00112
       4 <- 20         0.00173
       4 <- 24        -0.00274
       4 <- 26         0.00210
       4 <- 29        -0.00039
       4 <- 32        -0.00079
       4 <- 34        -0.00047
       4 <- 35         0.00013
       4 <- 39        -0.00037
       4 <- 41         0.00010
       4 <- 43        -0.00033
       4 <- 45         0.00060
       4 <- 48        -0.00033
       5 <- 12         0.00453
       5 <- 16         0.00031
       5 <- 19         0.00072
       5 <- 22         0.00441
       5 <- 25        -0.00244
       5 <- 30         0.00029
       5 <- 33        -0.00182
       5 <- 36         0.00237
       5 <- 40        -0.00076
       5 <- 42        -0.00086
       5 <- 51        -0.00089
       6 <- 10         0.09788
       6 <- 11         0.01132
       6 <- 13        -0.01305
       6 <- 15        -0.00932
       6 <- 17        -0.00895
       6 <- 20        -0.00093
       6 <- 21         0.00216
       6 <- 24        -0.00379
       6 <- 26        -0.00060
       6 <- 32         0.00446
       6 <- 34         0.00149
       6 <- 35         0.00047
       6 <- 39        -0.00149
       6 <- 43         0.00063
       6 <- 45        -0.00076
       6 <- 48         0.00033
       6 <- 50         0.00022
       6 <- 54        -0.00093
       7 <-  9        -0.12712
       7 <- 14         0.00136
       7 <- 18        -0.00966
       7 <- 23        -0.00040
       7 <- 28        -0.00080
       7 <- 31        -0.00154
       7 <- 37         0.00066
       7 <- 44        -0.00089
       7 <- 46        -0.00048
       7 <- 52         0.00098
       8 <- 12        -0.00339
       8 <- 16         0.01472
       8 <- 19        -0.01011
       8 <- 22        -0.00553
       8 <- 25         0.00011
       8 <- 30        -0.00522
       8 <- 33         0.00053
       8 <- 36        -0.00020
       8 <- 49        -0.00026
       8 <- 53        -0.00043

 Excited State   4:      Singlet-B1     2.7390 eV  452.66 nm  f=0.0003  <S**2>=0.000
       3 ->  9        -0.01494
       3 -> 14         0.00036
       3 -> 18        -0.00304
       3 -> 23         0.00095
       3 -> 28        -0.00145
       3 -> 31        -0.00113
       3 -> 37         0.00015
       3 -> 46        -0.00191
       3 -> 52         0.00037
       4 ->  9        -0.00663
       4 -> 14         0.00111
       4 -> 18         0.00024
       4 -> 23         0.00091
       4 -> 28         0.00059
       4 -> 31        -0.00061
       4 -> 46         0.00025
       5 -> 27        -0.00233
       5 -> 38        -0.00041
       5 -> 47         0.00024
       6 ->  9         0.37990
       6 -> 14        -0.01046
       6 -> 18         0.01039
       6 -> 23        -0.00655
       6 -> 28         0.00369
       6 -> 31        -0.00010
       6 -> 37         0.00012
       6 -> 44        -0.00063
       6 -> 46         0.00171
       6 -> 52         0.00016
       7 -> 10         0.60318
       7 -> 11         0.03158
       7 -> 13        -0.03092
       7 -> 15        -0.01616
       7 -> 17        -0.01332
       7 -> 20         0.00512
       7 -> 21         0.00233
       7 -> 24        -0.00619
       7 -> 26        -0.00429
       7 -> 29        -0.00903
       7 -> 32         0.00224
       7 -> 34        -0.00100
       7 -> 35         0.00090
       7 -> 41        -0.00012
       7 -> 43         0.00041
       7 -> 45        -0.00114
       7 -> 48         0.00253
       7 -> 50         0.00071
       7 -> 54        -0.00138
       8 -> 27         0.00012
       8 -> 47         0.00307
       3 <-  9        -0.00499
       3 <- 14        -0.00035
       3 <- 18        -0.00193
       3 <- 28        -0.00096
       3 <- 31        -0.00058
       3 <- 44        -0.00025
       3 <- 46        -0.00187
       3 <- 52         0.00056
       4 <-  9        -0.00334
       4 <- 14         0.00100
       4 <- 18         0.00093
       4 <- 23         0.00083
       4 <- 28         0.00124
       4 <- 31        -0.00047
       4 <- 44        -0.00037
       4 <- 46         0.00011
       5 <- 27        -0.00220
       5 <- 38        -0.00031
       5 <- 47         0.00024
       6 <-  9        -0.07011
       6 <- 14         0.00231
       6 <- 18        -0.00723
       6 <- 23         0.00104
       6 <- 28        -0.00415
       6 <- 31        -0.00277
       6 <- 37         0.00043
       6 <- 44         0.00057
       6 <- 46         0.00178
       6 <- 52        -0.00093
       7 <- 10        -0.07755
       7 <- 11        -0.00793
       7 <- 13         0.00981
       7 <- 15         0.00426
       7 <- 17         0.00401
       7 <- 20        -0.00137
       7 <- 21        -0.00239
       7 <- 24         0.00213
       7 <- 26         0.00146
       7 <- 29         0.00250
       7 <- 34        -0.00018
       7 <- 35        -0.00058
       7 <- 39        -0.00024
       7 <- 41         0.00023
       7 <- 43         0.00021
       7 <- 45        -0.00082
       7 <- 48         0.00233
       7 <- 50         0.00103
       8 <- 27         0.00035
       8 <- 47         0.00278

 Excited State   5:      Singlet-B1     3.3700 eV  367.91 nm  f=0.0047  <S**2>=0.000
       3 ->  9        -0.00845
       3 -> 14         0.00035
       3 -> 18        -0.00024
       3 -> 23         0.00032
       3 -> 28         0.00133
       3 -> 31         0.00060
       3 -> 44         0.00048
       3 -> 46         0.00302
       3 -> 52         0.00047
       4 ->  9         0.02736
       4 -> 14        -0.00558
       4 -> 18        -0.00046
       4 -> 23        -0.00446
       4 -> 28        -0.00012
       4 -> 31        -0.00095
       4 -> 37        -0.00033
       4 -> 44         0.00038
       4 -> 46        -0.00085
       4 -> 52        -0.00020
       5 -> 27         0.00517
       5 -> 38         0.00377
       6 ->  9         0.59980
       6 -> 14        -0.01173
       6 -> 18         0.00576
       6 -> 23        -0.00764
       6 -> 28        -0.00084
       6 -> 31         0.00453
       6 -> 37        -0.00290
       6 -> 44        -0.00149
       6 -> 46         0.00210
       6 -> 52         0.00108
       7 -> 10        -0.37321
       7 -> 11        -0.01393
       7 -> 13         0.01492
       7 -> 15         0.01433
       7 -> 17         0.00238
       7 -> 20         0.00249
       7 -> 21        -0.00054
       7 -> 24         0.00476
       7 -> 26         0.00202
       7 -> 29         0.00432
       7 -> 34         0.00286
       7 -> 35         0.00150
       7 -> 39        -0.00056
       7 -> 43        -0.00018
       7 -> 45         0.00028
       7 -> 48         0.00124
       7 -> 50         0.00063
       7 -> 54         0.00128
       8 -> 27        -0.00036
       8 -> 38        -0.00015
       8 -> 47         0.00144
       3 <-  9        -0.00268
       3 <- 14        -0.00099
       3 <- 18        -0.00057
       3 <- 23        -0.00063
       3 <- 28         0.00109
       3 <- 31        -0.00035
       3 <- 37         0.00034
       3 <- 44         0.00045
       3 <- 46         0.00310
       3 <- 52         0.00017
       4 <-  9         0.01547
       4 <- 14        -0.00300
       4 <- 18         0.00043
       4 <- 23        -0.00304
       4 <- 28         0.00012
       4 <- 31        -0.00075
       4 <- 37        -0.00028
       4 <- 44         0.00038
       4 <- 46        -0.00054
       4 <- 52        -0.00014
       5 <- 27         0.00382
       5 <- 38         0.00329
       6 <- 14         0.00199
       6 <- 18        -0.00012
       6 <- 23        -0.00016
       6 <- 28        -0.00220
       6 <- 31         0.00444
       6 <- 37        -0.00274
       6 <- 44        -0.00083
       6 <- 46         0.00136
       6 <- 52         0.00100
       7 <- 10        -0.02046
       7 <- 11        -0.00301
       7 <- 13         0.00537
       7 <- 15         0.00841
       7 <- 17         0.00145
       7 <- 20         0.00472
       7 <- 21        -0.00050
       7 <- 24         0.00423
       7 <- 26         0.00134
       7 <- 29         0.00119
       7 <- 32        -0.00121
       7 <- 34         0.00209
       7 <- 35         0.00221
       7 <- 39        -0.00032
       7 <- 43        -0.00030
       7 <- 45         0.00045
       7 <- 48         0.00129
       7 <- 50         0.00095
       7 <- 54         0.00114
       8 <- 47         0.00157

 Excited State   6:      Singlet-A2     6.6465 eV  186.54 nm  f=0.0000  <S**2>=0.000
       3 -> 27        -0.00088
       3 -> 38        -0.00022
       4 -> 27        -0.00606
       4 -> 38         0.00045
       4 -> 47        -0.00015
       5 ->  9         0.70640

 The electronic state is 1-A1.
 Alpha  occ. eigenvalues --  -19.17820 -10.34446  -0.87812  -0.72247  -0.49571
 Alpha  occ. eigenvalues --   -0.37142  -0.29622  -0.28473
 Alpha virt. eigenvalues --   -0.18435  -0.11314  -0.00388   0.04019   0.06013
 Alpha virt. eigenvalues --    0.06079   0.11394   0.12740   0.18517   0.20776
 Alpha virt. eigenvalues --    0.23830   0.30390   0.38474   0.38940   0.50307

 Mulliken charges:
               1
     1  C   -0.114032
     2  H    0.195483
     3  H    0.195483
     4  O   -0.276935
 Sum of Mulliken charges =  -0.00000

 Dipole moment (field-independent basis, Debye):
    X=             -0.0000    Y=              0.0000    Z=             -4.4322  Tot=              4.4322
 Quadrupole moment (field-independent basis, Debye-Ang):
   XX=            -13.1438   YY=            -12.1357   ZZ=            -10.1713
   XY=              0.0000   XZ=              0.0000   YZ=             -0.0000

 Normal termination of Gaussian 16 at Fri Sep 17 10:53:20 2021.
