 Gaussian 16, Revision C.01,
 Gaussian 16:  ES64L-G16RevC.01  3-Jul-2019

 ----------------------------------------
 #P wB97XD/6-311+G* NoSymm #P Field=Z+262
 ----------------------------------------

 -------
 TitleMe
 -------
 Symbolic Z-matrix:
 Charge =  1 Multiplicity = 1

                          Input orientation:
 ---------------------------------------------------------------------
 Center     Atomic      Atomic             Coordinates (Angstroms)
 Number     Number       Type             X           Y           Z
 ---------------------------------------------------------------------
      1          6           0        0.029500    1.339700    0.068200
      2          6           0        1.434800    1.286700    0.006400
      3          6           0        2.111800    0.051100   -0.005400
      4          6           0        1.445100   -1.137200    0.031200
      5          6           0       -0.687900    0.168200    0.110000
      6          1           0       -0.471300    2.298400    0.078100
      7          1           0        2.027300    2.196500   -0.032200
      8          1           0        1.989700   -2.076400    0.023200
      9          1           0       -1.771600    0.180400    0.158200
     10          7           0        3.586400    0.051000   -0.067500
     11          8           0        4.147100   -1.059700   -0.088100
     12          8           0        4.145000    1.163900   -0.090100
     13          6           0       -0.023600   -1.145800    0.083500
     14          1           0       -0.436700   -1.872500    0.788900
     15         35           0       -0.535900   -1.869700   -1.740800
 ---------------------------------------------------------------------

 SCF Done:  E(RwB97XD) =  -3010.55915139     A.U. after   19 cycles

 Alpha  occ. eigenvalues -- -483.27524 -62.82475 -56.62240 -56.61568 -56.61568
 Alpha  occ. eigenvalues --  -19.44777 -19.44725 -14.84264 -10.56382 -10.55979
 Alpha  occ. eigenvalues --  -10.55896 -10.55646 -10.55500 -10.51834  -8.98228
 Alpha  occ. eigenvalues --   -6.81094  -6.78918  -6.78912  -2.90952  -2.90376
 Alpha  occ. eigenvalues --   -2.90369  -2.88632  -2.88631  -1.48526  -1.31510
 Alpha  occ. eigenvalues --   -1.21177  -1.12300  -1.10299  -1.01173  -0.99811
 Alpha  occ. eigenvalues --   -0.93884  -0.89650  -0.84142  -0.79656  -0.79330
 Alpha  occ. eigenvalues --   -0.78797  -0.77199  -0.74939  -0.74675  -0.70346
 Alpha  occ. eigenvalues --   -0.67990  -0.66282  -0.61402  -0.58281  -0.55933
 Alpha  occ. eigenvalues --   -0.55048  -0.54495  -0.51750  -0.51190
 Alpha virt. eigenvalues --   -0.27838  -0.20290  -0.15805  -0.13680  -0.11746
 Alpha virt. eigenvalues --   -0.10884  -0.10384  -0.07043  -0.06602  -0.05657
 Alpha virt. eigenvalues --   -0.03312  -0.01673  -0.00675   0.00155   0.00476

 Mulliken charges:
               1
     1  C   -0.536596
     2  C    0.411951
     3  C   -0.683683
     4  C    0.248104
     5  C   -0.087570
     6  H    0.330989
     7  H    0.369211
     8  H    0.370734
     9  H    0.345505
    10  N   -0.116064
    11  O    0.035865
    12  O    0.033727
    13  C   -0.450117
    14  H    0.311126
    15  Br   0.416818
 Sum of Mulliken charges =   1.00000

 Dipole moment (field-independent basis, Debye):
    X=             -1.4772    Y=             -1.6238    Z=             -4.6364  Tot=              5.1298
 Quadrupole moment (field-independent basis, Debye-Ang):
   XX=            -72.2077   YY=            -50.6667   ZZ=            -58.2981
   XY=              2.0702   XZ=             -1.0242   YZ=              5.5446

 Normal termination of Gaussian 16 at Wed May  1 15:30:33 2024.
