 Gaussian 16, Revision C.01,
 Gaussian 16:  ES64L-G16RevC.01  3-Jul-2019

 ---------------------------------------
 #P wB97XD/6-311+G* NoSymm #P Field=Y+48
 ---------------------------------------

 -------
 TitleMe
 -------
 Symbolic Z-matrix:
 Charge =  1 Multiplicity = 1

                          Input orientation:
 ---------------------------------------------------------------------
 Center     Atomic      Atomic             Coordinates (Angstroms)
 Number     Number       Type             X           Y           Z
 ---------------------------------------------------------------------
      1          6           0        0.029500    1.339700    0.068200
      2          6           0        1.434800    1.286700    0.006400
      3          6           0        2.111800    0.051100   -0.005400
      4          6           0        1.445100   -1.137200    0.031200
      5          6           0       -0.687900    0.168200    0.110000
      6          1           0       -0.471300    2.298400    0.078100
      7          1           0        2.027300    2.196500   -0.032200
      8          1           0        1.989700   -2.076400    0.023200
      9          1           0       -1.771600    0.180400    0.158200
     10          7           0        3.586400    0.051000   -0.067500
     11          8           0        4.147100   -1.059700   -0.088100
     12          8           0        4.145000    1.163900   -0.090100
     13          6           0       -0.023600   -1.145800    0.083500
     14          1           0       -0.436700   -1.872500    0.788900
     15         35           0       -0.535900   -1.869700   -1.740800
 ---------------------------------------------------------------------

 SCF Done:  E(RwB97XD) =  -3010.53775458     A.U. after   19 cycles

 Alpha  occ. eigenvalues -- -483.30346 -62.85363 -56.65063 -56.64481 -56.64478
 Alpha  occ. eigenvalues --  -19.45522 -19.45511 -14.85050 -10.57447 -10.57336
 Alpha  occ. eigenvalues --  -10.56746 -10.56472 -10.56456 -10.52925  -9.01163
 Alpha  occ. eigenvalues --   -6.83861  -6.81956  -6.81940  -2.93760  -2.93255
 Alpha  occ. eigenvalues --   -2.93241  -2.91718  -2.91718  -1.49316  -1.32295
 Alpha  occ. eigenvalues --   -1.22197  -1.13501  -1.11437  -1.03629  -1.00698
 Alpha  occ. eigenvalues --   -0.95004  -0.90572  -0.84975  -0.80431  -0.80265
 Alpha  occ. eigenvalues --   -0.79637  -0.77839  -0.75755  -0.75555  -0.71800
 Alpha  occ. eigenvalues --   -0.68968  -0.67228  -0.63247  -0.59570  -0.56802
 Alpha  occ. eigenvalues --   -0.55855  -0.55392  -0.55222  -0.54410
 Alpha virt. eigenvalues --   -0.29133  -0.20918  -0.15114  -0.12851  -0.09189
 Alpha virt. eigenvalues --   -0.06339  -0.05973  -0.04529  -0.04425  -0.02758
 Alpha virt. eigenvalues --   -0.02139  -0.01790  -0.00760  -0.00321   0.00829

 Mulliken charges:
               1
     1  C   -0.585921
     2  C    0.542669
     3  C   -0.743429
     4  C    0.304592
     5  C   -0.012533
     6  H    0.313541
     7  H    0.348415
     8  H    0.389413
     9  H    0.349467
    10  N   -0.105893
    11  O    0.055562
    12  O    0.000544
    13  C   -0.480297
    14  H    0.416173
    15  Br   0.207698
 Sum of Mulliken charges =   1.00000

 Dipole moment (field-independent basis, Debye):
    X=             -0.9879    Y=             -1.9680    Z=             -0.2028  Tot=              2.2114
 Quadrupole moment (field-independent basis, Debye-Ang):
   XX=            -71.5047   YY=            -51.4067   ZZ=            -62.2239
   XY=             -0.2400   XZ=              1.2667   YZ=              2.2942

 Normal termination of Gaussian 16 at Wed May  1 15:07:51 2024.
