 Gaussian 16, Revision A.03,
 Gaussian 16:  ES64L-G16RevA.03 25-Dec-2016

 --------------------------------------------------------------------
 #p B3LYP/6-311+G** #p TD=(singlets,nstates=30)IOp(6/8=3) IOp(9/40=4)
 --------------------------------------------------------------------

 -------------------------------
 Scan Step 77, Bond Length 0.885
 -------------------------------
 Symbolic Z-matrix:
 Charge =  0 Multiplicity = 1

                         Standard orientation:
 ---------------------------------------------------------------------
 Center     Atomic      Atomic             Coordinates (Angstroms)
 Number     Number       Type             X           Y           Z
 ---------------------------------------------------------------------
      1          6           0        0.000000   -0.000000   -0.368581
      2          1           0        0.000000    0.937260   -0.959931
      3          1           0       -0.000000   -0.937260   -0.959931
      4          8           0        0.000000    0.000000    0.516419
 ---------------------------------------------------------------------

 SCF Done:  E(RB3LYP) =  -114.198879316     A.U. after    9 cycles

 Excitation energies and oscillator strengths:

 Excited State   1:      Singlet-A2     5.5274 eV  224.31 nm  f=0.0000  <S**2>=0.000
       3 -> 27         0.00282
       3 -> 36         0.00220
       3 -> 46         0.00118
       4 -> 10         0.00775
       4 -> 13         0.00882
       4 -> 17         0.00602
       4 -> 22        -0.00352
       4 -> 28         0.00302
       4 -> 32         0.00180
       4 -> 37         0.00346
       4 -> 43         0.00051
       4 -> 52         0.00069
       5 -> 27         0.00352
       5 -> 36        -0.00070
       5 -> 46        -0.00066
       6 -> 12        -0.00056
       6 -> 16        -0.00095
       6 -> 18        -0.00048
       6 -> 23         0.00173
       6 -> 24         0.00045
       6 -> 29        -0.00037
       6 -> 33         0.00025
       6 -> 35         0.00053
       6 -> 42         0.00050
       6 -> 47         0.00064
       6 -> 50        -0.00018
       6 -> 53         0.00027
       7 -> 27         0.00100
       7 -> 36        -0.00026
       7 -> 46         0.00113
       8 -> 10         0.69590
       8 -> 13         0.12132
       8 -> 17         0.03028
       8 -> 22        -0.00722
       8 -> 28         0.00505
       8 -> 32         0.00341
       8 -> 37        -0.00235
       8 -> 43        -0.00019
       8 -> 52         0.00090
       3 <- 27         0.00210
       3 <- 36         0.00189
       3 <- 46         0.00121
       4 <- 10         0.00025
       4 <- 13         0.00115
       4 <- 22         0.00022
       4 <- 32        -0.00107
       4 <- 37         0.00158
       4 <- 43         0.00044
       4 <- 52         0.00017
       5 <- 27         0.00397
       5 <- 36        -0.00048
       5 <- 46        -0.00065
       6 <- 12        -0.00092
       6 <- 16         0.00177
       6 <- 18        -0.00309
       6 <- 23         0.00443
       6 <- 24        -0.00164
       6 <- 29         0.00168
       6 <- 33        -0.00086
       6 <- 35         0.00190
       6 <- 40        -0.00015
       6 <- 42         0.00086
       6 <- 47         0.00050
       6 <- 53         0.00071
       7 <- 27         0.00110
       7 <- 36        -0.00032
       7 <- 46         0.00091
       8 <- 10        -0.00814
       8 <- 13        -0.00857
       8 <- 17        -0.00426
       8 <- 22         0.00046
       8 <- 28        -0.00039
       8 <- 32         0.00282
       8 <- 37        -0.00226
       8 <- 52         0.00028
 This state for optimization and/or second-order correction.
 Total Energy, E(TD-HF/TD-DFT) =  -113.995751188
 Copying the excited state density for this state as the 1-particle RhoCI density.

 Excited State   2:      Singlet-B2     5.8792 eV  210.89 nm  f=0.0869  <S**2>=0.000
       3 -> 12         0.00089
       3 -> 16         0.00023
       3 -> 18         0.00102
       3 -> 24         0.00114
       3 -> 29        -0.00019
       3 -> 35        -0.00010
       3 -> 42         0.00014
       3 -> 50        -0.00015
       4 ->  9         0.00157
       4 -> 11        -0.00668
       4 -> 14         0.00530
       4 -> 15         0.00160
       4 -> 19         0.00373
       4 -> 20         0.00121
       4 -> 21         0.00286
       4 -> 25         0.00122
       4 -> 26        -0.00118
       4 -> 30        -0.00220
       4 -> 31         0.00024
       4 -> 34         0.00034
       4 -> 38        -0.00079
       4 -> 39         0.00014
       4 -> 41         0.00041
       4 -> 44         0.00043
       4 -> 45        -0.00057
       4 -> 48         0.00038
       5 -> 12        -0.00630
       5 -> 16         0.00117
       5 -> 18         0.00135
       5 -> 23        -0.00250
       5 -> 24         0.00408
       5 -> 29        -0.00057
       5 -> 33        -0.00102
       5 -> 35         0.00088
       5 -> 40        -0.00017
       5 -> 42         0.00044
       6 -> 27         0.00103
       6 -> 36         0.00024
       6 -> 46         0.00086
       7 -> 12         0.00241
       7 -> 16         0.00303
       7 -> 18         0.00375
       7 -> 23        -0.00217
       7 -> 24         0.00243
       7 -> 35        -0.00020
       7 -> 42        -0.00037
       7 -> 47         0.00040
       7 -> 50         0.00049
       8 ->  9         0.70625
       8 -> 11        -0.01465
       8 -> 14        -0.01982
       8 -> 15         0.01148
       8 -> 19         0.02024
       8 -> 20        -0.00795
       8 -> 21        -0.00783
       8 -> 25         0.00069
       8 -> 26        -0.00055
       8 -> 31         0.00284
       8 -> 34         0.00154
       8 -> 38         0.00085
       8 -> 39        -0.00054
       8 -> 41        -0.00039
       8 -> 44        -0.00033
       8 -> 45        -0.00107
       8 -> 48         0.00034
       8 -> 54        -0.00014
       3 <- 12         0.00029
       3 <- 18         0.00061
       3 <- 24         0.00083
       3 <- 29        -0.00017
       3 <- 35        -0.00011
       3 <- 42         0.00012
       3 <- 53         0.00010
       4 <-  9         0.00207
       4 <- 14         0.00417
       4 <- 15         0.00173
       4 <- 19         0.00094
       4 <- 20         0.00040
       4 <- 21         0.00177
       4 <- 25         0.00165
       4 <- 26        -0.00125
       4 <- 30        -0.00081
       4 <- 31        -0.00021
       4 <- 34         0.00012
       4 <- 38        -0.00052
       4 <- 39         0.00016
       4 <- 41         0.00042
       4 <- 44         0.00029
       4 <- 45        -0.00051
       4 <- 48         0.00032
       5 <- 16         0.00101
       5 <- 18         0.00241
       5 <- 23        -0.00148
       5 <- 24         0.00312
       5 <- 29        -0.00047
       5 <- 33        -0.00076
       5 <- 35         0.00067
       5 <- 40        -0.00020
       5 <- 42         0.00019
       6 <- 27         0.00080
       6 <- 36         0.00019
       6 <- 46         0.00073
       7 <- 12         0.00066
       7 <- 16         0.00196
       7 <- 18         0.00133
       7 <- 23        -0.00088
       7 <- 24         0.00113
       7 <- 29         0.00071
       7 <- 42        -0.00033
       7 <- 47         0.00037
       7 <- 50         0.00055
       8 <-  9        -0.00444
       8 <- 11        -0.00213
       8 <- 14        -0.01303
       8 <- 15        -0.00209
       8 <- 19        -0.00108
       8 <- 20         0.00026
       8 <- 21        -0.00421
       8 <- 25        -0.00312
       8 <- 26        -0.00064
       8 <- 30         0.00050
       8 <- 31         0.00149
       8 <- 34         0.00155
       8 <- 38         0.00085
       8 <- 39        -0.00044
       8 <- 41        -0.00024
       8 <- 44        -0.00035
       8 <- 45        -0.00077
       8 <- 48         0.00031

 Excited State   3:      Singlet-B2     6.6711 eV  185.85 nm  f=0.0224  <S**2>=0.000
       3 -> 12        -0.00011
       3 -> 16         0.00066
       3 -> 23         0.00019
       3 -> 24         0.00043
       3 -> 29         0.00095
       3 -> 33         0.00014
       3 -> 35        -0.00029
       3 -> 42        -0.00031
       3 -> 47         0.00019
       3 -> 50         0.00021
       4 ->  9        -0.00501
       4 -> 14         0.00295
       4 -> 15         0.00461
       4 -> 19        -0.00325
       4 -> 20         0.00070
       4 -> 21         0.00137
       4 -> 25         0.00096
       4 -> 26         0.00122
       4 -> 30        -0.00073
       4 -> 31        -0.00216
       4 -> 34        -0.00046
       4 -> 39        -0.00077
       4 -> 41        -0.00069
       4 -> 44         0.00011
       4 -> 45         0.00061
       4 -> 48        -0.00043
       4 -> 51        -0.00021
       5 -> 12         0.00271
       5 -> 16         0.00435
       5 -> 18         0.00165
       5 -> 23        -0.00140
       5 -> 24         0.00370
       5 -> 29        -0.00121
       5 -> 33         0.00056
       5 -> 35        -0.00013
       5 -> 40        -0.00025
       5 -> 47         0.00013
       5 -> 50         0.00012
       6 -> 27        -0.00086
       6 -> 36        -0.00134
       6 -> 46        -0.00106
       7 -> 12        -0.00293
       7 -> 18        -0.00241
       7 -> 23         0.00131
       7 -> 24        -0.00039
       7 -> 33        -0.00025
       7 -> 35         0.00120
       7 -> 40        -0.00031
       7 -> 42         0.00065
       7 -> 47        -0.00066
       7 -> 50        -0.00059
       7 -> 53         0.00016
       8 ->  9         0.01501
       8 -> 11         0.70592
       8 -> 14        -0.01770
       8 -> 15        -0.02353
       8 -> 19        -0.01721
       8 -> 20        -0.01503
       8 -> 21        -0.00298
       8 -> 25         0.00037
       8 -> 26        -0.00034
       8 -> 30         0.00176
       8 -> 31         0.00045
       8 -> 34         0.00039
       8 -> 38        -0.00014
       8 -> 39        -0.00074
       8 -> 41        -0.00127
       8 -> 44         0.00012
       8 -> 45         0.00069
       8 -> 48        -0.00062
       8 -> 51        -0.00012
       8 -> 54         0.00016
       3 <- 12         0.00023
       3 <- 16         0.00060
       3 <- 18         0.00024
       3 <- 24         0.00049
       3 <- 29         0.00063
       3 <- 33         0.00017
       3 <- 35        -0.00032
       3 <- 42        -0.00026
       3 <- 47         0.00015
       3 <- 50         0.00011
       3 <- 53        -0.00021
       4 <-  9         0.00136
       4 <- 11        -0.00026
       4 <- 14         0.00182
       4 <- 15         0.00057
       4 <- 19         0.00064
       4 <- 20        -0.00028
       4 <- 21         0.00102
       4 <- 25         0.00093
       4 <- 26         0.00094
       4 <- 30        -0.00086
       4 <- 31        -0.00082
       4 <- 34        -0.00099
       4 <- 39        -0.00056
       4 <- 41        -0.00070
       4 <- 44         0.00010
       4 <- 45         0.00063
       4 <- 48        -0.00029
       4 <- 51        -0.00020
       5 <- 12         0.00025
       5 <- 16         0.00076
       5 <- 18         0.00113
       5 <- 23        -0.00127
       5 <- 24         0.00181
       5 <- 29        -0.00053
       5 <- 33         0.00057
       5 <- 35         0.00018
       5 <- 40        -0.00025
       5 <- 50         0.00020
       6 <- 27        -0.00040
       6 <- 36        -0.00110
       6 <- 46        -0.00092
       7 <- 12        -0.00037
       7 <- 16        -0.00037
       7 <- 18        -0.00022
       7 <- 23         0.00025
       7 <- 29        -0.00036
       7 <- 35         0.00083
       7 <- 40        -0.00025
       7 <- 42         0.00046
       7 <- 47        -0.00058
       7 <- 50        -0.00055
       8 <-  9        -0.00200
       8 <- 11         0.00132
       8 <- 14        -0.00669
       8 <- 15        -0.00157
       8 <- 19         0.00195
       8 <- 20         0.00202
       8 <- 21        -0.00271
       8 <- 25        -0.00042
       8 <- 26         0.00082
       8 <- 30         0.00119
       8 <- 31         0.00112
       8 <- 38        -0.00031
       8 <- 39        -0.00049
       8 <- 41        -0.00107
       8 <- 45         0.00059
       8 <- 48        -0.00040
       8 <- 51        -0.00014

 Excited State   4:      Singlet-A1     6.8084 eV  182.10 nm  f=0.0413  <S**2>=0.000
       3 ->  9         0.00131
       3 -> 11        -0.00081
       3 -> 14         0.00010
       3 -> 15         0.00058
       3 -> 19         0.00131
       3 -> 20        -0.00034
       3 -> 21        -0.00029
       3 -> 25         0.00025
       3 -> 30        -0.00105
       3 -> 31        -0.00024
       3 -> 34        -0.00021
       3 -> 38        -0.00034
       3 -> 39        -0.00025
       3 -> 41        -0.00013
       3 -> 48        -0.00015
       3 -> 51        -0.00028
       3 -> 54         0.00020
       4 -> 12         0.00748
       4 -> 16         0.00788
       4 -> 18         0.00711
       4 -> 23         0.00077
       4 -> 24         0.00413
       4 -> 29         0.00065
       4 -> 33        -0.00016
       4 -> 35         0.00095
       4 -> 42        -0.00023
       4 -> 50        -0.00036
       4 -> 53        -0.00013
       5 ->  9         0.00562
       5 -> 11         0.01054
       5 -> 14         0.00626
       5 -> 15         0.00206
       5 -> 19         0.00110
       5 -> 20        -0.00670
       5 -> 21         0.00205
       5 -> 25         0.00684
       5 -> 26        -0.00087
       5 -> 30         0.00081
       5 -> 31        -0.00072
       5 -> 34        -0.00104
       5 -> 38        -0.00029
       5 -> 39         0.00088
       5 -> 41         0.00014
       5 -> 44         0.00010
       5 -> 45        -0.00033
       5 -> 48        -0.00028
       6 -> 10         0.00745
       6 -> 13        -0.00335
       6 -> 17         0.00514
       6 -> 22         0.00407
       6 -> 28         0.00071
       6 -> 32         0.00090
       6 -> 37         0.00053
       6 -> 43         0.00048
       6 -> 49        -0.00037
       7 ->  9         0.01308
       7 -> 11        -0.00528
       7 -> 14         0.00278
       7 -> 15        -0.00109
       7 -> 19         0.00792
       7 -> 20        -0.00288
       7 -> 21         0.00094
       7 -> 25         0.00196
       7 -> 30        -0.00023
       7 -> 31         0.00065
       7 -> 34        -0.00095
       7 -> 39         0.00024
       7 -> 48        -0.00021
       7 -> 51         0.00044
       8 -> 12         0.70545
       8 -> 16         0.04242
       8 -> 18        -0.00141
       8 -> 23         0.00342
       8 -> 24         0.00158
       8 -> 29         0.00334
       8 -> 33         0.00155
       8 -> 35        -0.00256
       8 -> 40         0.00012
       8 -> 42         0.00143
       8 -> 47        -0.00046
       8 -> 53        -0.00012
       3 <-  9         0.00057
       3 <- 11        -0.00031
       3 <- 15         0.00029
       3 <- 19         0.00073
       3 <- 20        -0.00013
       3 <- 25         0.00030
       3 <- 30        -0.00062
       3 <- 31        -0.00019
       3 <- 34        -0.00017
       3 <- 38        -0.00026
       3 <- 39        -0.00022
       3 <- 41        -0.00014
       3 <- 48        -0.00017
       3 <- 51        -0.00024
       3 <- 54         0.00018
       4 <- 12         0.00263
       4 <- 16         0.00234
       4 <- 18         0.00348
       4 <- 23         0.00080
       4 <- 24         0.00222
       4 <- 29         0.00022
       4 <- 33        -0.00028
       4 <- 35         0.00082
       4 <- 42        -0.00020
       4 <- 50        -0.00029
       4 <- 53        -0.00012
       5 <-  9         0.00582
       5 <- 11         0.00380
       5 <- 14         0.00469
       5 <- 15         0.00199
       5 <- 19         0.00082
       5 <- 20        -0.00378
       5 <- 21         0.00061
       5 <- 25         0.00417
       5 <- 26        -0.00039
       5 <- 30         0.00015
       5 <- 31        -0.00095
       5 <- 34        -0.00088
       5 <- 38        -0.00039
       5 <- 39         0.00073
       5 <- 44         0.00017
       5 <- 45        -0.00030
       5 <- 48        -0.00023
       6 <- 10         0.00269
       6 <- 13        -0.00136
       6 <- 17         0.00238
       6 <- 22         0.00244
       6 <- 28         0.00044
       6 <- 32         0.00068
       6 <- 37         0.00044
       6 <- 43         0.00041
       6 <- 49        -0.00032
       7 <-  9         0.00452
       7 <- 11        -0.00128
       7 <- 14         0.00134
       7 <- 15        -0.00038
       7 <- 19         0.00342
       7 <- 20        -0.00170
       7 <- 21         0.00029
       7 <- 25         0.00118
       7 <- 26        -0.00014
       7 <- 30        -0.00030
       7 <- 31         0.00038
       7 <- 34        -0.00066
       7 <- 38        -0.00014
       7 <- 39         0.00030
       7 <- 45        -0.00011
       7 <- 51         0.00040
       8 <- 12        -0.00374
       8 <- 16         0.00570
       8 <- 18        -0.01071
       8 <- 23        -0.00089
       8 <- 24        -0.00200
       8 <- 29         0.00170
       8 <- 33         0.00118
       8 <- 35        -0.00181
       8 <- 42         0.00116
       8 <- 47        -0.00052
       8 <- 53        -0.00014

 Excited State   5:      Singlet-A2     7.6017 eV  163.10 nm  f=0.0000  <S**2>=0.000
       3 -> 27         0.00179
       3 -> 36         0.00147
       3 -> 46         0.00071
       4 -> 10         0.00819
       4 -> 13         0.00813
       4 -> 17        -0.00216
       4 -> 22        -0.00143
       4 -> 28         0.00034
       4 -> 32         0.00223
       4 -> 37         0.00254
       4 -> 43         0.00032
       4 -> 49        -0.00010
       4 -> 52         0.00041
       5 -> 27         0.00102
       5 -> 36        -0.00076
       5 -> 46        -0.00025
       6 -> 12         0.00020
       6 -> 16        -0.00200
       6 -> 18        -0.00043
       6 -> 23         0.00134
       6 -> 24         0.00019
       6 -> 29        -0.00037
       6 -> 35         0.00038
       6 -> 42         0.00038
       6 -> 47         0.00037
       6 -> 53         0.00018
       7 -> 27         0.00025
       7 -> 36        -0.00022
       7 -> 46         0.00076
       8 -> 10        -0.12197
       8 -> 13         0.69601
       8 -> 17         0.00677
       8 -> 22        -0.02330
       8 -> 28         0.00200
       8 -> 32         0.00165
       8 -> 37        -0.00116
       8 -> 43        -0.00016
       8 -> 49        -0.00015
       8 -> 52         0.00046
       3 <- 27         0.00109
       3 <- 36         0.00119
       3 <- 46         0.00082
       4 <- 10         0.00032
       4 <- 13         0.00031
       4 <- 17        -0.00050
       4 <- 22         0.00011
       4 <- 32        -0.00031
       4 <- 37         0.00083
       4 <- 43         0.00024
       4 <- 52         0.00013
       5 <- 27         0.00159
       5 <- 46        -0.00030
       6 <- 12         0.00043
       6 <- 16        -0.00046
       6 <- 18        -0.00079
       6 <- 23         0.00261
       6 <- 24        -0.00054
       6 <- 33        -0.00073
       6 <- 35         0.00136
       6 <- 42         0.00074
       6 <- 47         0.00017
       6 <- 53         0.00039
       7 <- 27         0.00049
       7 <- 36        -0.00027
       7 <- 46         0.00040
       8 <- 10        -0.00689
       8 <- 13        -0.00144
       8 <- 17        -0.00101
       8 <- 22         0.00056
       8 <- 28        -0.00026
       8 <- 32         0.00120
       8 <- 37        -0.00105
       8 <- 52         0.00018

 Excited State   6:      Singlet-B2     9.9002 eV  125.23 nm  f=0.2649  <S**2>=0.000
       3 -> 12        -0.00041
       3 -> 16         0.00142
       3 -> 18        -0.00082
       3 -> 23         0.00113
       3 -> 24         0.00055
       3 -> 29         0.00117

 The electronic state is 1-A1.
 Alpha  occ. eigenvalues --  -19.13854 -10.23637  -1.27360  -0.61389  -0.59489
 Alpha  occ. eigenvalues --   -0.56560  -0.52161  -0.24075
 Alpha virt. eigenvalues --    0.01396   0.01614   0.04403   0.04422   0.09143
 Alpha virt. eigenvalues --    0.14218   0.17745   0.20355   0.21868   0.23335
 Alpha virt. eigenvalues --    0.26057   0.36369   0.50155   0.52780   0.53730

 Mulliken charges:
               1
     1  C    0.219744
     2  H   -0.001037
     3  H   -0.001037
     4  O   -0.217670
 Sum of Mulliken charges =   0.00000

 Dipole moment (field-independent basis, Debye):
    X=              0.0000    Y=              0.0000    Z=             -0.4940  Tot=              0.4940
 Quadrupole moment (field-independent basis, Debye-Ang):
   XX=            -10.7728   YY=            -12.3717   ZZ=            -13.2259
   XY=             -0.0000   XZ=             -0.0000   YZ=              0.0000

 Normal termination of Gaussian 16 at Fri Sep 17 10:52:31 2021.
