 Gaussian 16, Revision C.01,
 Gaussian 16:  ES64L-G16RevC.01  3-Jul-2019

 ----------------------------------------
 #P wB97XD/6-311+G* NoSymm #P Field=Z+262
 ----------------------------------------

 -------
 TitleMe
 -------
 Symbolic Z-matrix:
 Charge =  1 Multiplicity = 1

                          Input orientation:
 ---------------------------------------------------------------------
 Center     Atomic      Atomic             Coordinates (Angstroms)
 Number     Number       Type             X           Y           Z
 ---------------------------------------------------------------------
      1          6           0        0.519300    1.233000   -0.031900
      2          6           0        1.944500    1.269200   -0.036700
      3          6           0        2.620400    0.092800   -0.025000
      4          6           0       -0.196000    0.030100    0.001000
      5          1           0       -0.020700    2.174200   -0.043400
      6          1           0        2.482800    2.208900   -0.036100
      7          1           0       -1.277700    0.039900    0.011700
      8          7           0        4.092100    0.095900    0.036600
      9          8           0        4.639300   -1.021700    0.144600
     10          8           0        4.664900    1.198400   -0.023300
     11          6           0        0.494300   -1.167100    0.021000
     12          1           0       -0.032500   -2.114900    0.054500
     13          6           0        1.962900   -1.216500   -0.021100
     14          1           0        2.443600   -1.963100    0.615100
     15         35           0        2.173000   -1.949100   -1.906200
 ---------------------------------------------------------------------

 SCF Done:  E(RwB97XD) =  -3010.56417031     A.U. after   21 cycles

 Alpha  occ. eigenvalues -- -483.27318 -62.82256 -56.62027 -56.61362 -56.61333
 Alpha  occ. eigenvalues --  -19.45687 -19.45680 -14.85026 -10.57733 -10.55798
 Alpha  occ. eigenvalues --  -10.55709 -10.55083 -10.51982 -10.51426  -8.97999
 Alpha  occ. eigenvalues --   -6.80880  -6.78721  -6.78632  -2.90733  -2.90184
 Alpha  occ. eigenvalues --   -2.90114  -2.88389  -2.88387  -1.49332  -1.32316
 Alpha  occ. eigenvalues --   -1.20745  -1.11413  -1.10347  -1.02080  -0.98290
 Alpha  occ. eigenvalues --   -0.93646  -0.89151  -0.84025  -0.79917  -0.79225
 Alpha  occ. eigenvalues --   -0.78884  -0.76600  -0.75350  -0.74118  -0.69884
 Alpha  occ. eigenvalues --   -0.67022  -0.66097  -0.60828  -0.57806  -0.56795
 Alpha  occ. eigenvalues --   -0.56040  -0.55339  -0.51296  -0.50525
 Alpha virt. eigenvalues --   -0.28097  -0.19546  -0.15078  -0.12987  -0.11479
 Alpha virt. eigenvalues --   -0.10503  -0.10359  -0.06902  -0.06141  -0.05013
 Alpha virt. eigenvalues --   -0.02904  -0.01413   0.00108   0.00226   0.01172

 Mulliken charges:
               1
     1  C   -0.180546
     2  C    0.256608
     3  C   -0.009005
     4  C   -0.348656
     5  H    0.344773
     6  H    0.350069
     7  H    0.328093
     8  N   -0.297814
     9  O    0.089580
    10  O    0.072040
    11  C   -0.261359
    12  H    0.351476
    13  C   -0.462209
    14  H    0.326721
    15  Br   0.440230
 Sum of Mulliken charges =   1.00000

 Dipole moment (field-independent basis, Debye):
    X=              3.2121    Y=             -2.0170    Z=             -5.5553  Tot=              6.7266
 Quadrupole moment (field-independent basis, Debye-Ang):
   XX=            -67.8912   YY=            -49.4777   ZZ=            -56.6795
   XY=             -5.2513   XZ=            -12.4440   YZ=              7.1122

 Normal termination of Gaussian 16 at Thu May  2 14:20:21 2024.
