 Gaussian 16, Revision C.01,
 Gaussian 16:  ES64L-G16RevC.01  3-Jul-2019

 ----------------------------------------
 #P wB97XD/6-311+G* NoSymm #P Field=X-165
 ----------------------------------------

 -------
 TitleMe
 -------
 Symbolic Z-matrix:
 Charge =  1 Multiplicity = 1

                          Input orientation:
 ---------------------------------------------------------------------
 Center     Atomic      Atomic             Coordinates (Angstroms)
 Number     Number       Type             X           Y           Z
 ---------------------------------------------------------------------
      1          6           0        0.519300    1.233000   -0.031900
      2          6           0        1.944500    1.269200   -0.036700
      3          6           0        2.620400    0.092800   -0.025000
      4          6           0       -0.196000    0.030100    0.001000
      5          1           0       -0.020700    2.174200   -0.043400
      6          1           0        2.482800    2.208900   -0.036100
      7          1           0       -1.277700    0.039900    0.011700
      8          7           0        4.092100    0.095900    0.036600
      9          8           0        4.639300   -1.021700    0.144600
     10          8           0        4.664900    1.198400   -0.023300
     11          6           0        0.494300   -1.167100    0.021000
     12          1           0       -0.032500   -2.114900    0.054500
     13          6           0        1.962900   -1.216500   -0.021100
     14          1           0        2.443600   -1.963100    0.615100
     15         35           0        2.173000   -1.949100   -1.906200
 ---------------------------------------------------------------------

 SCF Done:  E(RwB97XD) =  -3010.56531515     A.U. after   25 cycles

 Alpha  occ. eigenvalues -- -483.25506 -62.80506 -56.60214 -56.59631 -56.59612
 Alpha  occ. eigenvalues --  -19.36087 -19.35974 -14.75676 -10.53371 -10.52720
 Alpha  occ. eigenvalues --  -10.52423 -10.52165 -10.49139 -10.47209  -8.96295
 Alpha  occ. eigenvalues --   -6.79008  -6.77099  -6.77041  -2.88904  -2.88409
 Alpha  occ. eigenvalues --   -2.88362  -2.86835  -2.86834  -1.39784  -1.22621
 Alpha  occ. eigenvalues --   -1.17037  -1.07648  -1.06609  -0.99043  -0.93821
 Alpha  occ. eigenvalues --   -0.90196  -0.84996  -0.78976  -0.74779  -0.73332
 Alpha  occ. eigenvalues --   -0.72132  -0.71173  -0.69841  -0.66732  -0.65839
 Alpha  occ. eigenvalues --   -0.63869  -0.62153  -0.58461  -0.54060  -0.50304
 Alpha  occ. eigenvalues --   -0.49466  -0.46894  -0.45413  -0.45255
 Alpha virt. eigenvalues --   -0.24678  -0.13667  -0.11271  -0.09696  -0.07168
 Alpha virt. eigenvalues --   -0.06016  -0.04747  -0.03024  -0.01344  -0.00210
 Alpha virt. eigenvalues --    0.00861   0.01472   0.02873   0.03733   0.05078

 Mulliken charges:
               1
     1  C   -0.097307
     2  C    0.154890
     3  C    0.023832
     4  C   -0.309148
     5  H    0.301525
     6  H    0.371257
     7  H    0.246108
     8  N   -0.243031
     9  O    0.152380
    10  O    0.149435
    11  C   -0.293984
    12  H    0.315034
    13  C   -0.426440
    14  H    0.431915
    15  Br   0.223532
 Sum of Mulliken charges =   1.00000

 Dipole moment (field-independent basis, Debye):
    X=              7.5416    Y=             -1.1482    Z=             -0.9932  Tot=              7.6929
 Quadrupole moment (field-independent basis, Debye-Ang):
   XX=            -49.6913   YY=            -50.9032   ZZ=            -61.7190
   XY=             -4.0616   XZ=             -3.8780   YZ=              3.0348

 Normal termination of Gaussian 16 at Thu May  2 14:24:34 2024.
