 Gaussian 16, Revision C.01,
 Gaussian 16:  ES64L-G16RevC.01  3-Jul-2019

 ----------------------------------------
 #P wB97XD/6-311+G* NoSymm #P Field=X-136
 ----------------------------------------

 -------
 TitleMe
 -------
 Symbolic Z-matrix:
 Charge =  1 Multiplicity = 1

                          Input orientation:
 ---------------------------------------------------------------------
 Center     Atomic      Atomic             Coordinates (Angstroms)
 Number     Number       Type             X           Y           Z
 ---------------------------------------------------------------------
      1          6           0        0.519300    1.233000   -0.031900
      2          6           0        1.944500    1.269200   -0.036700
      3          6           0        2.620400    0.092800   -0.025000
      4          6           0       -0.196000    0.030100    0.001000
      5          1           0       -0.020700    2.174200   -0.043400
      6          1           0        2.482800    2.208900   -0.036100
      7          1           0       -1.277700    0.039900    0.011700
      8          7           0        4.092100    0.095900    0.036600
      9          8           0        4.639300   -1.021700    0.144600
     10          8           0        4.664900    1.198400   -0.023300
     11          6           0        0.494300   -1.167100    0.021000
     12          1           0       -0.032500   -2.114900    0.054500
     13          6           0        1.962900   -1.216500   -0.021100
     14          1           0        2.443600   -1.963100    0.615100
     15         35           0        2.173000   -1.949100   -1.906200
 ---------------------------------------------------------------------

 SCF Done:  E(RwB97XD) =  -3010.55719734     A.U. after   25 cycles

 Alpha  occ. eigenvalues -- -483.26457 -62.81462 -56.61167 -56.60586 -56.60569
 Alpha  occ. eigenvalues --  -19.37824 -19.37741 -14.77394 -10.54365 -10.53497
 Alpha  occ. eigenvalues --  -10.53212 -10.53160 -10.49740 -10.48238  -8.97254
 Alpha  occ. eigenvalues --   -6.79963  -6.78058  -6.78005  -2.89859  -2.89364
 Alpha  occ. eigenvalues --   -2.89321  -2.87798  -2.87797  -1.41527  -1.24386
 Alpha  occ. eigenvalues --   -1.17933  -1.08525  -1.07582  -1.00008  -0.94923
 Alpha  occ. eigenvalues --   -0.91070  -0.85939  -0.79829  -0.75692  -0.74312
 Alpha  occ. eigenvalues --   -0.73593  -0.72432  -0.70926  -0.68107  -0.67213
 Alpha  occ. eigenvalues --   -0.64723  -0.63136  -0.59284  -0.55045  -0.51317
 Alpha  occ. eigenvalues --   -0.50505  -0.48679  -0.47260  -0.47058
 Alpha virt. eigenvalues --   -0.25590  -0.14688  -0.10959  -0.10082  -0.07316
 Alpha virt. eigenvalues --   -0.06640  -0.04560  -0.03045  -0.01763  -0.00498
 Alpha virt. eigenvalues --    0.00493   0.01116   0.02249   0.03215   0.04540

 Mulliken charges:
               1
     1  C   -0.098700
     2  C    0.162313
     3  C    0.005382
     4  C   -0.317142
     5  H    0.309454
     6  H    0.367519
     7  H    0.261758
     8  N   -0.242940
     9  O    0.141094
    10  O    0.135294
    11  C   -0.274533
    12  H    0.322423
    13  C   -0.416074
    14  H    0.428286
    15  Br   0.215865
 Sum of Mulliken charges =   1.00000

 Dipole moment (field-independent basis, Debye):
    X=              6.6898    Y=             -1.1067    Z=             -0.9503  Tot=              6.8470
 Quadrupole moment (field-independent basis, Debye-Ang):
   XX=            -52.8855   YY=            -50.9336   ZZ=            -61.7861
   XY=             -3.8822   XZ=             -3.6462   YZ=              2.9328

 Normal termination of Gaussian 16 at Thu May  2 14:24:28 2024.
