 Gaussian 16, Revision C.01,
 Gaussian 16:  ES64L-G16RevC.01  3-Jul-2019

 ----------------------------------------
 #P wB97XD/6-311+G* NoSymm #P Field=X-194
 ----------------------------------------

 -------
 TitleMe
 -------
 Symbolic Z-matrix:
 Charge =  1 Multiplicity = 1

                          Input orientation:
 ---------------------------------------------------------------------
 Center     Atomic      Atomic             Coordinates (Angstroms)
 Number     Number       Type             X           Y           Z
 ---------------------------------------------------------------------
      1          6           0        0.519300    1.233000   -0.031900
      2          6           0        1.944500    1.269200   -0.036700
      3          6           0        2.620400    0.092800   -0.025000
      4          6           0       -0.196000    0.030100    0.001000
      5          1           0       -0.020700    2.174200   -0.043400
      6          1           0        2.482800    2.208900   -0.036100
      7          1           0       -1.277700    0.039900    0.011700
      8          7           0        4.092100    0.095900    0.036600
      9          8           0        4.639300   -1.021700    0.144600
     10          8           0        4.664900    1.198400   -0.023300
     11          6           0        0.494300   -1.167100    0.021000
     12          1           0       -0.032500   -2.114900    0.054500
     13          6           0        1.962900   -1.216500   -0.021100
     14          1           0        2.443600   -1.963100    0.615100
     15         35           0        2.173000   -1.949100   -1.906200
 ---------------------------------------------------------------------

 SCF Done:  E(RwB97XD) =  -3010.57441052     A.U. after   26 cycles

 Alpha  occ. eigenvalues -- -483.24561 -62.79557 -56.59266 -56.58683 -56.58662
 Alpha  occ. eigenvalues --  -19.34372 -19.34222 -14.73972 -10.52381 -10.51946
 Alpha  occ. eigenvalues --  -10.51628 -10.51176 -10.48542 -10.46195  -8.95343
 Alpha  occ. eigenvalues --   -6.78060  -6.76148  -6.76083  -2.87954  -2.87460
 Alpha  occ. eigenvalues --   -2.87408  -2.85878  -2.85877  -1.38058  -1.20871
 Alpha  occ. eigenvalues --   -1.16153  -1.06776  -1.05651  -0.98087  -0.92732
 Alpha  occ. eigenvalues --   -0.89325  -0.84057  -0.78168  -0.73882  -0.72405
 Alpha  occ. eigenvalues --   -0.70658  -0.70034  -0.68678  -0.65549  -0.64275
 Alpha  occ. eigenvalues --   -0.62984  -0.61125  -0.57639  -0.53076  -0.49296
 Alpha  occ. eigenvalues --   -0.48453  -0.45115  -0.43573  -0.43455
 Alpha virt. eigenvalues --   -0.23771  -0.12706  -0.12182  -0.08817  -0.07719
 Alpha virt. eigenvalues --   -0.05044  -0.04816  -0.02975  -0.00966  -0.00099
 Alpha virt. eigenvalues --    0.01117   0.01845   0.03504   0.04196   0.05460

 Mulliken charges:
               1
     1  C   -0.096198
     2  C    0.146325
     3  C    0.042777
     4  C   -0.299369
     5  H    0.293497
     6  H    0.375000
     7  H    0.230123
     8  N   -0.242853
     9  O    0.163698
    10  O    0.163737
    11  C   -0.315021
    12  H    0.307625
    13  C   -0.436288
    14  H    0.435521
    15  Br   0.231426
 Sum of Mulliken charges =   1.00000

 Dipole moment (field-independent basis, Debye):
    X=              8.4038    Y=             -1.1884    Z=             -1.0359  Tot=              8.5504
 Quadrupole moment (field-independent basis, Debye-Ang):
   XX=            -46.4786   YY=            -50.8790   ZZ=            -61.6584
   XY=             -4.2332   XZ=             -4.1095   YZ=              3.1364

 Normal termination of Gaussian 16 at Thu May  2 14:25:37 2024.
