 Gaussian 16, Revision A.03,
 Gaussian 16:  ES64L-G16RevA.03 25-Dec-2016

 --------------------------------------------------------------------
 #p B3LYP/6-311+G** #p TD=(singlets,nstates=30)IOp(6/8=3) IOp(9/40=4)
 --------------------------------------------------------------------

 --------------------------------
 Scan Step 231, Bond Length 1.655
 --------------------------------
 Symbolic Z-matrix:
 Charge =  0 Multiplicity = 1

                         Standard orientation:
 ---------------------------------------------------------------------
 Center     Atomic      Atomic             Coordinates (Angstroms)
 Number     Number       Type             X           Y           Z
 ---------------------------------------------------------------------
      1          6           0        0.000000    0.000000   -0.753581
      2          1           0        0.000000    0.937260   -1.344931
      3          1           0       -0.000000   -0.937260   -1.344931
      4          8           0        0.000000    0.000000    0.901419
 ---------------------------------------------------------------------

 SCF Done:  E(RB3LYP) =  -114.407433785     A.U. after   10 cycles

 Excitation energies and oscillator strengths:

 Excited State   1:      Singlet-A2     1.7889 eV  693.07 nm  f=0.0000  <S**2>=0.000
       3 -> 27         0.00105
       3 -> 38         0.00075
       3 -> 46         0.00333
       4 -> 27         0.00061
       4 -> 38        -0.00010
       4 -> 46        -0.00123
       5 ->  9         0.00573
       5 -> 13         0.00103
       5 -> 18         0.00255
       5 -> 23         0.00159
       5 -> 28         0.00217
       5 -> 31        -0.00011
       5 -> 37         0.00119
       5 -> 44         0.00030
       5 -> 52         0.00029
       6 -> 27        -0.00063
       6 -> 38        -0.00072
       6 -> 46         0.00124
       7 -> 12        -0.00099
       7 -> 16         0.00491
       7 -> 19        -0.00419
       7 -> 22        -0.00090
       7 -> 25         0.00085
       7 -> 30        -0.00164
       7 -> 33         0.00034
       7 -> 49         0.00012
       7 -> 50         0.00014
       7 -> 53         0.00043
       8 ->  9         0.70901
       8 -> 13        -0.01131
       8 -> 18         0.02146
       8 -> 23        -0.00270
       8 -> 28         0.01093
       8 -> 31         0.00128
       8 -> 37         0.00060
       8 -> 48        -0.00031
       8 -> 52         0.00193
       3 <- 27         0.00044
       3 <- 38         0.00049
       3 <- 46         0.00337
       4 <- 27         0.00108
       4 <- 38         0.00023
       4 <- 46        -0.00098
       5 <-  9        -0.00010
       5 <- 13        -0.00047
       5 <- 18        -0.00060
       5 <- 23         0.00024
       5 <- 28        -0.00042
       5 <- 31         0.00031
       5 <- 37         0.00068
       6 <- 38        -0.00058
       6 <- 46         0.00095
       7 <- 12         0.00093
       7 <- 16        -0.01025
       7 <- 19         0.00421
       7 <- 22         0.00667
       7 <- 25         0.00057
       7 <- 30         0.00539
       7 <- 33        -0.00045
       7 <- 36         0.00062
       7 <- 40        -0.00039
       7 <- 42         0.00015
       7 <- 49        -0.00043
       7 <- 53         0.00146
       8 <-  9        -0.05701
       8 <- 13         0.00023
       8 <- 18        -0.00690
       8 <- 28        -0.00250
       8 <- 31        -0.00068
       8 <- 37        -0.00038
       8 <- 48         0.00011
       8 <- 52         0.00050
 This state for optimization and/or second-order correction.
 Total Energy, E(TD-HF/TD-DFT) =  -114.341692024
 Copying the excited state density for this state as the 1-particle RhoCI density.

 Excited State   2:      Singlet-A1     4.6358 eV  267.45 nm  f=0.0622  <S**2>=0.000
       3 -> 10        -0.01776
       3 -> 11        -0.01003
       3 -> 14         0.00827
       3 -> 15         0.00362
       3 -> 17        -0.00343
       3 -> 20        -0.00398
       3 -> 21        -0.00062
       3 -> 24         0.00191
       3 -> 26         0.00322
       3 -> 29        -0.00128
       3 -> 32         0.00276
       3 -> 34         0.00197
       3 -> 35        -0.00118
       3 -> 39         0.00072
       3 -> 43         0.00047
       3 -> 45         0.00033
       3 -> 47         0.00228
       3 -> 51         0.00118
       3 -> 54         0.00013
       4 -> 10        -0.00819
       4 -> 11         0.01302
       4 -> 14         0.00434
       4 -> 15        -0.00959
       4 -> 17         0.00295
       4 -> 20         0.00439
       4 -> 21         0.00040
       4 -> 24        -0.00469
       4 -> 26         0.00467
       4 -> 29         0.00099
       4 -> 32        -0.00136
       4 -> 34        -0.00143
       4 -> 35         0.00042
       4 -> 41         0.00012
       4 -> 43        -0.00049
       4 -> 45        -0.00083
       4 -> 47        -0.00110
       4 -> 51        -0.00033
       4 -> 54         0.00012
       5 -> 12         0.01518
       5 -> 16         0.00849
       5 -> 19         0.00143
       5 -> 22         0.00752
       5 -> 25         0.00733
       5 -> 33        -0.00291
       5 -> 36         0.00278
       5 -> 40        -0.00140
       5 -> 42         0.00070
       5 -> 49         0.00039
       5 -> 50        -0.00072
       5 -> 53        -0.00011
       6 -> 10         0.18233
       6 -> 11         0.08805
       6 -> 14        -0.08612
       6 -> 15        -0.04932
       6 -> 17        -0.01922
       6 -> 20        -0.00815
       6 -> 21         0.01138
       6 -> 24        -0.01242
       6 -> 26        -0.00584
       6 -> 29        -0.00733
       6 -> 32         0.00136
       6 -> 34         0.00142
       6 -> 35        -0.00040
       6 -> 39         0.00096
       6 -> 41        -0.00033
       6 -> 43         0.00085
       6 -> 45         0.00082
       6 -> 47         0.00112
       6 -> 51         0.00079
       6 -> 54        -0.00076
       7 ->  9         0.68244
       7 -> 13        -0.00168
       7 -> 18        -0.01637
       7 -> 23        -0.00075
       7 -> 28        -0.00066
       7 -> 31        -0.00312
       7 -> 37         0.00103
       7 -> 44        -0.00104
       7 -> 48         0.00033
       7 -> 52         0.00105
       8 -> 12        -0.00775
       8 -> 16         0.06044
       8 -> 19        -0.02301
       8 -> 22        -0.02278
       8 -> 25         0.00038
       8 -> 30        -0.01107
       8 -> 33         0.00185
       8 -> 36        -0.00209
       8 -> 40         0.00101
       8 -> 42        -0.00036
       8 -> 49         0.00049
       8 -> 50         0.00021
       8 -> 53        -0.00065
       3 <- 10        -0.01243
       3 <- 11        -0.00743
       3 <- 14         0.00632
       3 <- 15         0.00231
       3 <- 17        -0.00181
       3 <- 20        -0.00301
       3 <- 21        -0.00102
       3 <- 24         0.00111
       3 <- 26         0.00183
       3 <- 29        -0.00077
       3 <- 32         0.00251
       3 <- 34         0.00121
       3 <- 35        -0.00102
       3 <- 39         0.00066
       3 <- 43         0.00057
       3 <- 45         0.00052
       3 <- 47         0.00236
       3 <- 51         0.00116
       3 <- 54         0.00024
       4 <- 10        -0.00382
       4 <- 11         0.00844
       4 <- 14         0.00237
       4 <- 15        -0.00588
       4 <- 17         0.00156
       4 <- 20         0.00398
       4 <- 21         0.00027
       4 <- 24        -0.00329
       4 <- 26         0.00378
       4 <- 29         0.00024
       4 <- 32        -0.00163
       4 <- 34        -0.00124
       4 <- 35         0.00068
       4 <- 43        -0.00047
       4 <- 45        -0.00088
       4 <- 47        -0.00072
       4 <- 51        -0.00018
       5 <- 12         0.00734
       5 <- 16         0.00462
       5 <- 19         0.00103
       5 <- 22         0.00484
       5 <- 25         0.00516
       5 <- 30         0.00012
       5 <- 33        -0.00230
       5 <- 36         0.00229
       5 <- 40        -0.00124
       5 <- 42         0.00059
       5 <- 49         0.00035
       5 <- 50        -0.00066
       5 <- 53        -0.00010
       6 <- 10         0.05666
       6 <- 11         0.02974
       6 <- 14        -0.03530
       6 <- 15        -0.02216
       6 <- 17        -0.00985
       6 <- 20        -0.00568
       6 <- 21         0.00688
       6 <- 24        -0.00772
       6 <- 26        -0.00338
       6 <- 29        -0.00509
       6 <- 32         0.00176
       6 <- 34         0.00171
       6 <- 35        -0.00072
       6 <- 39         0.00099
       6 <- 41        -0.00024
       6 <- 43         0.00071
       6 <- 45         0.00070
       6 <- 47         0.00068
       6 <- 51         0.00062
       6 <- 54        -0.00065
       7 <-  9        -0.12695
       7 <- 13         0.00645
       7 <- 18        -0.01335
       7 <- 23         0.00281
       7 <- 28        -0.00334
       7 <- 31        -0.00148
       7 <- 37         0.00041
       7 <- 44        -0.00066
       7 <- 48        -0.00024
       7 <- 52         0.00093
       8 <- 12        -0.00211
       8 <- 16         0.02337
       8 <- 19        -0.01067
       8 <- 22        -0.01298
       8 <- 30        -0.00821
       8 <- 33         0.00140
       8 <- 36        -0.00162
       8 <- 40         0.00082
       8 <- 42        -0.00029
       8 <- 49         0.00031
       8 <- 50         0.00017
       8 <- 53        -0.00060

 Excited State   3:      Singlet-B1     5.0183 eV  247.06 nm  f=0.0013  <S**2>=0.000
       3 ->  9        -0.02754
       3 -> 13         0.00148
       3 -> 18        -0.00437
       3 -> 23         0.00161
       3 -> 28        -0.00084
       3 -> 31        -0.00049
       3 -> 44         0.00023
       3 -> 48         0.00099
       3 -> 52         0.00092
       4 ->  9         0.01280
       4 -> 13        -0.00261
       4 -> 18         0.00019
       4 -> 23        -0.00235
       4 -> 28         0.00027
       4 -> 31        -0.00146
       4 -> 37        -0.00039
       4 -> 44         0.00013
       4 -> 48        -0.00099
       4 -> 52        -0.00052
       5 -> 38         0.00201
       5 -> 46         0.00078
       6 ->  9         0.70350
       6 -> 13        -0.01924
       6 -> 18         0.01612
       6 -> 23        -0.01077
       6 -> 28         0.00399
       6 -> 31         0.00307
       6 -> 37        -0.00206
       6 -> 44        -0.00263
       6 -> 48         0.00397
       6 -> 52         0.00136
       7 -> 10         0.06403
       7 -> 11         0.02641
       7 -> 14        -0.01980
       7 -> 15        -0.00628
       7 -> 17        -0.00898
       7 -> 20         0.00315
       7 -> 21         0.00051
       7 -> 24        -0.00092
       7 -> 26        -0.00176
       7 -> 29        -0.00385
       7 -> 32        -0.00044
       7 -> 34         0.00089
       7 -> 35         0.00171
       7 -> 39         0.00016
       7 -> 41        -0.00043
       7 -> 43         0.00052
       7 -> 47         0.00408
       7 -> 51         0.00119
       7 -> 54         0.00033
       8 -> 27         0.00036
       8 -> 46         0.00508
       3 <-  9        -0.00928
       3 <- 13        -0.00073
       3 <- 18        -0.00280
       3 <- 23        -0.00060
       3 <- 28        -0.00051
       3 <- 31        -0.00070
       3 <- 37         0.00010
       3 <- 44        -0.00022
       3 <- 48         0.00114
       3 <- 52         0.00075
       4 <-  9         0.00670
       4 <- 13        -0.00035
       4 <- 18         0.00181
       4 <- 23        -0.00069
       4 <- 28         0.00154
       4 <- 31        -0.00097
       4 <- 37        -0.00022
       4 <- 48        -0.00086
       4 <- 52        -0.00029
       5 <- 27        -0.00052
       5 <- 38         0.00165
       5 <- 46         0.00069
       6 <-  9        -0.02716
       6 <- 13         0.00173
       6 <- 18        -0.00347
       6 <- 23        -0.00024
       6 <- 28        -0.00350
       6 <- 31         0.00102
       6 <- 37        -0.00176
       6 <- 44        -0.00133
       6 <- 48         0.00355
       6 <- 52         0.00042
       7 <- 10        -0.02297
       7 <- 11        -0.01196
       7 <- 14         0.01514
       7 <- 15         0.01097
       7 <- 17         0.00184
       7 <- 20         0.00462
       7 <- 21        -0.00404
       7 <- 24         0.00440
       7 <- 26         0.00170
       7 <- 29         0.00131
       7 <- 34         0.00097
       7 <- 35         0.00244
       7 <- 39         0.00048
       7 <- 43         0.00036
       7 <- 45        -0.00023
       7 <- 47         0.00375
       7 <- 51         0.00112
       7 <- 54         0.00104
       8 <- 27         0.00084
       8 <- 38         0.00022
       8 <- 46         0.00474

 Excited State   4:      Singlet-B2     5.5181 eV  224.69 nm  f=0.0094  <S**2>=0.000
       3 -> 12        -0.00150
       3 -> 16         0.00198
       3 -> 19        -0.00463
       3 -> 22         0.00067
       3 -> 25         0.00060
       3 -> 30        -0.00335
       3 -> 33        -0.00015
       3 -> 36         0.00211
       3 -> 40        -0.00180
       3 -> 42         0.00032
       3 -> 49        -0.00305
       3 -> 50         0.00022
       3 -> 53         0.00031
       4 -> 12         0.00045
       4 -> 16        -0.00245
       4 -> 19         0.00031
       4 -> 22         0.00280
       4 -> 25        -0.00154
       4 -> 30         0.00142
       4 -> 33        -0.00046
       4 -> 36         0.00053
       4 -> 40         0.00048
       4 -> 49         0.00053
       4 -> 50        -0.00012
       5 -> 10         0.00954
       5 -> 11         0.00467
       5 -> 14        -0.00968
       5 -> 15         0.00423
       5 -> 17         0.00015
       5 -> 20         0.00216
       5 -> 21         0.00548
       5 -> 24         0.00182
       5 -> 26        -0.00149
       5 -> 29        -0.00199
       5 -> 32        -0.00188
       5 -> 34        -0.00101
       5 -> 35        -0.00031
       5 -> 39        -0.00101
       5 -> 41         0.00066
       5 -> 45         0.00013
       5 -> 47        -0.00077
       5 -> 51         0.00047
       5 -> 54        -0.00024
       6 -> 12         0.00303
       6 -> 16        -0.00201
       6 -> 19         0.00342
       6 -> 22        -0.00032
       6 -> 25        -0.00091
       6 -> 30        -0.00044
       6 -> 33         0.00022
       6 -> 36        -0.00199
       6 -> 40         0.00163
       6 -> 42        -0.00050
       6 -> 49         0.00164
       6 -> 53        -0.00039
       7 -> 27        -0.00068
       7 -> 38         0.00073
       7 -> 46         0.00375
       8 -> 10         0.66625
       8 -> 11         0.20089
       8 -> 14        -0.11551
       8 -> 15        -0.04927
       8 -> 17        -0.01513
       8 -> 21         0.00749
       8 -> 24        -0.00690
       8 -> 26        -0.00556
       8 -> 29        -0.01077
       8 -> 32        -0.00351
       8 -> 34        -0.00195
       8 -> 39        -0.00072
       8 -> 41         0.00011
       8 -> 43        -0.00030
       8 -> 45         0.00148
       8 -> 47        -0.00454
       8 -> 51         0.00217
       8 -> 54        -0.00191
       3 <- 12        -0.00054
       3 <- 16         0.00057
       3 <- 19        -0.00219
       3 <- 22         0.00093
       3 <- 25         0.00055
       3 <- 30        -0.00133
       3 <- 33        -0.00012
       3 <- 36         0.00159
       3 <- 40        -0.00159
       3 <- 42         0.00026
       3 <- 49        -0.00313
       3 <- 50         0.00019
       3 <- 53         0.00086
       4 <- 16        -0.00223
       4 <- 22         0.00266
       4 <- 25        -0.00096
       4 <- 30         0.00134
       4 <- 33        -0.00053
       4 <- 36         0.00076
       4 <- 40         0.00017
       4 <- 49         0.00039
       5 <- 10        -0.00026
       5 <- 11        -0.00145
       5 <- 14        -0.00112
       5 <- 15         0.00368
       5 <- 17         0.00021
       5 <- 20         0.00065
       5 <- 21         0.00208
       5 <- 24         0.00236
       5 <- 26        -0.00041
       5 <- 29        -0.00048
       5 <- 32        -0.00014
       5 <- 34        -0.00022
       5 <- 39        -0.00036
       5 <- 41         0.00069
       5 <- 43         0.00011
       5 <- 45         0.00041
       5 <- 47        -0.00067
       5 <- 51         0.00025
       6 <- 12        -0.00011
       6 <- 16         0.00610
       6 <- 19        -0.00280
       6 <- 22        -0.00441
       6 <- 25        -0.00067
       6 <- 30        -0.00515
       6 <- 33         0.00052
       6 <- 36        -0.00197
       6 <- 40         0.00165
       6 <- 42        -0.00057
       6 <- 49         0.00186
       6 <- 53        -0.00117
       7 <- 27        -0.00066
       7 <- 38         0.00057
       7 <- 46         0.00312
       8 <- 10        -0.02097
       8 <- 11        -0.01134
       8 <- 14         0.01134
       8 <- 15         0.00366
       8 <- 17         0.00061
       8 <- 20        -0.00264
       8 <- 21        -0.00217
       8 <- 24         0.00151
       8 <- 26         0.00188
       8 <- 29        -0.00060
       8 <- 32         0.00272
       8 <- 34         0.00130
       8 <- 35        -0.00040
       8 <- 39         0.00151
       8 <- 41         0.00049
       8 <- 43         0.00042
       8 <- 45         0.00219
       8 <- 47        -0.00348
       8 <- 51         0.00139
       8 <- 54        -0.00049

 Excited State   5:      Singlet-B1     6.5891 eV  188.16 nm  f=0.0074  <S**2>=0.000
       3 ->  9        -0.01463
       3 -> 13         0.00091
       3 -> 18        -0.00313
       3 -> 23         0.00105
       3 -> 28        -0.00343
       3 -> 31        -0.00157
       3 -> 44         0.00051
       3 -> 48        -0.00217
       4 ->  9        -0.03530
       4 -> 13         0.00640
       4 -> 18         0.00153
       4 -> 23         0.00465
       4 -> 28         0.00206
       4 -> 31        -0.00026
       4 -> 37         0.00037
       4 -> 44        -0.00045
       4 -> 48         0.00052
       4 -> 52         0.00011
       5 -> 27        -0.00740
       5 -> 38        -0.00307
       5 -> 46         0.00057
       6 ->  9        -0.06951
       6 -> 13        -0.00363
       6 -> 18         0.00232
       6 -> 23        -0.00126
       6 -> 28         0.00330
       6 -> 31        -0.00361
       6 -> 37         0.00184
       6 -> 48         0.00097
       6 -> 52        -0.00048
       7 -> 10         0.67223
       7 -> 11         0.17101
       7 -> 14        -0.10244
       7 -> 15        -0.05202
       7 -> 17        -0.00936
       7 -> 20        -0.00523
       7 -> 21         0.00344
       7 -> 24        -0.00946
       7 -> 26        -0.00770
       7 -> 29        -0.00648
       7 -> 32        -0.00147
       7 -> 34        -0.00394
       7 -> 35        -0.00204
       7 -> 39        -0.00068
       7 -> 43         0.00057
       7 -> 45         0.00079
       7 -> 47         0.00208
       7 -> 51         0.00106
       7 -> 54        -0.00127
       8 -> 27         0.00123
       8 -> 38         0.00034
       8 -> 46         0.00241
       3 <-  9        -0.00306
       3 <- 13         0.00066
       3 <- 18        -0.00127
       3 <- 23         0.00064
       3 <- 28        -0.00210
       3 <- 31        -0.00030
       3 <- 37        -0.00021
       3 <- 44         0.00022
       3 <- 48        -0.00236
       3 <- 52         0.00043
       4 <-  9        -0.01055
       4 <- 13         0.00232
       4 <- 18         0.00056
       4 <- 23         0.00220
       4 <- 28         0.00182
       4 <- 31        -0.00038
       4 <- 37         0.00044
       4 <- 44        -0.00068
       4 <- 48         0.00011
       5 <- 27        -0.00482
       5 <- 38        -0.00231
       5 <- 46         0.00051
       6 <-  9        -0.02330

 The electronic state is 1-A1.
 Alpha  occ. eigenvalues --  -19.17377 -10.33014  -0.91793  -0.70145  -0.48916
 Alpha  occ. eigenvalues --   -0.40947  -0.32415  -0.28917
 Alpha virt. eigenvalues --   -0.15246  -0.02387   0.00719   0.04078   0.06115
 Alpha virt. eigenvalues --    0.07985   0.12523   0.14153   0.18903   0.21309
 Alpha virt. eigenvalues --    0.23983   0.30232   0.38896   0.40694   0.50890

 Mulliken charges:
               1
     1  C   -0.070630
     2  H    0.183384
     3  H    0.183384
     4  O   -0.296139
 Sum of Mulliken charges =  -0.00000

 Dipole moment (field-independent basis, Debye):
    X=             -0.0000    Y=              0.0000    Z=             -3.8668  Tot=              3.8668
 Quadrupole moment (field-independent basis, Debye-Ang):
   XX=            -12.8225   YY=            -11.9249   ZZ=            -11.1509
   XY=              0.0000   XZ=              0.0000   YZ=              0.0000

 Normal termination of Gaussian 16 at Fri Sep 17 10:53:04 2021.
