 Gaussian 16, Revision C.01,
 Gaussian 16:  ES64L-G16RevC.01  3-Jul-2019

 ----------------------------------------
 #P wB97XD/6-311+G* NoSymm #P Field=Z-291
 ----------------------------------------

 -------
 TitleMe
 -------
 Symbolic Z-matrix:
 Charge =  1 Multiplicity = 1

                          Input orientation:
 ---------------------------------------------------------------------
 Center     Atomic      Atomic             Coordinates (Angstroms)
 Number     Number       Type             X           Y           Z
 ---------------------------------------------------------------------
      1          6           0        0.519300    1.233000   -0.031900
      2          6           0        1.944500    1.269200   -0.036700
      3          6           0        2.620400    0.092800   -0.025000
      4          6           0       -0.196000    0.030100    0.001000
      5          1           0       -0.020700    2.174200   -0.043400
      6          1           0        2.482800    2.208900   -0.036100
      7          1           0       -1.277700    0.039900    0.011700
      8          7           0        4.092100    0.095900    0.036600
      9          8           0        4.639300   -1.021700    0.144600
     10          8           0        4.664900    1.198400   -0.023300
     11          6           0        0.494300   -1.167100    0.021000
     12          1           0       -0.032500   -2.114900    0.054500
     13          6           0        1.962900   -1.216500   -0.021100
     14          1           0        2.443600   -1.963100    0.615100
     15         35           0        2.173000   -1.949100   -1.906200
 ---------------------------------------------------------------------

 SCF Done:  E(RwB97XD) =  -3010.55326473     A.U. after   22 cycles

 Alpha  occ. eigenvalues -- -483.36496 -62.91574 -56.71182 -56.70731 -56.70727
 Alpha  occ. eigenvalues --  -19.47169 -19.47079 -14.86609 -10.61088 -10.61038
 Alpha  occ. eigenvalues --  -10.59202 -10.59148 -10.55199 -10.54473  -9.07418
 Alpha  occ. eigenvalues --   -6.89865  -6.88350  -6.88345  -2.99823  -2.99414
 Alpha  occ. eigenvalues --   -2.99410  -2.98195  -2.98195  -1.50800  -1.33740
 Alpha  occ. eigenvalues --   -1.24657  -1.15930  -1.14252  -1.08473  -1.02279
 Alpha  occ. eigenvalues --   -0.97354  -0.92361  -0.86264  -0.82405  -0.81713
 Alpha  occ. eigenvalues --   -0.81272  -0.79578  -0.77569  -0.77117  -0.74914
 Alpha  occ. eigenvalues --   -0.70455  -0.69438  -0.66207  -0.63983  -0.62280
 Alpha  occ. eigenvalues --   -0.58851  -0.58180  -0.56905  -0.56635
 Alpha virt. eigenvalues --   -0.32811  -0.24717  -0.21758  -0.19574  -0.17520
 Alpha virt. eigenvalues --   -0.16084  -0.14470  -0.12075  -0.10426  -0.09840
 Alpha virt. eigenvalues --   -0.06863  -0.06424  -0.04495  -0.03783  -0.02976

 Mulliken charges:
               1
     1  C   -0.036841
     2  C    0.054491
     3  C   -0.105139
     4  C   -0.380924
     5  H    0.356694
     6  H    0.362221
     7  H    0.346149
     8  N   -0.188696
     9  O    0.095084
    10  O    0.080006
    11  C   -0.113207
    12  H    0.371028
    13  C   -0.234663
    14  H    0.504532
    15  Br  -0.110734
 Sum of Mulliken charges =   1.00000

 Dipole moment (field-independent basis, Debye):
    X=              2.4120    Y=              0.2204    Z=              4.5114  Tot=              5.1205
 Quadrupole moment (field-independent basis, Debye-Ang):
   XX=            -67.7488   YY=            -53.0426   ZZ=            -69.7658
   XY=             -0.7530   XZ=              8.2626   YZ=             -2.6985

 Normal termination of Gaussian 16 at Thu May  2 14:21:55 2024.
