 Gaussian 16, Revision A.03,
 Gaussian 16:  ES64L-G16RevA.03 25-Dec-2016

 --------------------------------------------------------------------
 #p B3LYP/6-311+G** #p TD=(singlets,nstates=30)IOp(6/8=3) IOp(9/40=4)
 --------------------------------------------------------------------

 ---------------------------------------------
 Scan Step 165, Bond Length 1.3250000000000002
 ---------------------------------------------
 Symbolic Z-matrix:
 Charge =  0 Multiplicity = 1

                         Standard orientation:
 ---------------------------------------------------------------------
 Center     Atomic      Atomic             Coordinates (Angstroms)
 Number     Number       Type             X           Y           Z
 ---------------------------------------------------------------------
      1          6           0        0.000000   -0.000000   -0.588581
      2          1           0        0.000000    0.937260   -1.179931
      3          1           0       -0.000000   -0.937260   -1.179931
      4          8           0        0.000000    0.000000    0.736419
 ---------------------------------------------------------------------

 SCF Done:  E(RB3LYP) =  -114.523350633     A.U. after    9 cycles

 Excitation energies and oscillator strengths:

 Excited State   1:      Singlet-A2     3.2578 eV  380.57 nm  f=0.0000  <S**2>=0.000
       3 -> 27         0.00206
       3 -> 38         0.00171
       3 -> 45         0.00282
       4 -> 27         0.00144
       4 -> 38        -0.00040
       4 -> 45        -0.00140
       5 ->  9         0.01803
       5 -> 13        -0.00111
       5 -> 17         0.00489
       5 -> 23         0.00080
       5 -> 29         0.00419
       5 -> 31        -0.00136
       5 -> 37         0.00277
       5 -> 44         0.00053
       5 -> 48         0.00013
       5 -> 52         0.00065
       6 -> 27        -0.00038
       6 -> 38        -0.00088
       6 -> 45         0.00173
       7 -> 12        -0.00064
       7 -> 15         0.00351
       7 -> 18        -0.00322
       7 -> 22         0.00017
       7 -> 25         0.00137
       7 -> 30        -0.00108
       7 -> 33         0.00045
       7 -> 35         0.00014
       7 -> 40         0.00014
       7 -> 42        -0.00012
       7 -> 49         0.00022
       7 -> 50         0.00030
       7 -> 53         0.00048
       8 ->  9         0.70649
       8 -> 13        -0.02986
       8 -> 17         0.02247
       8 -> 23        -0.00822
       8 -> 29         0.01025
       8 -> 31        -0.00129
       8 -> 37         0.00037
       8 -> 48        -0.00027
       8 -> 52         0.00182
       3 <- 27         0.00126
       3 <- 38         0.00138
       3 <- 45         0.00290
       4 <- 27         0.00220
       4 <- 38         0.00014
       4 <- 45        -0.00116
       5 <-  9        -0.00057
       5 <- 13        -0.00075
       5 <- 17        -0.00100
       5 <- 23         0.00048
       5 <- 29        -0.00071
       5 <- 31         0.00068
       5 <- 37         0.00139
       5 <- 44         0.00020
       5 <- 48         0.00013
       5 <- 52         0.00017
       6 <- 27         0.00023
       6 <- 38        -0.00077
       6 <- 45         0.00135
       7 <- 12        -0.00051
       7 <- 15        -0.00829
       7 <- 18         0.00130
       7 <- 22         0.00748
       7 <- 25         0.00015
       7 <- 30         0.00413
       7 <- 33        -0.00113
       7 <- 35         0.00202
       7 <- 40         0.00087
       7 <- 50         0.00020
       7 <- 53         0.00137
       8 <-  9        -0.03044
       8 <- 13         0.00207
       8 <- 17        -0.00495
       8 <- 23         0.00072
       8 <- 29        -0.00142
       8 <- 31        -0.00058
       8 <- 37        -0.00108
       8 <- 52         0.00051
 This state for optimization and/or second-order correction.
 Total Energy, E(TD-HF/TD-DFT) =  -114.403626999
 Copying the excited state density for this state as the 1-particle RhoCI density.

 Excited State   2:      Singlet-B2     6.9497 eV  178.40 nm  f=0.0173  <S**2>=0.000
       3 -> 12         0.00170
       3 -> 15         0.00060
       3 -> 18         0.00134
       3 -> 22        -0.00034
       3 -> 25         0.00117
       3 -> 33         0.00027
       3 -> 35        -0.00055
       3 -> 40        -0.00025
       3 -> 49         0.00019
       4 -> 12        -0.00233
       4 -> 15         0.00209
       4 -> 18         0.00177
       4 -> 22        -0.00319
       4 -> 25         0.00302
       4 -> 30         0.00033
       4 -> 33        -0.00025
       4 -> 35         0.00039
       4 -> 40         0.00043
       4 -> 42        -0.00013
       5 -> 10        -0.00845
       5 -> 11        -0.00629
       5 -> 14         0.00722
       5 -> 16        -0.00059
       5 -> 19        -0.00347
       5 -> 20         0.00249
       5 -> 21         0.00567
       5 -> 24        -0.00077
       5 -> 26         0.00200
       5 -> 28         0.00096
       5 -> 32        -0.00107
       5 -> 34        -0.00098
       5 -> 36        -0.00019
       5 -> 39        -0.00020
       5 -> 41        -0.00052
       5 -> 43        -0.00045
       5 -> 46        -0.00015
       5 -> 54         0.00013
       6 -> 12        -0.00106
       6 -> 15         0.00135
       6 -> 18         0.00096
       6 -> 22        -0.00213
       6 -> 25         0.00089
       6 -> 30        -0.00050
       6 -> 33        -0.00030
       6 -> 35         0.00068
       6 -> 42        -0.00015
       6 -> 49         0.00039
       6 -> 50        -0.00019
       7 -> 38        -0.00071
       8 -> 10         0.70278
       8 -> 11        -0.07131
       8 -> 14         0.02185
       8 -> 16        -0.00315
       8 -> 19        -0.00302
       8 -> 20         0.01760
       8 -> 21        -0.00216
       8 -> 26         0.00311
       8 -> 28         0.00124
       8 -> 32         0.00091
       8 -> 34         0.00060
       8 -> 36         0.00026
       8 -> 39         0.00030
       8 -> 41        -0.00026
       8 -> 43         0.00059
       8 -> 46        -0.00024
       8 -> 47         0.00017
       8 -> 51        -0.00020
       8 -> 54         0.00023
       3 <- 12         0.00038
       3 <- 15         0.00049
       3 <- 18         0.00051
       3 <- 22        -0.00054
       3 <- 25         0.00063
       3 <- 33         0.00023
       3 <- 35        -0.00049
       3 <- 40        -0.00026
       3 <- 49         0.00024
       4 <- 12         0.00078
       4 <- 15         0.00198
       4 <- 18         0.00168
       4 <- 22        -0.00202
       4 <- 25         0.00203
       4 <- 30         0.00023
       4 <- 35         0.00015
       4 <- 40         0.00010
       4 <- 42        -0.00022
       4 <- 50        -0.00014
       5 <- 10         0.00222
       5 <- 11        -0.00023
       5 <- 14         0.00453
       5 <- 16        -0.00048
       5 <- 19        -0.00043
       5 <- 20         0.00066
       5 <- 21         0.00157
       5 <- 24        -0.00220
       5 <- 26         0.00137
       5 <- 28         0.00011
       5 <- 32        -0.00081
       5 <- 34        -0.00085
       5 <- 36        -0.00022
       5 <- 39        -0.00012
       5 <- 41        -0.00034
       5 <- 43        -0.00036
       5 <- 46        -0.00014
       6 <- 15        -0.00036
       6 <- 18         0.00091
       6 <- 22        -0.00033
       6 <- 25         0.00029
       6 <- 30         0.00043
       6 <- 33        -0.00035
       6 <- 35         0.00070
       6 <- 42        -0.00013
       6 <- 49         0.00031
       6 <- 50        -0.00021
       6 <- 53         0.00018
       7 <- 38        -0.00053
       7 <- 45         0.00010
       8 <- 10        -0.00138
       8 <- 11        -0.00073
       8 <- 14        -0.00403
       8 <- 16        -0.00061
       8 <- 19         0.00065
       8 <- 20        -0.00071
       8 <- 21        -0.00138
       8 <- 24         0.00161
       8 <- 26        -0.00090
       8 <- 28        -0.00036
       8 <- 32         0.00082
       8 <- 36         0.00031
       8 <- 39         0.00016
       8 <- 43         0.00034

 Excited State   3:      Singlet-B2     7.6631 eV  161.79 nm  f=0.0285  <S**2>=0.000
       3 -> 12        -0.00036
       3 -> 15        -0.00116
       3 -> 18         0.00133
       3 -> 22         0.00054
       3 -> 30         0.00278
       3 -> 33         0.00017
       3 -> 35        -0.00076
       3 -> 40        -0.00063
       3 -> 49         0.00073
       3 -> 50        -0.00017
       4 -> 12         0.00226
       4 -> 15         0.00062
       4 -> 18         0.00148
       4 -> 22        -0.00149
       4 -> 25         0.00262
       4 -> 30        -0.00151
       4 -> 33         0.00048
       4 -> 35        -0.00061
       4 -> 49         0.00021
       5 -> 10        -0.00419
       5 -> 14         0.01056
       5 -> 16        -0.00643
       5 -> 19         0.00032
       5 -> 20        -0.00451
       5 -> 21         0.00311
       5 -> 24        -0.00068
       5 -> 26         0.00183
       5 -> 28         0.00151
       5 -> 34        -0.00071
       5 -> 36        -0.00049
       5 -> 39         0.00052
       5 -> 41        -0.00063
       5 -> 43         0.00023
       5 -> 46         0.00093
       5 -> 47         0.00013
       5 -> 51        -0.00045
       6 -> 12        -0.00263
       6 -> 15        -0.00117
       6 -> 18        -0.00072
       6 -> 22         0.00099
       6 -> 25         0.00017
       6 -> 30         0.00125
       6 -> 33        -0.00054
       6 -> 35         0.00149
       6 -> 40         0.00121
       6 -> 49        -0.00140
       6 -> 50         0.00024
       6 -> 53         0.00013
       7 -> 27         0.00037
       7 -> 38        -0.00076
       7 -> 45        -0.00223
       8 -> 10         0.07104
       8 -> 11         0.70220
       8 -> 14         0.00257
       8 -> 16         0.00844
       8 -> 19        -0.03996
       8 -> 20        -0.00544
       8 -> 21        -0.00227
       8 -> 24         0.00112
       8 -> 26        -0.00017
       8 -> 28         0.00283
       8 -> 32         0.00010
       8 -> 34        -0.00022
       8 -> 36        -0.00036
       8 -> 39        -0.00027
       8 -> 41        -0.00100
       8 -> 43         0.00041
       8 -> 46         0.00270
       8 -> 51        -0.00123
       3 <- 12         0.00034
       3 <- 15        -0.00038
       3 <- 18         0.00110
       3 <- 25         0.00015
       3 <- 30         0.00145
       3 <- 33         0.00028
       3 <- 35        -0.00075
       3 <- 40        -0.00058
       3 <- 49         0.00068
       3 <- 50        -0.00011
       3 <- 53        -0.00037
       4 <- 12         0.00026
       4 <- 15         0.00092
       4 <- 18         0.00028
       4 <- 22        -0.00119
       4 <- 25         0.00114
       4 <- 30        -0.00084
       4 <- 33         0.00046
       4 <- 35        -0.00035
       4 <- 49         0.00016
       5 <- 10         0.00111
       5 <- 11        -0.00147
       5 <- 14         0.00276
       5 <- 16        -0.00043
       5 <- 19         0.00172
       5 <- 20        -0.00028
       5 <- 21         0.00092
       5 <- 24        -0.00143
       5 <- 26         0.00019
       5 <- 28         0.00061
       5 <- 32        -0.00075
       5 <- 34         0.00016
       5 <- 39         0.00013
       5 <- 41        -0.00067
       5 <- 43         0.00012
       5 <- 46         0.00090
       5 <- 51        -0.00030
       6 <- 12        -0.00024
       6 <- 15        -0.00134
       6 <- 18         0.00052
       6 <- 22         0.00110
       6 <- 25        -0.00016
       6 <- 30         0.00142
       6 <- 33        -0.00051
       6 <- 35         0.00136
       6 <- 40         0.00099
       6 <- 49        -0.00115
       6 <- 50         0.00017
       6 <- 53         0.00013
       7 <- 27         0.00045
       7 <- 38        -0.00061
       7 <- 45        -0.00185
       8 <- 10        -0.00101
       8 <- 11        -0.00259
       8 <- 14        -0.00371
       8 <- 16         0.00035
       8 <- 19         0.00597
       8 <- 20         0.00106
       8 <- 21        -0.00189
       8 <- 24        -0.00055
       8 <- 26        -0.00165
       8 <- 28         0.00076
       8 <- 32        -0.00142
       8 <- 34         0.00177
       8 <- 39        -0.00083
       8 <- 41        -0.00098
       8 <- 43         0.00018
       8 <- 46         0.00218
       8 <- 47        -0.00027
       8 <- 51        -0.00080

 Excited State   4:      Singlet-B1     7.7645 eV  159.68 nm  f=0.0013  <S**2>=0.000
       3 ->  9        -0.03351
       3 -> 13         0.00421
       3 -> 17        -0.00665
       3 -> 23         0.00353
       3 -> 29        -0.00223
       3 -> 31        -0.00039
       3 -> 44         0.00057
       3 -> 48         0.00032
       3 -> 52         0.00112
       4 ->  9         0.01655
       4 -> 13        -0.00273
       4 -> 17         0.00087
       4 -> 23        -0.00249
       4 -> 29         0.00012
       4 -> 31        -0.00228
       4 -> 37        -0.00044
       4 -> 48        -0.00156
       4 -> 52        -0.00092
       5 -> 27        -0.00152
       5 -> 38         0.00204
       5 -> 45         0.00245
       6 ->  9         0.70540
       6 -> 13        -0.03089
       6 -> 17         0.02159
       6 -> 23        -0.01226
       6 -> 29         0.00716
       6 -> 31         0.00390
       6 -> 37        -0.00261
       6 -> 44        -0.00351
       6 -> 48         0.00535
       6 -> 52         0.00190
       7 -> 10         0.00156
       7 -> 11         0.00453
       7 -> 14        -0.00053
       7 -> 16        -0.01200
       7 -> 19        -0.00234
       7 -> 20         0.00205
       7 -> 21         0.00301
       7 -> 24         0.00199
       7 -> 26         0.00129
       7 -> 28        -0.00474
       7 -> 32        -0.00127
       7 -> 34         0.00018
       7 -> 36        -0.00156
       7 -> 39         0.00022
       7 -> 41        -0.00184
       7 -> 43         0.00096
       7 -> 46         0.00476
       7 -> 47         0.00245
       7 -> 51         0.00111
       7 -> 54         0.00056
       8 -> 27         0.00242
       8 -> 38         0.00082
       8 -> 45         0.00671
       3 <-  9        -0.01055
       3 <- 13         0.00050
       3 <- 17        -0.00335
       3 <- 23         0.00029
       3 <- 29        -0.00138
       3 <- 31        -0.00029
       3 <- 37        -0.00013
       3 <- 44        -0.00015
       3 <- 48         0.00060
       3 <- 52         0.00090
       4 <-  9         0.00570
       4 <- 17         0.00248
       4 <- 23        -0.00029
       4 <- 29         0.00224
       4 <- 31        -0.00210
       4 <- 37         0.00010
       4 <- 44         0.00020
       4 <- 48        -0.00134
       4 <- 52        -0.00051
       5 <- 27        -0.00163
       5 <- 38         0.00155
       5 <- 45         0.00216
       6 <-  9        -0.02165
       6 <- 13         0.00277
       6 <- 17        -0.00303
       6 <- 23         0.00040
       6 <- 29        -0.00230
       6 <- 31         0.00288
       6 <- 37        -0.00259
       6 <- 44        -0.00216
       6 <- 48         0.00469
       6 <- 52         0.00069
       7 <- 10         0.00202
       7 <- 11         0.00339
       7 <- 14         0.00114
       7 <- 16         0.00075
       7 <- 19        -0.01059
       7 <- 20         0.00805
       7 <- 21         0.00695
       7 <- 24         0.00636
       7 <- 26         0.00374
       7 <- 28         0.00058
       7 <- 32        -0.00117
       7 <- 34         0.00153
       7 <- 36        -0.00250
       7 <- 39         0.00045
       7 <- 41        -0.00128
       7 <- 43         0.00092
       7 <- 46         0.00428
       7 <- 47         0.00201
       7 <- 51         0.00078
       7 <- 54         0.00104
       8 <- 27         0.00227
       8 <- 38         0.00086
       8 <- 45         0.00594

 Excited State   5:      Singlet-A1     7.9361 eV  156.23 nm  f=0.0562  <S**2>=0.000
       3 -> 10         0.00537
       3 -> 11         0.01185
       3 -> 14         0.00657
       3 -> 16        -0.00127
       3 -> 19        -0.02168
       3 -> 20         0.00439
       3 -> 21         0.00661
       3 -> 24         0.00669
       3 -> 26         0.00886
       3 -> 28         0.00194
       3 -> 32         0.00288
       3 -> 34        -0.00377
       3 -> 36        -0.00199
       3 -> 39         0.00138
       3 -> 41         0.00013
       3 -> 43         0.00069
       3 -> 46         0.00168
       3 -> 47         0.00043
       3 -> 54         0.00018
       4 -> 10         0.02750
       4 -> 11        -0.00863
       4 -> 14         0.01667
       4 -> 16         0.00161
       4 -> 19         0.00781
       4 -> 20         0.00971
       4 -> 24        -0.01030
       4 -> 26         0.00643
       4 -> 28         0.00060
       4 -> 32        -0.00142
       4 -> 34         0.00301
       4 -> 36         0.00076
       4 -> 39        -0.00015
       4 -> 46        -0.00080
       4 -> 47        -0.00132
       5 -> 12         0.03273
       5 -> 15         0.03327
       5 -> 18         0.00628
       5 -> 22        -0.00126
       5 -> 25         0.01519
       5 -> 30        -0.00349
       5 -> 33        -0.00271
       5 -> 35         0.00138
       5 -> 40         0.00145
       5 -> 42         0.00065
       5 -> 49         0.00049
       5 -> 50        -0.00030
       5 -> 53        -0.00039
       6 -> 10        -0.02153
       6 -> 11        -0.04135
       6 -> 14        -0.01198
       6 -> 16        -0.02715
       6 -> 19         0.07124
       6 -> 20        -0.04056
       6 -> 21        -0.02910
       6 -> 24        -0.02709
       6 -> 26        -0.01347
       6 -> 28        -0.01147
       6 -> 32        -0.00023
       6 -> 34        -0.00314
       6 -> 36         0.00233
       6 -> 41        -0.00099
       6 -> 43         0.00033
       6 -> 46         0.00067
       6 -> 47         0.00181
       6 -> 51         0.00067
       6 -> 54        -0.00022
       7 ->  9         0.60184
       7 -> 13         0.03329
       7 -> 17        -0.02509
       7 -> 23         0.00979
       7 -> 29        -0.00544
       7 -> 31        -0.00134
       7 -> 37         0.00021
       7 -> 44        -0.00037
       7 -> 48         0.00036
       7 -> 52         0.00080
       8 -> 12         0.32849
       8 -> 15         0.13911
       8 -> 18        -0.00961
       8 -> 22        -0.04458
       8 -> 25         0.00642
       8 -> 30        -0.01384
       8 -> 33         0.00640
       8 -> 35        -0.00777
       8 -> 40        -0.00252
       8 -> 42        -0.00033
       8 -> 49         0.00030
       8 -> 50         0.00048
       8 -> 53        -0.00105
       3 <- 10         0.00243
       3 <- 11         0.00700
       3 <- 14         0.00433
       3 <- 16        -0.00013
       3 <- 19        -0.01343
       3 <- 20         0.00282
       3 <- 21         0.00522
       3 <- 24         0.00446
       3 <- 26         0.00578
       3 <- 28         0.00139
       3 <- 32         0.00258
       3 <- 34        -0.00238
       3 <- 36        -0.00137
       3 <- 39         0.00103
       3 <- 43         0.00066
       3 <- 46         0.00179
       3 <- 47         0.00068
       3 <- 54         0.00020
       4 <- 10         0.01071
       4 <- 11        -0.00387
       4 <- 14         0.00721
       4 <- 16         0.00031
       4 <- 19         0.00415
       4 <- 20         0.00539
       4 <- 21        -0.00023
       4 <- 24        -0.00573
       4 <- 26         0.00424
       4 <- 32        -0.00185
       4 <- 34         0.00210
       4 <- 36         0.00041
       4 <- 39        -0.00018
       4 <- 41        -0.00021
       4 <- 46        -0.00031
       4 <- 47        -0.00122
       5 <- 12         0.00915
       5 <- 15         0.01229
       5 <- 18         0.00272
       5 <- 22        -0.00054
       5 <- 25         0.00814

 The electronic state is 1-A1.
 Alpha  occ. eigenvalues --  -19.15883 -10.29745  -1.01691  -0.66363  -0.49396
 Alpha  occ. eigenvalues --   -0.44904  -0.38011  -0.28785
 Alpha virt. eigenvalues --   -0.09465   0.00393   0.03551   0.04193   0.06283
 Alpha virt. eigenvalues --    0.12326   0.16553   0.18807   0.21854   0.23575
 Alpha virt. eigenvalues --    0.23867   0.30601   0.42357   0.44424   0.50933

 Mulliken charges:
               1
     1  C   -0.007823
     2  H    0.140212
     3  H    0.140212
     4  O   -0.272601
 Sum of Mulliken charges =  -0.00000

 Dipole moment (field-independent basis, Debye):
    X=             -0.0000    Y=             -0.0000    Z=             -2.9889  Tot=              2.9889
 Quadrupole moment (field-independent basis, Debye-Ang):
   XX=            -12.1048   YY=            -11.7377   ZZ=            -12.1075
   XY=              0.0000   XZ=              0.0000   YZ=             -0.0000

 Normal termination of Gaussian 16 at Fri Sep 17 10:52:46 2021.
