 Gaussian 16, Revision C.01,
 Gaussian 16:  ES64L-G16RevC.01  3-Jul-2019

 ---------------------------------------
 #P wB97XD/6-311+G* NoSymm #P Field=Y+97
 ---------------------------------------

 -------
 TitleMe
 -------
 Symbolic Z-matrix:
 Charge =  1 Multiplicity = 1

                          Input orientation:
 ---------------------------------------------------------------------
 Center     Atomic      Atomic             Coordinates (Angstroms)
 Number     Number       Type             X           Y           Z
 ---------------------------------------------------------------------
      1          6           0        0.519300    1.233000   -0.031900
      2          6           0        1.944500    1.269200   -0.036700
      3          6           0        2.620400    0.092800   -0.025000
      4          6           0       -0.196000    0.030100    0.001000
      5          1           0       -0.020700    2.174200   -0.043400
      6          1           0        2.482800    2.208900   -0.036100
      7          1           0       -1.277700    0.039900    0.011700
      8          7           0        4.092100    0.095900    0.036600
      9          8           0        4.639300   -1.021700    0.144600
     10          8           0        4.664900    1.198400   -0.023300
     11          6           0        0.494300   -1.167100    0.021000
     12          1           0       -0.032500   -2.114900    0.054500
     13          6           0        1.962900   -1.216500   -0.021100
     14          1           0        2.443600   -1.963100    0.615100
     15         35           0        2.173000   -1.949100   -1.906200
 ---------------------------------------------------------------------

 SCF Done:  E(RwB97XD) =  -3010.54079445     A.U. after   20 cycles

 Alpha  occ. eigenvalues -- -483.29631 -62.84629 -56.64346 -56.63749 -56.63732
 Alpha  occ. eigenvalues --  -19.46227 -19.46023 -14.85505 -10.58873 -10.56729
 Alpha  occ. eigenvalues --  -10.56589 -10.56442 -10.53455 -10.52279  -9.00417
 Alpha  occ. eigenvalues --   -6.83157  -6.81202  -6.81151  -2.93046  -2.92538
 Alpha  occ. eigenvalues --   -2.92497  -2.90933  -2.90932  -1.49794  -1.32760
 Alpha  occ. eigenvalues --   -1.21813  -1.12364  -1.11705  -1.03790  -0.99656
 Alpha  occ. eigenvalues --   -0.94755  -0.90140  -0.84669  -0.80609  -0.79871
 Alpha  occ. eigenvalues --   -0.79665  -0.77438  -0.76006  -0.75012  -0.71280
 Alpha  occ. eigenvalues --   -0.67963  -0.67120  -0.62718  -0.58963  -0.57258
 Alpha  occ. eigenvalues --   -0.56473  -0.55796  -0.54330  -0.53281
 Alpha virt. eigenvalues --   -0.29357  -0.20185  -0.14492  -0.12614  -0.11230
 Alpha virt. eigenvalues --   -0.07430  -0.06112  -0.05101  -0.04126  -0.03300
 Alpha virt. eigenvalues --   -0.01820  -0.01100  -0.00349  -0.00123   0.00866

 Mulliken charges:
               1
     1  C   -0.104777
     2  C    0.188743
     3  C   -0.095882
     4  C   -0.359968
     5  H    0.303584
     6  H    0.311855
     7  H    0.328308
     8  N   -0.243797
     9  O    0.142578
    10  O    0.014278
    11  C   -0.188469
    12  H    0.390654
    13  C   -0.378000
    14  H    0.434352
    15  Br   0.256541
 Sum of Mulliken charges =   1.00000

 Dipole moment (field-independent basis, Debye):
    X=              2.9268    Y=             -3.7551    Z=             -1.1455  Tot=              4.8968
 Quadrupole moment (field-independent basis, Debye-Ang):
   XX=            -67.7095   YY=            -49.8199   ZZ=            -61.1378
   XY=             -8.9218   XZ=             -3.4241   YZ=              3.9648

 Normal termination of Gaussian 16 at Thu May  2 14:19:06 2024.
