 Gaussian 16, Revision C.01,
 Gaussian 16:  ES64L-G16RevC.01  3-Jul-2019

 ----------------------------------------
 #P wB97XD/6-311+G* NoSymm #P Field=Y-194
 ----------------------------------------

 -------
 TitleMe
 -------
 Symbolic Z-matrix:
 Charge =  1 Multiplicity = 1

                          Input orientation:
 ---------------------------------------------------------------------
 Center     Atomic      Atomic             Coordinates (Angstroms)
 Number     Number       Type             X           Y           Z
 ---------------------------------------------------------------------
      1          6           0        0.519300    1.233000   -0.031900
      2          6           0        1.944500    1.269200   -0.036700
      3          6           0        2.620400    0.092800   -0.025000
      4          6           0       -0.196000    0.030100    0.001000
      5          1           0       -0.020700    2.174200   -0.043400
      6          1           0        2.482800    2.208900   -0.036100
      7          1           0       -1.277700    0.039900    0.011700
      8          7           0        4.092100    0.095900    0.036600
      9          8           0        4.639300   -1.021700    0.144600
     10          8           0        4.664900    1.198400   -0.023300
     11          6           0        0.494300   -1.167100    0.021000
     12          1           0       -0.032500   -2.114900    0.054500
     13          6           0        1.962900   -1.216500   -0.021100
     14          1           0        2.443600   -1.963100    0.615100
     15         35           0        2.173000   -1.949100   -1.906200
 ---------------------------------------------------------------------

 SCF Done:  E(RwB97XD) =  -3010.54675214     A.U. after   22 cycles

 Alpha  occ. eigenvalues -- -483.34280 -62.89334 -56.68984 -56.68472 -56.68468
 Alpha  occ. eigenvalues --  -19.46712 -19.46330 -14.85874 -10.60825 -10.59710
 Alpha  occ. eigenvalues --  -10.58751 -10.57317 -10.53780 -10.53120  -9.05162
 Alpha  occ. eigenvalues --   -6.87722  -6.86034  -6.86019  -2.97654  -2.97204
 Alpha  occ. eigenvalues --   -2.97192  -2.95840  -2.95839  -1.50162  -1.33119
 Alpha  occ. eigenvalues --   -1.23716  -1.14309  -1.13380  -1.06797  -1.01360
 Alpha  occ. eigenvalues --   -0.96428  -0.91385  -0.85820  -0.81531  -0.81127
 Alpha  occ. eigenvalues --   -0.80471  -0.78955  -0.76642  -0.76297  -0.73429
 Alpha  occ. eigenvalues --   -0.69302  -0.67846  -0.64417  -0.61920  -0.59962
 Alpha  occ. eigenvalues --   -0.58049  -0.57512  -0.56151  -0.55790
 Alpha virt. eigenvalues --   -0.31416  -0.20823  -0.18272  -0.17468  -0.13808
 Alpha virt. eigenvalues --   -0.13092  -0.12068  -0.08716  -0.07782  -0.06848
 Alpha virt. eigenvalues --   -0.05639  -0.04606  -0.03955  -0.03634  -0.01427

 Mulliken charges:
               1
     1  C   -0.120603
     2  C    0.221921
     3  C   -0.041734
     4  C   -0.288374
     5  H    0.421284
     6  H    0.419168
     7  H    0.337123
     8  N   -0.234100
     9  O   -0.015692
    10  O    0.181926
    11  C   -0.201534
    12  H    0.282849
    13  C   -0.366582
    14  H    0.363267
    15  Br   0.041083
 Sum of Mulliken charges =   1.00000

 Dipole moment (field-independent basis, Debye):
    X=              2.4899    Y=              4.8091    Z=              0.0078  Tot=              5.4155
 Quadrupole moment (field-independent basis, Debye-Ang):
   XX=            -68.1575   YY=            -54.6695   ZZ=            -64.3355
   XY=              8.9217   XZ=             -0.9119   YZ=             -0.5763

 Normal termination of Gaussian 16 at Thu May  2 14:21:27 2024.
