 Gaussian 16, Revision A.03,
 Gaussian 16:  ES64L-G16RevA.03 25-Dec-2016

 --------------------------------------------------------------------
 #p B3LYP/6-311+G** #p TD=(singlets,nstates=30)IOp(6/8=3) IOp(9/40=4)
 --------------------------------------------------------------------

 -------------------------------
 Scan Step 274, Bond Length 1.87
 -------------------------------
 Symbolic Z-matrix:
 Charge =  0 Multiplicity = 1

                         Standard orientation:
 ---------------------------------------------------------------------
 Center     Atomic      Atomic             Coordinates (Angstroms)
 Number     Number       Type             X           Y           Z
 ---------------------------------------------------------------------
      1          6           0        0.000000    0.000000   -0.861081
      2          1           0        0.000000    0.937260   -1.452431
      3          1           0       -0.000000   -0.937260   -1.452431
      4          8           0        0.000000   -0.000000    1.008919
 ---------------------------------------------------------------------

 SCF Done:  E(RB3LYP) =  -114.334103014     A.U. after   13 cycles

 Excitation energies and oscillator strengths:

 Excited State   1:      Singlet-A2     1.2071 eV 1027.11 nm  f=0.0000  <S**2>=0.000
       3 -> 27         0.00066
       3 -> 38         0.00040
       3 -> 46         0.00333
       4 -> 27         0.00035
       4 -> 46        -0.00091
       5 ->  9         0.00112
       5 -> 13         0.00109
       5 -> 18         0.00156
       5 -> 23         0.00131
       5 -> 28         0.00118
       5 -> 37         0.00068
       5 -> 44         0.00019
       5 -> 52         0.00016
       6 -> 27        -0.00055
       6 -> 38        -0.00053
       6 -> 46         0.00089
       7 -> 12        -0.00133
       7 -> 16         0.00535
       7 -> 19        -0.00478
       7 -> 22        -0.00113
       7 -> 25        -0.00052
       7 -> 29        -0.00196
       7 -> 33         0.00027
       7 -> 49         0.00013
       7 -> 53         0.00037
       8 ->  9         0.71125
       8 -> 13        -0.00616
       8 -> 18         0.02064
       8 -> 23        -0.00072
       8 -> 28         0.01012
       8 -> 31         0.00161
       8 -> 37         0.00047
       8 -> 48        -0.00029
       8 -> 52         0.00184
       3 <- 27         0.00016
       3 <- 38         0.00019
       3 <- 46         0.00335
       4 <- 27         0.00066
       4 <- 38         0.00018
       4 <- 46        -0.00070
       5 <-  9         0.00044
       5 <- 13        -0.00031
       5 <- 18        -0.00034
       5 <- 23         0.00015
       5 <- 28        -0.00026
       5 <- 31         0.00021
       5 <- 37         0.00039
       6 <- 38        -0.00040
       6 <- 46         0.00064
       7 <- 12         0.00196
       7 <- 16        -0.01054
       7 <- 19         0.00582
       7 <- 22         0.00551
       7 <- 25        -0.00064
       7 <- 29         0.00564
       7 <- 33        -0.00034
       7 <- 35         0.00010
       7 <- 49        -0.00048
       7 <- 53         0.00144
       8 <-  9        -0.07891
       8 <- 13        -0.00054
       8 <- 18        -0.00785
       8 <- 23        -0.00038
       8 <- 28        -0.00278
       8 <- 31        -0.00083
       8 <- 37        -0.00018
       8 <- 48         0.00013
       8 <- 52         0.00043
 This state for optimization and/or second-order correction.
 Total Energy, E(TD-HF/TD-DFT) =  -114.289742304
 Copying the excited state density for this state as the 1-particle RhoCI density.

 Excited State   2:      Singlet-A1     3.1743 eV  390.59 nm  f=0.0270  <S**2>=0.000
       3 -> 10        -0.01357
       3 -> 11        -0.00264
       3 -> 14         0.00085
       3 -> 15         0.00027
       3 -> 17        -0.00299
       3 -> 20        -0.00340
       3 -> 21         0.00055
       3 -> 24         0.00035
       3 -> 26         0.00108
       3 -> 30        -0.00030
       3 -> 32         0.00272
       3 -> 34         0.00101
       3 -> 36        -0.00094
       3 -> 39        -0.00037
       3 -> 43         0.00050
       3 -> 45        -0.00109
       3 -> 47         0.00231
       3 -> 50         0.00160
       3 -> 54        -0.00010
       4 -> 10        -0.00098
       4 -> 11         0.00987
       4 -> 14         0.00164
       4 -> 15        -0.00743
       4 -> 17         0.00210
       4 -> 20         0.00186
       4 -> 21         0.00024
       4 -> 24        -0.00370
       4 -> 26         0.00306
       4 -> 30         0.00020
       4 -> 32        -0.00116
       4 -> 34        -0.00072
       4 -> 39        -0.00023
       4 -> 43        -0.00044
       4 -> 45         0.00076
       4 -> 47        -0.00073
       4 -> 50        -0.00025
       4 -> 54         0.00014
       5 -> 12         0.00891
       5 -> 16         0.00207
       5 -> 19         0.00109
       5 -> 22         0.00658
       5 -> 25        -0.00421
       5 -> 29         0.00034
       5 -> 33        -0.00234
       5 -> 35         0.00272
       5 -> 40        -0.00093
       5 -> 42        -0.00099
       5 -> 49         0.00010
       5 -> 51        -0.00087
       6 -> 10         0.25625
       6 -> 11         0.03352
       6 -> 14        -0.03726
       6 -> 15        -0.02106
       6 -> 17        -0.01518
       6 -> 20        -0.00095
       6 -> 21         0.00477
       6 -> 24        -0.00735
       6 -> 26        -0.00284
       6 -> 30        -0.00331
       6 -> 32         0.00443
       6 -> 34         0.00137
       6 -> 36         0.00060
       6 -> 39        -0.00142
       6 -> 43         0.00080
       6 -> 45        -0.00091
       6 -> 47         0.00075
       6 -> 50         0.00051
       6 -> 54        -0.00098
       7 ->  9         0.67483
       7 -> 13        -0.00740
       7 -> 18        -0.00956
       7 -> 23        -0.00281
       7 -> 28         0.00145
       7 -> 31        -0.00329
       7 -> 37         0.00134
       7 -> 44        -0.00096
       7 -> 52         0.00105
       8 -> 12        -0.00731
       8 -> 16         0.03366
       8 -> 19        -0.01774
       8 -> 22        -0.01133
       8 -> 29        -0.00754
       8 -> 33         0.00088
       8 -> 35        -0.00059
       8 -> 40         0.00021
       8 -> 42         0.00022
       8 -> 51         0.00013
       8 -> 53        -0.00049
       3 <- 10        -0.01090
       3 <- 11        -0.00246
       3 <- 14         0.00071
       3 <- 15        -0.00019
       3 <- 17        -0.00174
       3 <- 20        -0.00300
       3 <- 21         0.00011
       3 <- 24        -0.00012
       3 <- 26         0.00022
       3 <- 32         0.00234
       3 <- 34         0.00052
       3 <- 36        -0.00097
       3 <- 39        -0.00032
       3 <- 43         0.00054
       3 <- 45        -0.00121
       3 <- 47         0.00232
       3 <- 50         0.00160
       4 <- 10         0.00049
       4 <- 11         0.00740
       4 <- 14         0.00136
       4 <- 15        -0.00520
       4 <- 17         0.00130
       4 <- 20         0.00239
       4 <- 24        -0.00286
       4 <- 26         0.00275
       4 <- 30        -0.00035
       4 <- 32        -0.00117
       4 <- 34        -0.00061
       4 <- 36         0.00034
       4 <- 39        -0.00027
       4 <- 43        -0.00039
       4 <- 45         0.00069
       4 <- 47        -0.00044
       4 <- 50        -0.00013
       4 <- 54         0.00012
       5 <- 12         0.00555
       5 <- 16         0.00144
       5 <- 19         0.00089
       5 <- 22         0.00483
       5 <- 25        -0.00335
       5 <- 29         0.00035
       5 <- 33        -0.00197
       5 <- 35         0.00237
       5 <- 40        -0.00086
       5 <- 42        -0.00089
       5 <- 49         0.00011
       5 <- 51        -0.00082
       6 <- 10         0.08880
       6 <- 11         0.01448
       6 <- 14        -0.01867
       6 <- 15        -0.01161
       6 <- 17        -0.00943
       6 <- 20        -0.00192
       6 <- 21         0.00343
       6 <- 24        -0.00493
       6 <- 26        -0.00138
       6 <- 30        -0.00201
       6 <- 32         0.00421
       6 <- 34         0.00153
       6 <- 39        -0.00128
       6 <- 43         0.00067
       6 <- 45        -0.00066
       6 <- 47         0.00042
       6 <- 50         0.00037
       6 <- 54        -0.00090
       7 <-  9        -0.13065
       7 <- 13         0.00290
       7 <- 18        -0.01095
       7 <- 23         0.00050
       7 <- 28        -0.00147
       7 <- 31        -0.00159
       7 <- 37         0.00064
       7 <- 44        -0.00081
       7 <- 48        -0.00044
       7 <- 52         0.00097
       8 <- 12        -0.00320
       8 <- 16         0.01762
       8 <- 19        -0.01063
       8 <- 22        -0.00770
       8 <- 25         0.00013
       8 <- 29        -0.00613
       8 <- 33         0.00071
       8 <- 35        -0.00046
       8 <- 40         0.00016
       8 <- 42         0.00017
       8 <- 51         0.00011
       8 <- 53        -0.00046

 Excited State   3:      Singlet-B2     3.3950 eV  365.19 nm  f=0.0020  <S**2>=0.000
       3 -> 12        -0.00116
       3 -> 16         0.00116
       3 -> 19        -0.00376
       3 -> 22         0.00109
       3 -> 25        -0.00087
       3 -> 29        -0.00248
       3 -> 33         0.00027
       3 -> 35         0.00130
       3 -> 40        -0.00122
       3 -> 42        -0.00046
       3 -> 49        -0.00393
       3 -> 51         0.00016
       3 -> 53         0.00026
       4 -> 12         0.00037
       4 -> 16        -0.00138
       4 -> 19         0.00034
       4 -> 22         0.00167
       4 -> 25         0.00057
       4 -> 29         0.00083
       4 -> 33        -0.00031
       4 -> 35         0.00042
       4 -> 40         0.00026
       4 -> 42         0.00011
       4 -> 49         0.00073
       5 -> 10         0.00974
       5 -> 11         0.00114
       5 -> 14        -0.00302
       5 -> 15         0.00298
       5 -> 17        -0.00052
       5 -> 20         0.00192
       5 -> 21         0.00286
       5 -> 24         0.00137
       5 -> 26        -0.00044
       5 -> 30        -0.00212
       5 -> 32        -0.00108
       5 -> 34        -0.00021
       5 -> 39         0.00062
       5 -> 41         0.00039
       5 -> 47        -0.00036
       5 -> 50         0.00024
       5 -> 54        -0.00018
       6 -> 12         0.00243
       6 -> 16        -0.00279
       6 -> 19         0.00420
       6 -> 22        -0.00065
       6 -> 25         0.00114
       6 -> 29         0.00023
       6 -> 33        -0.00016
       6 -> 35        -0.00117
       6 -> 40         0.00076
       6 -> 42         0.00062
       6 -> 49         0.00115
       6 -> 53        -0.00045
       7 -> 27        -0.00051
       7 -> 38         0.00031
       7 -> 46         0.00294
       8 -> 10         0.70419
       8 -> 11         0.05360
       8 -> 14        -0.05063
       8 -> 15        -0.02084
       8 -> 17        -0.01647
       8 -> 20         0.00546
       8 -> 21         0.00565
       8 -> 24        -0.00559
       8 -> 26        -0.00424
       8 -> 30        -0.01329
       8 -> 32        -0.00044
       8 -> 34        -0.00110
       8 -> 36         0.00155
       8 -> 39         0.00044
       8 -> 41        -0.00017
       8 -> 45        -0.00080
       8 -> 47        -0.00363
       8 -> 50         0.00135
       8 -> 54        -0.00246
       3 <- 12        -0.00041
       3 <- 16         0.00041
       3 <- 19        -0.00187
       3 <- 22         0.00092
       3 <- 25        -0.00079
       3 <- 29        -0.00101
       3 <- 33         0.00026
       3 <- 35         0.00085
       3 <- 40        -0.00105
       3 <- 42        -0.00030
       3 <- 49        -0.00398
       3 <- 51         0.00016
       3 <- 53         0.00071
       4 <- 12         0.00011
       4 <- 16        -0.00164
       4 <- 19         0.00019
       4 <- 22         0.00202
       4 <- 25         0.00031
       4 <- 29         0.00108
       4 <- 33        -0.00033
       4 <- 35         0.00060
       4 <- 40         0.00011
       4 <- 49         0.00051
       5 <- 10        -0.00093
       5 <- 11        -0.00059
       5 <- 14        -0.00044
       5 <- 15         0.00237
       5 <- 17         0.00019
       5 <- 20         0.00077
       5 <- 21         0.00158
       5 <- 24         0.00154
       5 <- 30        -0.00045
       5 <- 32        -0.00027
       5 <- 39         0.00029
       5 <- 41         0.00042
       5 <- 45        -0.00021
       5 <- 47        -0.00037
       5 <- 50         0.00012
       6 <- 12        -0.00087
       6 <- 16         0.00791
       6 <- 19        -0.00435
       6 <- 22        -0.00519
       6 <- 25         0.00127
       6 <- 29        -0.00614
       6 <- 33         0.00019
       6 <- 35        -0.00099
       6 <- 40         0.00075
       6 <- 42         0.00063
       6 <- 49         0.00166
       6 <- 53        -0.00143
       7 <- 27        -0.00052
       7 <- 38         0.00025
       7 <- 46         0.00255
       8 <- 10        -0.04687
       8 <- 11        -0.00724
       8 <- 14         0.00736
       8 <- 15         0.00222
       8 <- 17         0.00218
       8 <- 20        -0.00335
       8 <- 21        -0.00123
       8 <- 24         0.00149
       8 <- 26         0.00112
       8 <- 30         0.00205
       8 <- 32         0.00264
       8 <- 34         0.00081
       8 <- 36        -0.00084
       8 <- 39        -0.00100
       8 <- 41         0.00019
       8 <- 43         0.00038
       8 <- 45        -0.00152
       8 <- 47        -0.00302
       8 <- 50         0.00115
       8 <- 54        -0.00066

 Excited State   4:      Singlet-B1     3.6084 eV  343.60 nm  f=0.0000  <S**2>=0.000
       3 ->  9        -0.02176
       3 -> 13         0.00075
       3 -> 18        -0.00368
       3 -> 23         0.00119
       3 -> 28        -0.00116
       3 -> 31        -0.00092
       3 -> 37         0.00017
       3 -> 44         0.00033
       3 -> 48        -0.00025
       3 -> 52         0.00064
       4 ->  9         0.00270
       4 -> 13        -0.00081
       4 -> 18         0.00020
       4 -> 23        -0.00077
       4 -> 28         0.00063
       4 -> 31        -0.00106
       4 -> 37        -0.00018
       4 -> 48        -0.00027
       4 -> 52        -0.00024
       5 -> 27        -0.00094
       5 -> 38         0.00097
       5 -> 46         0.00040
       6 ->  9         0.60385
       6 -> 13        -0.01541
       6 -> 18         0.01326
       6 -> 23        -0.00934
       6 -> 28         0.00373
       6 -> 31         0.00147
       6 -> 37        -0.00099
       6 -> 44        -0.00143
       6 -> 48         0.00299
       6 -> 52         0.00073
       7 -> 10         0.37201
       7 -> 11         0.03069
       7 -> 14        -0.03012
       7 -> 15        -0.01216
       7 -> 17        -0.01135
       7 -> 20         0.00404
       7 -> 21         0.00224
       7 -> 24        -0.00437
       7 -> 26        -0.00376
       7 -> 30        -0.00629
       7 -> 32         0.00071
       7 -> 36         0.00122
       7 -> 39        -0.00011
       7 -> 41        -0.00016
       7 -> 43         0.00048
       7 -> 45        -0.00084
       7 -> 47         0.00340
       7 -> 50         0.00115
       7 -> 54        -0.00058
       8 -> 27         0.00012
       8 -> 46         0.00414
       3 <-  9        -0.00724
       3 <- 13        -0.00071
       3 <- 18        -0.00242
       3 <- 23        -0.00038
       3 <- 28        -0.00069
       3 <- 31        -0.00076
       3 <- 37         0.00013
       3 <- 48        -0.00018
       3 <- 52         0.00068
       4 <-  9         0.00246
       4 <- 18         0.00130
       4 <- 23        -0.00019
       4 <- 28         0.00145
       4 <- 31        -0.00078
       4 <- 44        -0.00025
       4 <- 48        -0.00029
       4 <- 52        -0.00011
       5 <- 27        -0.00115
       5 <- 38         0.00088
       5 <- 46         0.00036
       6 <-  9        -0.04994
       6 <- 13         0.00229
       6 <- 18        -0.00576
       6 <- 23         0.00046
       6 <- 28        -0.00418
       6 <- 31        -0.00089
       6 <- 37        -0.00069
       6 <- 44        -0.00012
       6 <- 48         0.00277
       6 <- 52        -0.00031
       7 <- 10        -0.05755
       7 <- 11        -0.00902
       7 <- 14         0.01256
       7 <- 15         0.00727
       7 <- 17         0.00344
       7 <- 20         0.00152
       7 <- 21        -0.00318
       7 <- 24         0.00361
       7 <- 26         0.00179
       7 <- 30         0.00228
       7 <- 32         0.00019
       7 <- 34         0.00057
       7 <- 36         0.00069
       7 <- 39        -0.00055
       7 <- 41         0.00022
       7 <- 43         0.00027
       7 <- 45        -0.00056
       7 <- 47         0.00314
       7 <- 50         0.00133
       7 <- 54         0.00059
       8 <- 27         0.00051
       8 <- 46         0.00384

 Excited State   5:      Singlet-B1     4.1682 eV  297.45 nm  f=0.0064  <S**2>=0.000
       3 ->  9         0.00016
       3 -> 18        -0.00124
       3 -> 23         0.00016
       3 -> 28        -0.00218
       3 -> 31        -0.00120
       3 -> 48        -0.00327
       3 -> 52        -0.00031
       4 ->  9        -0.02987
       4 -> 13         0.00597
       4 -> 18         0.00075
       4 -> 23         0.00471
       4 -> 28         0.00077
       4 -> 31         0.00056
       4 -> 37         0.00035
       4 -> 44        -0.00040
       4 -> 48         0.00093
       4 -> 52         0.00019
       5 -> 27        -0.00606
       5 -> 38        -0.00364
       6 ->  9        -0.37063
       6 -> 13         0.00558
       6 -> 18        -0.00199
       6 -> 23         0.00384
       6 -> 28         0.00217
       6 -> 31        -0.00417
       6 -> 37         0.00262
       6 -> 44         0.00109
       6 -> 48        -0.00104
       6 -> 52        -0.00096
       7 -> 10         0.59892
       7 -> 11         0.03846
       7 -> 14        -0.03884
       7 -> 15        -0.02475
       7 -> 17        -0.00711
       7 -> 20        -0.00215
       7 -> 21         0.00247
       7 -> 24        -0.00807
       7 -> 26        -0.00465
       7 -> 30        -0.00681
       7 -> 32        -0.00070
       7 -> 34        -0.00348
       7 -> 36        -0.00140
       7 -> 39         0.00062
       7 -> 43         0.00040
       7 -> 45        -0.00079
       7 -> 54        -0.00165
       8 -> 27         0.00052
       8 -> 38         0.00018
       8 -> 46         0.00011
       3 <-  9         0.00047
       3 <- 13         0.00083
       3 <- 18        -0.00026
       3 <- 23         0.00066
       3 <- 28        -0.00157
       3 <- 37        -0.00028
       3 <- 44        -0.00017
       3 <- 48        -0.00337
       3 <- 52         0.00010
       4 <-  9        -0.01459
       4 <- 13         0.00292
       4 <- 23         0.00293
       4 <- 28         0.00066
       4 <- 31         0.00036
       4 <- 37         0.00035
       4 <- 44        -0.00056
       4 <- 48         0.00054
       4 <- 52         0.00015
       5 <- 27        -0.00441
       5 <- 38        -0.00305
       5 <- 46         0.00012
       6 <-  9        -0.02233
       6 <- 13        -0.00065
       6 <- 18        -0.00258
       6 <- 23         0.00060
       6 <- 28         0.00052
       6 <- 31        -0.00476
       6 <- 37         0.00249
       6 <- 44         0.00093
       6 <- 48        -0.00036
       6 <- 52        -0.00128
       7 <- 10        -0.00961
       7 <- 11        -0.00096
       7 <- 14        -0.00034
       7 <- 15        -0.00571
       7 <- 17         0.00020
       7 <- 20        -0.00491
       7 <- 21        -0.00055
       7 <- 24        -0.00291
       7 <- 26        -0.00039
       7 <- 30        -0.00035

 The electronic state is 1-A1.
 Alpha  occ. eigenvalues --  -19.17778 -10.34097  -0.88809  -0.71661  -0.49324
 Alpha  occ. eigenvalues --   -0.38444  -0.30414  -0.28649
 Alpha virt. eigenvalues --   -0.17528  -0.08394  -0.00148   0.04039   0.06088
 Alpha virt. eigenvalues --    0.06278   0.11660   0.13161   0.18678   0.20948
 Alpha virt. eigenvalues --    0.23925   0.30421   0.38493   0.39395   0.50545

 Mulliken charges:
               1
     1  C   -0.102604
     2  H    0.193438
     3  H    0.193438
     4  O   -0.284271
 Sum of Mulliken charges =   0.00000

 Dipole moment (field-independent basis, Debye):
    X=             -0.0000    Y=             -0.0000    Z=             -4.2453  Tot=              4.2453
 Quadrupole moment (field-independent basis, Debye-Ang):
   XX=            -13.0740   YY=            -12.0656   ZZ=            -10.5184
   XY=              0.0000   XZ=              0.0000   YZ=             -0.0000

 Normal termination of Gaussian 16 at Fri Sep 17 10:53:11 2021.
