 Gaussian 16, Revision C.01,
 Gaussian 16:  ES64L-G16RevC.01  3-Jul-2019

 ----------------------------------------
 #P wB97XD/6-311+G* NoSymm #P Field=Z+155
 ----------------------------------------

 -------
 TitleMe
 -------
 Symbolic Z-matrix:
 Charge =  1 Multiplicity = 1

                          Input orientation:
 ---------------------------------------------------------------------
 Center     Atomic      Atomic             Coordinates (Angstroms)
 Number     Number       Type             X           Y           Z
 ---------------------------------------------------------------------
      1          6           0        0.029500    1.339700    0.068200
      2          6           0        1.434800    1.286700    0.006400
      3          6           0        2.111800    0.051100   -0.005400
      4          6           0        1.445100   -1.137200    0.031200
      5          6           0       -0.687900    0.168200    0.110000
      6          1           0       -0.471300    2.298400    0.078100
      7          1           0        2.027300    2.196500   -0.032200
      8          1           0        1.989700   -2.076400    0.023200
      9          1           0       -1.771600    0.180400    0.158200
     10          7           0        3.586400    0.051000   -0.067500
     11          8           0        4.147100   -1.059700   -0.088100
     12          8           0        4.145000    1.163900   -0.090100
     13          6           0       -0.023600   -1.145800    0.083500
     14          1           0       -0.436700   -1.872500    0.788900
     15         35           0       -0.535900   -1.869700   -1.740800
 ---------------------------------------------------------------------

 SCF Done:  E(RwB97XD) =  -3010.54368051     A.U. after   18 cycles

 Alpha  occ. eigenvalues -- -483.28853 -62.83838 -56.63573 -56.62943 -56.62941
 Alpha  occ. eigenvalues --  -19.45095 -19.45036 -14.84595 -10.56996 -10.56475
 Alpha  occ. eigenvalues --  -10.56287 -10.56065 -10.55871 -10.52147  -8.99616
 Alpha  occ. eigenvalues --   -6.82405  -6.80354  -6.80342  -2.92282  -2.91739
 Alpha  occ. eigenvalues --   -2.91728  -2.90090  -2.90089  -1.48859  -1.31839
 Alpha  occ. eigenvalues --   -1.21631  -1.12845  -1.10759  -1.02342  -1.00181
 Alpha  occ. eigenvalues --   -0.94401  -0.90045  -0.84477  -0.79969  -0.79735
 Alpha  occ. eigenvalues --   -0.79161  -0.77508  -0.75283  -0.75044  -0.70963
 Alpha  occ. eigenvalues --   -0.68408  -0.66656  -0.62206  -0.58809  -0.56288
 Alpha  occ. eigenvalues --   -0.55379  -0.54843  -0.53498  -0.52784
 Alpha virt. eigenvalues --   -0.28405  -0.20544  -0.14421  -0.12723  -0.10770
 Alpha virt. eigenvalues --   -0.08325  -0.07861  -0.05814  -0.04317  -0.03858
 Alpha virt. eigenvalues --   -0.02385  -0.01097  -0.00422   0.00817   0.01295

 Mulliken charges:
               1
     1  C   -0.550467
     2  C    0.458276
     3  C   -0.696242
     4  C    0.263030
     5  C   -0.048703
     6  H    0.330783
     7  H    0.366873
     8  H    0.370930
     9  H    0.346475
    10  N   -0.111647
    11  O    0.032664
    12  O    0.030118
    13  C   -0.459332
    14  H    0.349297
    15  Br   0.317944
 Sum of Mulliken charges =   1.00000

 Dipole moment (field-independent basis, Debye):
    X=             -1.2092    Y=             -1.1865    Z=             -2.7230  Tot=              3.2070
 Quadrupole moment (field-independent basis, Debye-Ang):
   XX=            -71.8005   YY=            -51.2014   ZZ=            -59.9279
   XY=              1.7425   XZ=             -0.1381   YZ=              3.9530

 Normal termination of Gaussian 16 at Wed May  1 15:26:02 2024.
