 Gaussian 16, Revision C.01,
 Gaussian 16:  ES64L-G16RevC.01  3-Jul-2019

 --------------------------------------
 #P wB97XD/6-311+G* NoSymm #P Field=Y+9
 --------------------------------------

 -------
 TitleMe
 -------
 Symbolic Z-matrix:
 Charge =  1 Multiplicity = 1

                          Input orientation:
 ---------------------------------------------------------------------
 Center     Atomic      Atomic             Coordinates (Angstroms)
 Number     Number       Type             X           Y           Z
 ---------------------------------------------------------------------
      1          6           0        0.519300    1.233000   -0.031900
      2          6           0        1.944500    1.269200   -0.036700
      3          6           0        2.620400    0.092800   -0.025000
      4          6           0       -0.196000    0.030100    0.001000
      5          1           0       -0.020700    2.174200   -0.043400
      6          1           0        2.482800    2.208900   -0.036100
      7          1           0       -1.277700    0.039900    0.011700
      8          7           0        4.092100    0.095900    0.036600
      9          8           0        4.639300   -1.021700    0.144600
     10          8           0        4.664900    1.198400   -0.023300
     11          6           0        0.494300   -1.167100    0.021000
     12          1           0       -0.032500   -2.114900    0.054500
     13          6           0        1.962900   -1.216500   -0.021100
     14          1           0        2.443600   -1.963100    0.615100
     15         35           0        2.173000   -1.949100   -1.906200
 ---------------------------------------------------------------------

 SCF Done:  E(RwB97XD) =  -3010.53227238     A.U. after   19 cycles

 Alpha  occ. eigenvalues -- -483.30890 -62.85909 -56.65606 -56.65032 -56.65021
 Alpha  occ. eigenvalues --  -19.46174 -19.46142 -14.85586 -10.59096 -10.57786
 Alpha  occ. eigenvalues --  -10.57123 -10.56841 -10.53294 -10.52605  -9.01712
 Alpha  occ. eigenvalues --   -6.84402  -6.82518  -6.82484  -2.94304  -2.93809
 Alpha  occ. eigenvalues --   -2.93781  -2.92273  -2.92273  -1.49849  -1.32809
 Alpha  occ. eigenvalues --   -1.22271  -1.12709  -1.12278  -1.04569  -1.00152
 Alpha  occ. eigenvalues --   -0.95195  -0.90442  -0.84843  -0.80799  -0.80018
 Alpha  occ. eigenvalues --   -0.79969  -0.77775  -0.76115  -0.75441  -0.71808
 Alpha  occ. eigenvalues --   -0.68385  -0.67442  -0.63184  -0.59629  -0.57328
 Alpha  occ. eigenvalues --   -0.56640  -0.55926  -0.55832  -0.54354
 Alpha virt. eigenvalues --   -0.29914  -0.20287  -0.15413  -0.12931  -0.08470
 Alpha virt. eigenvalues --   -0.06036  -0.05417  -0.04529  -0.04191  -0.03139
 Alpha virt. eigenvalues --   -0.02250  -0.01293  -0.01057  -0.00393   0.00742

 Mulliken charges:
               1
     1  C   -0.109007
     2  C    0.182969
     3  C   -0.076471
     4  C   -0.335666
     5  H    0.341615
     6  H    0.346793
     7  H    0.330380
     8  N   -0.240394
     9  O    0.093349
    10  O    0.064629
    11  C   -0.201681
    12  H    0.359895
    13  C   -0.359790
    14  H    0.413405
    15  Br   0.189974
 Sum of Mulliken charges =   1.00000

 Dipole moment (field-independent basis, Debye):
    X=              2.7954    Y=             -1.1695    Z=             -0.7869  Tot=              3.1307
 Quadrupole moment (field-independent basis, Debye-Ang):
   XX=            -67.8385   YY=            -51.0069   ZZ=            -62.0670
   XY=             -3.5212   XZ=             -2.6400   YZ=              2.5976

 Normal termination of Gaussian 16 at Thu May  2 14:18:40 2024.
