 Gaussian 16, Revision A.03,
 Gaussian 16:  ES64L-G16RevA.03 25-Dec-2016

 --------------------------------------------------------------------
 #p B3LYP/6-311+G** #p TD=(singlets,nstates=30)IOp(6/8=3) IOp(9/40=4)
 --------------------------------------------------------------------

 -------------------------------
 Scan Step 166, Bond Length 1.33
 -------------------------------
 Symbolic Z-matrix:
 Charge =  0 Multiplicity = 1

                         Standard orientation:
 ---------------------------------------------------------------------
 Center     Atomic      Atomic             Coordinates (Angstroms)
 Number     Number       Type             X           Y           Z
 ---------------------------------------------------------------------
      1          6           0        0.000000   -0.000000   -0.591081
      2          1           0        0.000000    0.937260   -1.182431
      3          1           0       -0.000000   -0.937260   -1.182431
      4          8           0        0.000000    0.000000    0.738919
 ---------------------------------------------------------------------

 SCF Done:  E(RB3LYP) =  -114.522034532     A.U. after    9 cycles

 Excitation energies and oscillator strengths:

 Excited State   1:      Singlet-A2     3.2305 eV  383.79 nm  f=0.0000  <S**2>=0.000
       3 -> 27         0.00205
       3 -> 38         0.00170
       3 -> 45         0.00283
       4 -> 27         0.00143
       4 -> 38        -0.00040
       4 -> 45        -0.00140
       5 ->  9         0.01785
       5 -> 13        -0.00103
       5 -> 17         0.00485
       5 -> 23         0.00084
       5 -> 29         0.00417
       5 -> 31        -0.00132
       5 -> 37         0.00274
       5 -> 44         0.00053
       5 -> 48         0.00013
       5 -> 52         0.00064
       6 -> 27        -0.00039
       6 -> 38        -0.00088
       6 -> 45         0.00173
       7 -> 12        -0.00064
       7 -> 15         0.00354
       7 -> 18        -0.00323
       7 -> 22         0.00014
       7 -> 25         0.00136
       7 -> 30        -0.00108
       7 -> 33         0.00045
       7 -> 35         0.00013
       7 -> 40         0.00013
       7 -> 42        -0.00012
       7 -> 49         0.00021
       7 -> 50         0.00030
       7 -> 53         0.00048
       8 ->  9         0.70653
       8 -> 13        -0.02939
       8 -> 17         0.02245
       8 -> 23        -0.00812
       8 -> 29         0.01029
       8 -> 31        -0.00123
       8 -> 37         0.00039
       8 -> 48        -0.00028
       8 -> 52         0.00183
       3 <- 27         0.00124
       3 <- 38         0.00136
       3 <- 45         0.00292
       4 <- 27         0.00218
       4 <- 38         0.00014
       4 <- 45        -0.00116
       5 <-  9        -0.00057
       5 <- 13        -0.00075
       5 <- 17        -0.00100
       5 <- 23         0.00047
       5 <- 29        -0.00070
       5 <- 31         0.00067
       5 <- 37         0.00138
       5 <- 44         0.00019
       5 <- 48         0.00013
       5 <- 52         0.00017
       6 <- 27         0.00022
       6 <- 38        -0.00077
       6 <- 45         0.00135
       7 <- 12        -0.00049
       7 <- 15        -0.00834
       7 <- 18         0.00134
       7 <- 22         0.00748
       7 <- 25         0.00016
       7 <- 30         0.00416
       7 <- 33        -0.00112
       7 <- 35         0.00200
       7 <- 40         0.00087
       7 <- 50         0.00020
       7 <- 53         0.00137
       8 <-  9        -0.03075
       8 <- 13         0.00203
       8 <- 17        -0.00498
       8 <- 23         0.00071
       8 <- 29        -0.00144
       8 <- 31        -0.00057
       8 <- 37        -0.00106
       8 <- 52         0.00051
 This state for optimization and/or second-order correction.
 Total Energy, E(TD-HF/TD-DFT) =  -114.403314781
 Copying the excited state density for this state as the 1-particle RhoCI density.

 Excited State   2:      Singlet-B2     6.9509 eV  178.37 nm  f=0.0169  <S**2>=0.000
       3 -> 12         0.00171
       3 -> 15         0.00059
       3 -> 18         0.00135
       3 -> 22        -0.00034
       3 -> 25         0.00116
       3 -> 33         0.00027
       3 -> 35        -0.00056
       3 -> 40        -0.00026
       3 -> 49         0.00020
       4 -> 12        -0.00230
       4 -> 15         0.00210
       4 -> 18         0.00175
       4 -> 22        -0.00318
       4 -> 25         0.00300
       4 -> 30         0.00033
       4 -> 33        -0.00024
       4 -> 35         0.00038
       4 -> 40         0.00043
       4 -> 42        -0.00013
       5 -> 10        -0.00849
       5 -> 11        -0.00614
       5 -> 14         0.00725
       5 -> 16        -0.00058
       5 -> 19        -0.00363
       5 -> 20         0.00243
       5 -> 21         0.00565
       5 -> 24        -0.00081
       5 -> 26         0.00198
       5 -> 28         0.00096
       5 -> 32        -0.00107
       5 -> 34        -0.00098
       5 -> 36        -0.00019
       5 -> 39        -0.00020
       5 -> 41        -0.00052
       5 -> 43        -0.00044
       5 -> 46        -0.00014
       5 -> 54         0.00013
       6 -> 12        -0.00111
       6 -> 15         0.00133
       6 -> 18         0.00091
       6 -> 22        -0.00210
       6 -> 25         0.00088
       6 -> 30        -0.00050
       6 -> 33        -0.00030
       6 -> 35         0.00070
       6 -> 42        -0.00015
       6 -> 49         0.00038
       6 -> 50        -0.00018
       7 -> 38        -0.00071
       8 -> 10         0.70283
       8 -> 11        -0.07065
       8 -> 14         0.02226
       8 -> 16        -0.00298
       8 -> 19        -0.00382
       8 -> 20         0.01757
       8 -> 21        -0.00213
       8 -> 24         0.00010
       8 -> 26         0.00314
       8 -> 28         0.00127
       8 -> 32         0.00091
       8 -> 34         0.00057
       8 -> 36         0.00025
       8 -> 39         0.00030
       8 -> 41        -0.00027
       8 -> 43         0.00059
       8 -> 46        -0.00021
       8 -> 47         0.00018
       8 -> 51        -0.00021
       8 -> 54         0.00024
       3 <- 12         0.00038
       3 <- 15         0.00049
       3 <- 18         0.00051
       3 <- 22        -0.00054
       3 <- 25         0.00062
       3 <- 33         0.00023
       3 <- 35        -0.00050
       3 <- 40        -0.00026
       3 <- 49         0.00025
       4 <- 12         0.00078
       4 <- 15         0.00198
       4 <- 18         0.00167
       4 <- 22        -0.00203
       4 <- 25         0.00201
       4 <- 30         0.00023
       4 <- 35         0.00014
       4 <- 40         0.00010
       4 <- 42        -0.00022
       4 <- 50        -0.00014
       5 <- 10         0.00221
       5 <- 11        -0.00023
       5 <- 14         0.00452
       5 <- 16        -0.00047
       5 <- 19        -0.00043
       5 <- 20         0.00064
       5 <- 21         0.00155
       5 <- 24        -0.00221
       5 <- 26         0.00136
       5 <- 28         0.00011
       5 <- 32        -0.00082
       5 <- 34        -0.00085
       5 <- 36        -0.00022
       5 <- 39        -0.00012
       5 <- 41        -0.00035
       5 <- 43        -0.00036
       5 <- 46        -0.00013
       6 <- 15        -0.00038
       6 <- 18         0.00090
       6 <- 22        -0.00031
       6 <- 25         0.00029
       6 <- 30         0.00044
       6 <- 33        -0.00035
       6 <- 35         0.00072
       6 <- 42        -0.00013
       6 <- 49         0.00030
       6 <- 50        -0.00021
       6 <- 53         0.00018
       7 <- 38        -0.00053
       8 <- 10        -0.00137
       8 <- 11        -0.00075
       8 <- 14        -0.00399
       8 <- 16        -0.00062
       8 <- 19         0.00070
       8 <- 20        -0.00071
       8 <- 21        -0.00137
       8 <- 24         0.00157
       8 <- 26        -0.00091
       8 <- 28        -0.00035
       8 <- 32         0.00080
       8 <- 36         0.00031
       8 <- 39         0.00015
       8 <- 43         0.00034

 Excited State   3:      Singlet-B2     7.6591 eV  161.88 nm  f=0.0285  <S**2>=0.000
       3 -> 12        -0.00036
       3 -> 15        -0.00118
       3 -> 18         0.00136
       3 -> 22         0.00054
       3 -> 30         0.00281
       3 -> 33         0.00017
       3 -> 35        -0.00078
       3 -> 40        -0.00064
       3 -> 49         0.00075
       3 -> 50        -0.00017
       4 -> 12         0.00223
       4 -> 15         0.00064
       4 -> 18         0.00143
       4 -> 22        -0.00149
       4 -> 25         0.00260
       4 -> 30        -0.00153
       4 -> 33         0.00048
       4 -> 35        -0.00061
       4 -> 49         0.00021
       5 -> 10        -0.00400
       5 -> 14         0.01063
       5 -> 16        -0.00637
       5 -> 19         0.00039
       5 -> 20        -0.00447
       5 -> 21         0.00318
       5 -> 24        -0.00067
       5 -> 26         0.00185
       5 -> 28         0.00151
       5 -> 34        -0.00069
       5 -> 36        -0.00051
       5 -> 39         0.00053
       5 -> 41        -0.00062
       5 -> 43         0.00023
       5 -> 46         0.00093
       5 -> 47         0.00014
       5 -> 51        -0.00045
       6 -> 12        -0.00261
       6 -> 15        -0.00113
       6 -> 18        -0.00073
       6 -> 22         0.00097
       6 -> 25         0.00017
       6 -> 30         0.00125
       6 -> 33        -0.00054
       6 -> 35         0.00149
       6 -> 40         0.00121
       6 -> 49        -0.00141
       6 -> 50         0.00023
       6 -> 53         0.00013
       7 -> 27         0.00039
       7 -> 38        -0.00076
       7 -> 45        -0.00225
       8 -> 10         0.07032
       8 -> 11         0.70223
       8 -> 14         0.00308
       8 -> 16         0.00849
       8 -> 19        -0.04064
       8 -> 20        -0.00589
       8 -> 21        -0.00218
       8 -> 24         0.00121
       8 -> 26        -0.00012
       8 -> 28         0.00291
       8 -> 32         0.00011
       8 -> 34        -0.00023
       8 -> 36        -0.00038
       8 -> 39        -0.00027
       8 -> 41        -0.00099
       8 -> 43         0.00041
       8 -> 46         0.00273
       8 -> 51        -0.00124
       3 <- 12         0.00034
       3 <- 15        -0.00039
       3 <- 18         0.00111
       3 <- 25         0.00014
       3 <- 30         0.00146
       3 <- 33         0.00028
       3 <- 35        -0.00076
       3 <- 40        -0.00059
       3 <- 49         0.00069
       3 <- 50        -0.00011
       3 <- 53        -0.00038
       4 <- 12         0.00025
       4 <- 15         0.00092
       4 <- 18         0.00026
       4 <- 22        -0.00120
       4 <- 25         0.00114
       4 <- 30        -0.00085
       4 <- 33         0.00046
       4 <- 35        -0.00036
       4 <- 49         0.00015
       5 <- 10         0.00110
       5 <- 11        -0.00148
       5 <- 14         0.00276
       5 <- 16        -0.00043
       5 <- 19         0.00175
       5 <- 20        -0.00027
       5 <- 21         0.00093
       5 <- 24        -0.00143
       5 <- 26         0.00019
       5 <- 28         0.00061
       5 <- 32        -0.00073
       5 <- 34         0.00017
       5 <- 39         0.00013
       5 <- 41        -0.00066
       5 <- 43         0.00013
       5 <- 46         0.00091
       5 <- 51        -0.00030
       6 <- 12        -0.00024
       6 <- 15        -0.00138
       6 <- 18         0.00054
       6 <- 22         0.00112
       6 <- 25        -0.00016
       6 <- 30         0.00145
       6 <- 33        -0.00051
       6 <- 35         0.00137
       6 <- 40         0.00101
       6 <- 49        -0.00116
       6 <- 50         0.00017
       6 <- 53         0.00013
       7 <- 27         0.00046
       7 <- 38        -0.00060
       7 <- 45        -0.00187
       8 <- 10        -0.00104
       8 <- 11        -0.00269
       8 <- 14        -0.00373
       8 <- 16         0.00034
       8 <- 19         0.00604
       8 <- 20         0.00116
       8 <- 21        -0.00189
       8 <- 24        -0.00056
       8 <- 26        -0.00165
       8 <- 28         0.00077
       8 <- 32        -0.00144
       8 <- 34         0.00179
       8 <- 39        -0.00084
       8 <- 41        -0.00097
       8 <- 43         0.00018
       8 <- 46         0.00222
       8 <- 47        -0.00026
       8 <- 51        -0.00081

 Excited State   4:      Singlet-B1     7.7144 eV  160.72 nm  f=0.0014  <S**2>=0.000
       3 ->  9        -0.03349
       3 -> 13         0.00415
       3 -> 17        -0.00662
       3 -> 23         0.00348
       3 -> 29        -0.00220
       3 -> 31        -0.00040
       3 -> 44         0.00056
       3 -> 48         0.00034
       3 -> 52         0.00112
       4 ->  9         0.01651
       4 -> 13        -0.00273
       4 -> 17         0.00086
       4 -> 23        -0.00249
       4 -> 29         0.00013
       4 -> 31        -0.00226
       4 -> 37        -0.00044
       4 -> 48        -0.00155
       4 -> 52        -0.00092
       5 -> 27        -0.00150
       5 -> 38         0.00203
       5 -> 45         0.00241
       6 ->  9         0.70543
       6 -> 13        -0.03057
       6 -> 17         0.02148
       6 -> 23        -0.01225
       6 -> 29         0.00709
       6 -> 31         0.00392
       6 -> 37        -0.00261
       6 -> 44        -0.00350
       6 -> 48         0.00533
       6 -> 52         0.00189
       7 -> 10         0.00139
       7 -> 11         0.00412
       7 -> 14        -0.00064
       7 -> 16        -0.01195
       7 -> 19        -0.00216
       7 -> 20         0.00201
       7 -> 21         0.00293
       7 -> 24         0.00191
       7 -> 26         0.00120
       7 -> 28        -0.00474
       7 -> 32        -0.00126
       7 -> 34         0.00019
       7 -> 36        -0.00156
       7 -> 39         0.00021
       7 -> 41        -0.00181
       7 -> 43         0.00095
       7 -> 46         0.00473
       7 -> 47         0.00247
       7 -> 51         0.00111
       7 -> 54         0.00056
       8 -> 27         0.00237
       8 -> 38         0.00080
       8 -> 45         0.00670
       3 <-  9        -0.01056
       3 <- 13         0.00047
       3 <- 17        -0.00335
       3 <- 23         0.00027
       3 <- 29        -0.00137
       3 <- 31        -0.00030
       3 <- 37        -0.00013
       3 <- 44        -0.00015
       3 <- 48         0.00061
       3 <- 52         0.00090
       4 <-  9         0.00573
       4 <- 17         0.00247
       4 <- 23        -0.00029
       4 <- 29         0.00224
       4 <- 31        -0.00207
       4 <- 44         0.00020
       4 <- 48        -0.00134
       4 <- 52        -0.00051
       5 <- 27        -0.00162
       5 <- 38         0.00155
       5 <- 45         0.00213
       6 <-  9        -0.02169
       6 <- 13         0.00273
       6 <- 17        -0.00303
       6 <- 23         0.00038
       6 <- 29        -0.00233
       6 <- 31         0.00285
       6 <- 37        -0.00258
       6 <- 44        -0.00216
       6 <- 48         0.00467
       6 <- 52         0.00069
       7 <- 10         0.00207
       7 <- 11         0.00349
       7 <- 14         0.00120
       7 <- 16         0.00080
       7 <- 19        -0.01091
       7 <- 20         0.00797
       7 <- 21         0.00692
       7 <- 24         0.00630
       7 <- 26         0.00367
       7 <- 28         0.00057
       7 <- 32        -0.00116
       7 <- 34         0.00153
       7 <- 36        -0.00251
       7 <- 39         0.00045
       7 <- 41        -0.00125
       7 <- 43         0.00091
       7 <- 46         0.00426
       7 <- 47         0.00203
       7 <- 51         0.00079
       7 <- 54         0.00104
       8 <- 27         0.00224
       8 <- 38         0.00085
       8 <- 45         0.00593

 Excited State   5:      Singlet-A1     7.8840 eV  157.26 nm  f=0.1020  <S**2>=0.000
       3 -> 10         0.00539
       3 -> 11         0.01337
       3 -> 14         0.00698
       3 -> 16        -0.00141
       3 -> 19        -0.02352
       3 -> 20         0.00403
       3 -> 21         0.00698
       3 -> 24         0.00716
       3 -> 26         0.00943
       3 -> 28         0.00186
       3 -> 32         0.00315
       3 -> 34        -0.00394
       3 -> 36        -0.00215
       3 -> 39         0.00150
       3 -> 41         0.00019
       3 -> 43         0.00074
       3 -> 46         0.00181
       3 -> 47         0.00058
       3 -> 54         0.00024
       4 -> 10         0.02910
       4 -> 11        -0.01057
       4 -> 14         0.01733
       4 -> 16         0.00163
       4 -> 19         0.00842
       4 -> 20         0.01015
       4 -> 21         0.00027
       4 -> 24        -0.00958
       4 -> 26         0.00651
       4 -> 28         0.00074
       4 -> 32        -0.00141
       4 -> 34         0.00324
       4 -> 36         0.00081
       4 -> 39        -0.00018
       4 -> 46        -0.00084
       4 -> 47        -0.00147
       5 -> 12         0.03485
       5 -> 15         0.03559
       5 -> 18         0.00460
       5 -> 22        -0.00038
       5 -> 25         0.01530
       5 -> 30        -0.00371
       5 -> 33        -0.00299
       5 -> 35         0.00138
       5 -> 40         0.00160
       5 -> 42         0.00074
       5 -> 49         0.00056
       5 -> 50        -0.00037
       5 -> 53        -0.00040
       6 -> 10        -0.02731
       6 -> 11        -0.04675
       6 -> 14        -0.01513
       6 -> 16        -0.03019
       6 -> 19         0.08101
       6 -> 20        -0.04469
       6 -> 21        -0.03166
       6 -> 24        -0.02856
       6 -> 26        -0.01471
       6 -> 28        -0.01202
       6 -> 32        -0.00022
       6 -> 34        -0.00342
       6 -> 36         0.00257
       6 -> 41        -0.00110
       6 -> 43         0.00033
       6 -> 46         0.00075
       6 -> 47         0.00182
       6 -> 51         0.00070
       6 -> 54        -0.00022
       7 ->  9         0.66198
       7 -> 13         0.03268
       7 -> 17        -0.02774
       7 -> 23         0.00934
       7 -> 29        -0.00572
       7 -> 31        -0.00124
       7 -> 44        -0.00060
       7 -> 48         0.00050
       7 -> 52         0.00093
       8 -> 12         0.16134
       8 -> 15         0.15140
       8 -> 18        -0.01913
       8 -> 22        -0.04983
       8 -> 25         0.00551
       8 -> 30        -0.01507
       8 -> 33         0.00658
       8 -> 35        -0.00802
       8 -> 40        -0.00286
       8 -> 42        -0.00037
       8 -> 49         0.00048
       8 -> 50         0.00046
       8 -> 53        -0.00109
       3 <- 10         0.00256
       3 <- 11         0.00773
       3 <- 14         0.00468
       3 <- 16        -0.00020
       3 <- 19        -0.01466
       3 <- 20         0.00274
       3 <- 21         0.00556
       3 <- 24         0.00486
       3 <- 26         0.00613
       3 <- 28         0.00136
       3 <- 32         0.00279
       3 <- 34        -0.00248
       3 <- 36        -0.00148
       3 <- 39         0.00112
       3 <- 41         0.00014
       3 <- 43         0.00071
       3 <- 46         0.00191
       3 <- 47         0.00084
       3 <- 54         0.00026
       4 <- 10         0.01089
       4 <- 11        -0.00449
       4 <- 14         0.00718
       4 <- 16         0.00034
       4 <- 19         0.00453
       4 <- 20         0.00565
       4 <- 24        -0.00538
       4 <- 26         0.00434
       4 <- 32        -0.00183
       4 <- 34         0.00236
       4 <- 36         0.00045
       4 <- 39        -0.00019
       4 <- 41        -0.00018
       4 <- 46        -0.00031
       4 <- 47        -0.00135
       4 <- 51         0.00013
       5 <- 12         0.00945
       5 <- 15         0.01274
       5 <- 18         0.00216
       5 <- 22        -0.00017
       5 <- 25         0.00821

 The electronic state is 1-A1.
 Alpha  occ. eigenvalues --  -19.15913 -10.29813  -1.01476  -0.66433  -0.49363
 Alpha  occ. eigenvalues --   -0.44842  -0.37892  -0.28799
 Alpha virt. eigenvalues --   -0.09578   0.00377   0.03531   0.04190   0.06278
 Alpha virt. eigenvalues --    0.12300   0.16506   0.18814   0.21847   0.23588
 Alpha virt. eigenvalues --    0.23647   0.30550   0.42246   0.44348   0.50935

 Mulliken charges:
               1
     1  C   -0.008803
     2  H    0.141213
     3  H    0.141213
     4  O   -0.273624
 Sum of Mulliken charges =  -0.00000

 Dipole moment (field-independent basis, Debye):
    X=             -0.0000    Y=              0.0000    Z=             -3.0070  Tot=              3.0070
 Quadrupole moment (field-independent basis, Debye-Ang):
   XX=            -12.1185   YY=            -11.7390   ZZ=            -12.0936
   XY=              0.0000   XZ=              0.0000   YZ=             -0.0000

 Normal termination of Gaussian 16 at Fri Sep 17 10:52:46 2021.
