 Gaussian 16, Revision A.03,
 Gaussian 16:  ES64L-G16RevA.03 25-Dec-2016

 --------------------------------------------------------------------
 #p B3LYP/6-311+G** #p TD=(singlets,nstates=30)IOp(6/8=3) IOp(9/40=4)
 --------------------------------------------------------------------

 --------------------------------------------
 Scan Step 14, Bond Length 0.5700000000000001
 --------------------------------------------
 Symbolic Z-matrix:
 Charge =  0 Multiplicity = 1

                         Standard orientation:
 ---------------------------------------------------------------------
 Center     Atomic      Atomic             Coordinates (Angstroms)
 Number     Number       Type             X           Y           Z
 ---------------------------------------------------------------------
      1          6           0        0.000000    0.000000   -0.211081
      2          1           0        0.000000    0.937260   -0.802431
      3          1           0       -0.000000   -0.937260   -0.802431
      4          8           0        0.000000   -0.000000    0.358919
 ---------------------------------------------------------------------

 SCF Done:  E(RB3LYP) =  -110.904915629     A.U. after   10 cycles

 Excitation energies and oscillator strengths:

 Excited State   1:      Singlet-B2     4.4211 eV  280.44 nm  f=0.1465  <S**2>=0.000
       3 -> 11         0.00074
       3 -> 15         0.00113
       3 -> 19         0.00075
       3 -> 22         0.00098
       3 -> 25         0.00133
       3 -> 29         0.00010
       3 -> 31        -0.00031
       3 -> 40        -0.00046
       3 -> 43         0.00024
       3 -> 54         0.00016
       4 ->  9        -0.00249
       4 -> 12         0.00181
       4 -> 13         0.00297
       4 -> 16         0.00125
       4 -> 17         0.00184
       4 -> 20         0.00207
       4 -> 21         0.00155
       4 -> 24         0.00116
       4 -> 26        -0.00073
       4 -> 30         0.00146
       4 -> 32        -0.00098
       4 -> 33        -0.00051
       4 -> 38        -0.00052
       4 -> 42         0.00044
       4 -> 44        -0.00025
       4 -> 47        -0.00069
       4 -> 49        -0.00011
       4 -> 53         0.00015
       5 -> 28         0.00211
       5 -> 35         0.00095
       5 -> 45         0.00068
       6 -> 11        -0.00784
       6 -> 15         0.00251
       6 -> 19        -0.00139
       6 -> 22        -0.00010
       6 -> 25         0.00395
       6 -> 29         0.00095
       6 -> 31        -0.00071
       6 -> 40        -0.00015
       6 -> 43         0.00017
       6 -> 46         0.00026
       7 -> 11         0.00872
       7 -> 15         0.00470
       7 -> 19         0.00387
       7 -> 22         0.00064
       7 -> 25         0.00191
       7 -> 29        -0.00104
       7 -> 31         0.00102
       7 -> 37        -0.00063
       7 -> 43        -0.00033
       7 -> 46         0.00046
       7 -> 50         0.00042
       7 -> 54        -0.00014
       8 ->  9         0.70437
       8 -> 12        -0.00510
       8 -> 13         0.06223
       8 -> 16        -0.00556
       8 -> 17        -0.02365
       8 -> 20         0.00584
       8 -> 21         0.01144
       8 -> 24        -0.00048
       8 -> 26        -0.00100
       8 -> 30        -0.00351
       8 -> 32         0.00207
       8 -> 33         0.00023
       8 -> 38        -0.00099
       8 -> 39        -0.00021
       8 -> 42         0.00074
       8 -> 44         0.00053
       8 -> 47         0.00057
       8 -> 49         0.00026
       3 <- 11         0.00037
       3 <- 15         0.00076
       3 <- 19         0.00046
       3 <- 22         0.00083
       3 <- 25         0.00102
       3 <- 31        -0.00032
       3 <- 37         0.00010
       3 <- 40        -0.00046
       3 <- 43         0.00025
       3 <- 54         0.00017
       4 <-  9        -0.00098
       4 <- 12        -0.00014
       4 <- 13         0.00243
       4 <- 16         0.00138
       4 <- 17         0.00011
       4 <- 20         0.00137
       4 <- 21         0.00128
       4 <- 24         0.00070
       4 <- 26        -0.00127
       4 <- 30         0.00112
       4 <- 32        -0.00047
       4 <- 33        -0.00014
       4 <- 38        -0.00035
       4 <- 39         0.00014
       4 <- 42         0.00035
       4 <- 44        -0.00021
       4 <- 47        -0.00063
       5 <- 28         0.00182
       5 <- 35         0.00078
       5 <- 45         0.00057
       6 <- 11        -0.00245
       6 <- 15         0.00274
       6 <- 19        -0.00048
       6 <- 22         0.00043
       6 <- 25         0.00306
       6 <- 29         0.00058
       6 <- 31        -0.00064
       6 <- 40        -0.00015
       6 <- 43         0.00014
       6 <- 46         0.00023
       7 <- 11         0.00215
       7 <- 15         0.00226
       7 <- 19         0.00096
       7 <- 22         0.00032
       7 <- 25         0.00112
       7 <- 29        -0.00170
       7 <- 31         0.00088
       7 <- 37        -0.00039
       7 <- 43        -0.00022
       7 <- 46         0.00049
       7 <- 50         0.00051
       8 <-  9        -0.01330
       8 <- 12        -0.00736
       8 <- 13         0.02558
       8 <- 16         0.00761
       8 <- 20         0.00142
       8 <- 21         0.00613
       8 <- 24         0.00273
       8 <- 26        -0.00079
       8 <- 30        -0.00240
       8 <- 32         0.00188
       8 <- 33        -0.00036
       8 <- 38        -0.00096
       8 <- 39        -0.00024
       8 <- 42         0.00069
       8 <- 44         0.00022
       8 <- 47         0.00051
       8 <- 49         0.00016
 This state for optimization and/or second-order correction.
 Total Energy, E(TD-HF/TD-DFT) =  -110.742443348
 Copying the excited state density for this state as the 1-particle RhoCI density.

 Excited State   2:      Singlet-A2     4.8066 eV  257.95 nm  f=0.0000  <S**2>=0.000
       3 -> 28        -0.00197
       3 -> 35        -0.00102
       3 -> 45        -0.00030
       4 -> 10        -0.00077
       4 -> 14        -0.00075
       4 -> 18         0.00221
       4 -> 23        -0.00063
       4 -> 27        -0.00192
       4 -> 34         0.00025
       4 -> 36        -0.00104
       4 -> 48        -0.00015
       4 -> 52        -0.00020
       5 -> 11         0.00018
       5 -> 15        -0.00020
       5 -> 19         0.00031
       5 -> 22        -0.00067
       5 -> 25         0.00024
       5 -> 29         0.00035
       5 -> 37        -0.00031
       5 -> 40         0.00015
       5 -> 43        -0.00036
       5 -> 46        -0.00026
       5 -> 50         0.00016
       6 -> 28        -0.00316
       6 -> 35         0.00072
       6 -> 45         0.00017
       7 -> 28         0.00146
       7 -> 35        -0.00023
       7 -> 45        -0.00027
       8 -> 10         0.70668
       8 -> 14        -0.00367
       8 -> 18        -0.02524
       8 -> 23        -0.00363
       8 -> 34         0.00348
       8 -> 36        -0.00144
       8 -> 41         0.00061
       8 -> 48         0.00015
       8 -> 52         0.00027
       3 <- 28        -0.00165
       3 <- 35        -0.00089
       3 <- 45        -0.00029
       4 <- 10        -0.00021
       4 <- 14         0.00027
       4 <- 18         0.00081
       4 <- 23        -0.00013
       4 <- 27        -0.00049
       4 <- 34         0.00063
       4 <- 36        -0.00063
       4 <- 41        -0.00010
       5 <- 11         0.00044
       5 <- 15        -0.00045
       5 <- 19         0.00102
       5 <- 22        -0.00082
       5 <- 25         0.00067
       5 <- 29         0.00118
       5 <- 31         0.00011
       5 <- 37        -0.00056
       5 <- 40         0.00011
       5 <- 43        -0.00039
       5 <- 46        -0.00029
       5 <- 54        -0.00018
       6 <- 28        -0.00309
       6 <- 35         0.00086
       6 <- 45         0.00016
       7 <- 28         0.00147
       7 <- 35        -0.00035
       7 <- 45        -0.00029
       8 <- 10         0.00285
       8 <- 14         0.00211
       8 <- 18         0.00750
       8 <- 23        -0.00014
       8 <- 27        -0.00084
       8 <- 34         0.00331
       8 <- 36        -0.00116
       8 <- 41         0.00034
       8 <- 52         0.00011

 Excited State   3:      Singlet-B2     5.5160 eV  224.77 nm  f=0.0386  <S**2>=0.000
       3 -> 11        -0.00025
       3 -> 15         0.00040
       3 -> 19        -0.00048
       3 -> 22         0.00025
       3 -> 29        -0.00014
       3 -> 31         0.00013
       3 -> 37        -0.00015
       3 -> 40         0.00021
       3 -> 43        -0.00017
       3 -> 54        -0.00019
       4 ->  9         0.00083
       4 -> 12         0.00013
       4 -> 13         0.00086
       4 -> 16         0.00167
       4 -> 17        -0.00082
       4 -> 20        -0.00057
       4 -> 21         0.00090
       4 -> 24         0.00089
       4 -> 26         0.00014
       4 -> 30        -0.00203
       4 -> 32         0.00013
       4 -> 38         0.00044
       4 -> 39        -0.00089
       4 -> 42        -0.00030
       4 -> 47         0.00039
       5 -> 28        -0.00099
       5 -> 35        -0.00110
       5 -> 45        -0.00058
       6 -> 11        -0.00090
       6 -> 15         0.00402
       6 -> 19        -0.00201
       6 -> 22        -0.00028
       6 -> 25         0.00164
       6 -> 29         0.00224
       6 -> 31         0.00053
       6 -> 37         0.00047
       6 -> 40         0.00039
       6 -> 43         0.00028
       6 -> 46        -0.00021
       6 -> 50        -0.00020
       6 -> 54         0.00014
       7 -> 11        -0.00108
       7 -> 15        -0.00385
       7 -> 19        -0.00113
       7 -> 22        -0.00015
       7 -> 25        -0.00285
       7 -> 29        -0.00100
       7 -> 31        -0.00045
       7 -> 37         0.00053
       7 -> 40         0.00015
       7 -> 46        -0.00058
       7 -> 50        -0.00026
       7 -> 54         0.00018
       8 ->  9         0.00220
       8 -> 12         0.70540
       8 -> 13         0.04135
       8 -> 16         0.02464
       8 -> 17         0.00284
       8 -> 20         0.01561
       8 -> 21         0.00536
       8 -> 24        -0.00101
       8 -> 26         0.00204
       8 -> 30        -0.00313
       8 -> 32        -0.00046
       8 -> 33        -0.00024
       8 -> 38        -0.00082
       8 -> 39         0.00132
       8 -> 42         0.00094
       8 -> 44        -0.00017
       8 -> 47        -0.00021
       8 -> 51        -0.00011
       8 -> 53         0.00012
       3 <- 15         0.00032
       3 <- 19        -0.00018
       3 <- 22         0.00011
       3 <- 25         0.00020
       3 <- 31         0.00015
       3 <- 37        -0.00018
       3 <- 40         0.00018
       3 <- 43        -0.00017
       3 <- 54        -0.00023
       4 <-  9        -0.00099
       4 <- 12        -0.00021
       4 <- 13         0.00097
       4 <- 16         0.00065
       4 <- 17         0.00047
       4 <- 20        -0.00037
       4 <- 21         0.00063
       4 <- 24         0.00094
       4 <- 26         0.00028
       4 <- 30        -0.00139
       4 <- 32         0.00019
       4 <- 33        -0.00049
       4 <- 38         0.00029
       4 <- 39        -0.00064
       4 <- 42        -0.00032
       4 <- 44         0.00010
       4 <- 47         0.00036
       5 <- 28        -0.00064
       5 <- 35        -0.00097
       5 <- 45        -0.00052
       6 <- 11        -0.00079
       6 <- 15         0.00083
       6 <- 19         0.00011
       6 <- 22        -0.00055
       6 <- 25         0.00154
       6 <- 29         0.00172
       6 <- 31         0.00070
       6 <- 37         0.00046
       6 <- 40         0.00031
       6 <- 43         0.00022
       6 <- 46        -0.00017
       6 <- 50        -0.00014
       6 <- 54         0.00012
       7 <- 11         0.00034
       7 <- 15        -0.00130
       7 <- 19        -0.00053
       7 <- 22        -0.00013
       7 <- 25        -0.00175
       7 <- 29        -0.00022
       7 <- 31        -0.00033
       7 <- 37         0.00021
       7 <- 46        -0.00051
       7 <- 50        -0.00034
       8 <-  9        -0.00674
       8 <- 12         0.00066
       8 <- 13         0.01269
       8 <- 16         0.00479
       8 <- 17        -0.00179
       8 <- 20        -0.00327
       8 <- 21         0.00320
       8 <- 24         0.00055
       8 <- 30        -0.00247
       8 <- 32        -0.00044
       8 <- 33        -0.00032
       8 <- 38        -0.00067
       8 <- 39         0.00123
       8 <- 42         0.00081
       8 <- 44        -0.00012
       8 <- 47        -0.00018

 Excited State   4:      Singlet-A1     5.7625 eV  215.16 nm  f=0.0002  <S**2>=0.000
       3 ->  9         0.00164
       3 -> 12        -0.00030
       3 -> 13         0.00014
       3 -> 16        -0.00109
       3 -> 17        -0.00183
       3 -> 20        -0.00013
       3 -> 21         0.00104
       3 -> 24        -0.00116
       3 -> 26        -0.00037
       3 -> 30         0.00066
       3 -> 32         0.00048
       3 -> 33         0.00094
       3 -> 38         0.00055
       3 -> 39         0.00033
       3 -> 44        -0.00020
       3 -> 51        -0.00012
       3 -> 53        -0.00016
       4 -> 11        -0.00541
       4 -> 15        -0.00481
       4 -> 19        -0.00480
       4 -> 22        -0.00275
       4 -> 25        -0.00319
       4 -> 29        -0.00080
       4 -> 37        -0.00086
       4 -> 40        -0.00014
       4 -> 43         0.00017
       4 -> 46        -0.00012
       5 -> 10        -0.00217
       5 -> 14        -0.00393
       5 -> 18         0.00042
       5 -> 23         0.00377
       5 -> 27        -0.00020
       5 -> 34        -0.00067
       5 -> 36        -0.00056
       6 ->  9         0.01054
       6 -> 12         0.00792
       6 -> 13        -0.00317
       6 -> 16        -0.00663
       6 -> 17        -0.00534
       6 -> 20         0.00386
       6 -> 21         0.00281
       6 -> 24        -0.00500
       6 -> 26         0.00205
       6 -> 30        -0.00041
       6 -> 32        -0.00346
       6 -> 33         0.00057
       6 -> 38         0.00180
       6 -> 39        -0.00109
       6 -> 42        -0.00033
       6 -> 44         0.00092
       6 -> 47        -0.00021
       6 -> 49        -0.00038
       6 -> 51        -0.00015
       7 ->  9         0.01111
       7 -> 12        -0.01176
       7 -> 13        -0.00138
       7 -> 16         0.00588
       7 -> 17        -0.00989
       7 -> 20        -0.00312
       7 -> 21        -0.00215
       7 -> 24        -0.00027
       7 -> 26        -0.00405
       7 -> 30        -0.00103
       7 -> 32         0.00087
       7 -> 33         0.00106
       7 -> 38        -0.00098
       7 -> 39         0.00029
       7 -> 42         0.00015
       7 -> 44        -0.00020
       7 -> 51         0.00011
       7 -> 53         0.00014
       8 -> 11         0.70430
       8 -> 15         0.05708
       8 -> 19        -0.02361
       8 -> 22        -0.00147
       8 -> 25         0.01027
       8 -> 29        -0.00241
       8 -> 31         0.00227
       8 -> 37        -0.00364
       8 -> 40        -0.00085
       8 -> 43         0.00189
       8 -> 46        -0.00117
       8 -> 50         0.00024
       3 <-  9         0.00103
       3 <- 12        -0.00011
       3 <- 13         0.00013
       3 <- 16        -0.00075
       3 <- 17        -0.00119
       3 <- 21         0.00077
       3 <- 24        -0.00087
       3 <- 26        -0.00030
       3 <- 30         0.00054
       3 <- 32         0.00034
       3 <- 33         0.00074
       3 <- 38         0.00045
       3 <- 39         0.00027
       3 <- 44        -0.00017
       3 <- 51        -0.00010
       3 <- 53        -0.00014
       4 <- 11        -0.00248
       4 <- 15        -0.00210
       4 <- 19        -0.00291
       4 <- 22        -0.00193
       4 <- 25        -0.00187
       4 <- 29        -0.00059
       4 <- 37        -0.00072
       4 <- 40        -0.00013
       4 <- 43         0.00017
       5 <- 10        -0.00133
       5 <- 14        -0.00251
       5 <- 18         0.00028
       5 <- 23         0.00275
       5 <- 27        -0.00014
       5 <- 34        -0.00057
       5 <- 36        -0.00048
       6 <-  9         0.00817
       6 <- 12         0.00398
       6 <- 13        -0.00276
       6 <- 16        -0.00484
       6 <- 17        -0.00274
       6 <- 20         0.00193
       6 <- 21         0.00283
       6 <- 24        -0.00344
       6 <- 26         0.00146
       6 <- 32        -0.00259
       6 <- 33         0.00035
       6 <- 38         0.00167
       6 <- 39        -0.00077
       6 <- 42        -0.00030
       6 <- 44         0.00087
       6 <- 47        -0.00013
       6 <- 49        -0.00034
       6 <- 51        -0.00014
       7 <-  9         0.00153
       7 <- 12        -0.00465
       7 <- 13         0.00033
       7 <- 16         0.00383
       7 <- 17        -0.00476
       7 <- 20        -0.00129
       7 <- 21        -0.00175
       7 <- 26        -0.00280
       7 <- 30        -0.00086
       7 <- 32         0.00067
       7 <- 33         0.00080
       7 <- 38        -0.00084
       7 <- 44        -0.00020
       7 <- 53         0.00012
       8 <- 11        -0.01483
       8 <- 15         0.00505
       8 <- 19        -0.01705
       8 <- 22        -0.00463
       8 <- 25         0.00575
       8 <- 29        -0.00197
       8 <- 31         0.00207
       8 <- 37        -0.00296
       8 <- 40        -0.00047
       8 <- 43         0.00154
       8 <- 46        -0.00108
       8 <- 50         0.00025

 Excited State   5:      Singlet-A2     8.4964 eV  145.93 nm  f=0.0000  <S**2>=0.000
       3 -> 28         0.00195
       3 -> 35         0.00104
       3 -> 45         0.00026
       4 -> 10        -0.00095
       4 -> 14        -0.00421
       4 -> 18        -0.00165
       4 -> 23         0.00255
       4 -> 27         0.00023
       4 -> 34         0.00032
       4 -> 36         0.00152
       4 -> 41        -0.00030
       4 -> 52         0.00011
       5 -> 19        -0.00040
       5 -> 22         0.00081
       5 -> 25        -0.00063
       5 -> 29        -0.00018
       5 -> 37         0.00029
       5 -> 40        -0.00015
       5 -> 43         0.00043
       5 -> 46         0.00026
       6 -> 28         0.00211
       6 -> 35        -0.00061
       7 -> 28        -0.00122
       7 -> 45         0.00020
       8 -> 10         0.00610
       8 -> 14         0.70324
       8 -> 18         0.07182
       8 -> 23        -0.01579
       8 -> 27        -0.00126
       8 -> 34        -0.00235
       8 -> 36         0.00235
       8 -> 41        -0.00027
       8 -> 52        -0.00025
       3 <- 28         0.00139
       3 <- 35         0.00082
       3 <- 45         0.00028
       4 <- 10         0.00027
       4 <- 14        -0.00025
       4 <- 18        -0.00062
       4 <- 23         0.00021
       4 <- 27         0.00030
       4 <- 34        -0.00045
       4 <- 36         0.00060
       4 <- 41         0.00010
       5 <- 11         0.00044
       5 <- 22         0.00086
       5 <- 25        -0.00101
       5 <- 29        -0.00016
       5 <- 31        -0.00034
       5 <- 37         0.00066
       5 <- 43         0.00044
       5 <- 54         0.00012
       6 <- 28         0.00215
       6 <- 35        -0.00059
       6 <- 45        -0.00015
       7 <- 28        -0.00091
       8 <- 10         0.00273
       8 <- 14         0.00018
       8 <- 18        -0.00452
       8 <- 23         0.00083
       8 <- 27         0.00029
       8 <- 34        -0.00258
       8 <- 36         0.00104
       8 <- 41        -0.00024
       8 <- 52        -0.00010

 Excited State   6:      Singlet-B2     8.7563 eV  141.59 nm  f=0.1374  <S**2>=0.000
       3 -> 11         0.00069
       3 -> 15        -0.00130
       3 -> 19         0.00148
       3 -> 22        -0.00101
       3 -> 25        -0.00042

 The electronic state is 1-A1.
 Alpha  occ. eigenvalues --  -19.33107 -10.52013  -1.22994  -0.92844  -0.90332
 Alpha  occ. eigenvalues --   -0.57715  -0.50443  -0.19509
 Alpha virt. eigenvalues --    0.00009   0.02415   0.04428   0.04702   0.14070
 Alpha virt. eigenvalues --    0.16478   0.17330   0.18216   0.21711   0.22095
 Alpha virt. eigenvalues --    0.28896   0.36681   0.50587   0.57390   0.62324

 Mulliken charges:
               1
     1  C    0.166341
     2  H   -0.135207
     3  H   -0.135207
     4  O    0.104073
 Sum of Mulliken charges =   0.00000

 Dipole moment (field-independent basis, Debye):
    X=              0.0000    Y=              0.0000    Z=              1.6957  Tot=              1.6957
 Quadrupole moment (field-independent basis, Debye-Ang):
   XX=             -9.9963   YY=            -14.3733   ZZ=            -13.7485
   XY=             -0.0000   XZ=             -0.0000   YZ=             -0.0000

 Normal termination of Gaussian 16 at Fri Sep 17 10:52:16 2021.
