 Gaussian 16, Revision C.01,
 Gaussian 16:  ES64L-G16RevC.01  3-Jul-2019

 ---------------------------------------
 #P wB97XD/6-311+G* NoSymm #P Field=Y-38
 ---------------------------------------

 -------
 TitleMe
 -------
 Symbolic Z-matrix:
 Charge =  1 Multiplicity = 1

                          Input orientation:
 ---------------------------------------------------------------------
 Center     Atomic      Atomic             Coordinates (Angstroms)
 Number     Number       Type             X           Y           Z
 ---------------------------------------------------------------------
      1          6           0        0.029500    1.339700    0.068200
      2          6           0        1.434800    1.286700    0.006400
      3          6           0        2.111800    0.051100   -0.005400
      4          6           0        1.445100   -1.137200    0.031200
      5          6           0       -0.687900    0.168200    0.110000
      6          1           0       -0.471300    2.298400    0.078100
      7          1           0        2.027300    2.196500   -0.032200
      8          1           0        1.989700   -2.076400    0.023200
      9          1           0       -1.771600    0.180400    0.158200
     10          7           0        3.586400    0.051000   -0.067500
     11          8           0        4.147100   -1.059700   -0.088100
     12          8           0        4.145000    1.163900   -0.090100
     13          6           0       -0.023600   -1.145800    0.083500
     14          1           0       -0.436700   -1.872500    0.788900
     15         35           0       -0.535900   -1.869700   -1.740800
 ---------------------------------------------------------------------

 SCF Done:  E(RwB97XD) =  -3010.53528231     A.U. after   19 cycles

 Alpha  occ. eigenvalues -- -483.31682 -62.86716 -56.66397 -56.65840 -56.65838
 Alpha  occ. eigenvalues --  -19.45804 -19.45663 -14.85268 -10.58622 -10.57272
 Alpha  occ. eigenvalues --  -10.57157 -10.57027 -10.56558 -10.52577  -9.02529
 Alpha  occ. eigenvalues --   -6.85175  -6.83350  -6.83338  -2.95087  -2.94601
 Alpha  occ. eigenvalues --   -2.94590  -2.93130  -2.93130  -1.49530  -1.32503
 Alpha  occ. eigenvalues --   -1.22612  -1.14144  -1.11600  -1.04688  -1.00918
 Alpha  occ. eigenvalues --   -0.95426  -0.90852  -0.85144  -0.80646  -0.80527
 Alpha  occ. eigenvalues --   -0.79886  -0.78300  -0.75980  -0.75768  -0.72321
 Alpha  occ. eigenvalues --   -0.69215  -0.67372  -0.63622  -0.60247  -0.57209
 Alpha  occ. eigenvalues --   -0.56789  -0.56042  -0.55577  -0.55424
 Alpha virt. eigenvalues --   -0.29626  -0.21226  -0.15775  -0.13362  -0.09252
 Alpha virt. eigenvalues --   -0.05982  -0.05642  -0.05174  -0.04603  -0.03250
 Alpha virt. eigenvalues --   -0.02774  -0.02090  -0.01878  -0.01412  -0.00470

 Mulliken charges:
               1
     1  C   -0.569954
     2  C    0.498582
     3  C   -0.696695
     4  C    0.276284
     5  C    0.015548
     6  H    0.349534
     7  H    0.380013
     8  H    0.360970
     9  H    0.351907
    10  N   -0.107796
    11  O    0.011808
    12  O    0.049770
    13  C   -0.463918
    14  H    0.394205
    15  Br   0.149741
 Sum of Mulliken charges =   1.00000

 Dipole moment (field-independent basis, Debye):
    X=             -0.6990    Y=              0.5051    Z=              0.1224  Tot=              0.8710
 Quadrupole moment (field-independent basis, Debye-Ang):
   XX=            -71.0382   YY=            -52.4943   ZZ=            -62.9390
   XY=              2.5199   XZ=              0.9886   YZ=              1.1622

 Normal termination of Gaussian 16 at Wed May  1 15:06:59 2024.
