 Gaussian 16, Revision C.01,
 Gaussian 16:  ES64L-G16RevC.01  3-Jul-2019

 ---------------------------------------
 #P wB97XD/6-311+G* NoSymm #P Field=Z+48
 ---------------------------------------

 -------
 TitleMe
 -------
 Symbolic Z-matrix:
 Charge =  1 Multiplicity = 1

                          Input orientation:
 ---------------------------------------------------------------------
 Center     Atomic      Atomic             Coordinates (Angstroms)
 Number     Number       Type             X           Y           Z
 ---------------------------------------------------------------------
      1          6           0        0.519300    1.233000   -0.031900
      2          6           0        1.944500    1.269200   -0.036700
      3          6           0        2.620400    0.092800   -0.025000
      4          6           0       -0.196000    0.030100    0.001000
      5          1           0       -0.020700    2.174200   -0.043400
      6          1           0        2.482800    2.208900   -0.036100
      7          1           0       -1.277700    0.039900    0.011700
      8          7           0        4.092100    0.095900    0.036600
      9          8           0        4.639300   -1.021700    0.144600
     10          8           0        4.664900    1.198400   -0.023300
     11          6           0        0.494300   -1.167100    0.021000
     12          1           0       -0.032500   -2.114900    0.054500
     13          6           0        1.962900   -1.216500   -0.021100
     14          1           0        2.443600   -1.963100    0.615100
     15         35           0        2.173000   -1.949100   -1.906200
 ---------------------------------------------------------------------

 SCF Done:  E(RwB97XD) =  -3010.53413731     A.U. after   20 cycles

 Alpha  occ. eigenvalues -- -483.30256 -62.85264 -56.64974 -56.64384 -56.64370
 Alpha  occ. eigenvalues --  -19.46055 -19.46048 -14.85468 -10.58845 -10.57471
 Alpha  occ. eigenvalues --  -10.56902 -10.56513 -10.53014 -10.52391  -9.01059
 Alpha  occ. eigenvalues --   -6.83783  -6.81849  -6.81809  -2.93676  -2.93170
 Alpha  occ. eigenvalues --   -2.93138  -2.91591  -2.91591  -1.49740  -1.32703
 Alpha  occ. eigenvalues --   -1.22001  -1.12442  -1.11957  -1.04106  -0.99863
 Alpha  occ. eigenvalues --   -0.94931  -0.90209  -0.84688  -0.80625  -0.79853
 Alpha  occ. eigenvalues --   -0.79786  -0.77569  -0.75970  -0.75212  -0.71454
 Alpha  occ. eigenvalues --   -0.68143  -0.67192  -0.62768  -0.59259  -0.57219
 Alpha  occ. eigenvalues --   -0.56479  -0.55756  -0.55144  -0.53784
 Alpha virt. eigenvalues --   -0.29589  -0.20114  -0.14951  -0.12739  -0.08719
 Alpha virt. eigenvalues --   -0.06219  -0.05750  -0.04807  -0.03061  -0.02920
 Alpha virt. eigenvalues --   -0.02394  -0.01519  -0.00381   0.00329   0.01153

 Mulliken charges:
               1
     1  C   -0.122175
     2  C    0.200270
     3  C   -0.065636
     4  C   -0.331693
     5  H    0.344566
     6  H    0.349446
     7  H    0.329299
     8  N   -0.250101
     9  O    0.088118
    10  O    0.069407
    11  C   -0.215400
    12  H    0.355121
    13  C   -0.377229
    14  H    0.395728
    15  Br   0.230278
 Sum of Mulliken charges =   1.00000

 Dipole moment (field-independent basis, Debye):
    X=              2.8524    Y=             -1.0992    Z=             -1.6139  Tot=              3.4567
 Quadrupole moment (field-independent basis, Debye-Ang):
   XX=            -67.8657   YY=            -50.8365   ZZ=            -61.0792
   XY=             -3.3610   XZ=             -4.3411   YZ=              3.3007

 Normal termination of Gaussian 16 at Thu May  2 14:19:47 2024.
