 Gaussian 16, Revision C.01,
 Gaussian 16:  ES64L-G16RevC.01  3-Jul-2019

 ---------------------------------------
 #P wB97XD/6-311+G* NoSymm #P Field=Y-68
 ---------------------------------------

 -------
 TitleMe
 -------
 Symbolic Z-matrix:
 Charge =  1 Multiplicity = 1

                          Input orientation:
 ---------------------------------------------------------------------
 Center     Atomic      Atomic             Coordinates (Angstroms)
 Number     Number       Type             X           Y           Z
 ---------------------------------------------------------------------
      1          6           0        0.519300    1.233000   -0.031900
      2          6           0        1.944500    1.269200   -0.036700
      3          6           0        2.620400    0.092800   -0.025000
      4          6           0       -0.196000    0.030100    0.001000
      5          1           0       -0.020700    2.174200   -0.043400
      6          1           0        2.482800    2.208900   -0.036100
      7          1           0       -1.277700    0.039900    0.011700
      8          7           0        4.092100    0.095900    0.036600
      9          8           0        4.639300   -1.021700    0.144600
     10          8           0        4.664900    1.198400   -0.023300
     11          6           0        0.494300   -1.167100    0.021000
     12          1           0       -0.032500   -2.114900    0.054500
     13          6           0        1.962900   -1.216500   -0.021100
     14          1           0        2.443600   -1.963100    0.615100
     15         35           0        2.173000   -1.949100   -1.906200
 ---------------------------------------------------------------------

 SCF Done:  E(RwB97XD) =  -3010.53215092     A.U. after   19 cycles

 Alpha  occ. eigenvalues -- -483.32095 -62.87129 -56.66809 -56.66257 -56.66250
 Alpha  occ. eigenvalues --  -19.46311 -19.46186 -14.85678 -10.59314 -10.58892
 Alpha  occ. eigenvalues --  -10.57725 -10.56986 -10.53194 -10.52978  -9.02944
 Alpha  occ. eigenvalues --   -6.85587  -6.83770  -6.83751  -2.95500  -2.95018
 Alpha  occ. eigenvalues --   -2.95002  -2.93548  -2.93547  -1.49937  -1.32894
 Alpha  occ. eigenvalues --   -1.22753  -1.13183  -1.12726  -1.05349  -1.00599
 Alpha  occ. eigenvalues --   -0.95622  -0.90757  -0.85118  -0.81025  -0.80388
 Alpha  occ. eigenvalues --   -0.80114  -0.78163  -0.76225  -0.75820  -0.72356
 Alpha  occ. eigenvalues --   -0.68747  -0.67649  -0.63608  -0.60367  -0.57605
 Alpha  occ. eigenvalues --   -0.57369  -0.56773  -0.55926  -0.55124
 Alpha virt. eigenvalues --   -0.30444  -0.20429  -0.16375  -0.13270  -0.10369
 Alpha virt. eigenvalues --   -0.07031  -0.06240  -0.05955  -0.04324  -0.03233
 Alpha virt. eigenvalues --   -0.03012  -0.02403  -0.02302  -0.01595  -0.00838

 Mulliken charges:
               1
     1  C   -0.113512
     2  C    0.189961
     3  C   -0.063203
     4  C   -0.315889
     5  H    0.373129
     6  H    0.375566
     7  H    0.332605
     8  N   -0.237515
     9  O    0.051007
    10  O    0.109064
    11  C   -0.208278
    12  H    0.331641
    13  C   -0.352330
    14  H    0.394622
    15  Br   0.133131
 Sum of Mulliken charges =   1.00000

 Dipole moment (field-independent basis, Debye):
    X=              2.6809    Y=              1.0897    Z=             -0.4814  Tot=              2.9337
 Quadrupole moment (field-independent basis, Debye-Ang):
   XX=            -67.9536   YY=            -52.2274   ZZ=            -62.9047
   XY=              1.1887   XZ=             -1.9733   YZ=              1.4045

 Normal termination of Gaussian 16 at Thu May  2 14:18:44 2024.
