 Gaussian 16, Revision A.03,
 Gaussian 16:  ES64L-G16RevA.03 25-Dec-2016

 --------------------------------------------------------------------
 #p B3LYP/6-311+G** #p TD=(singlets,nstates=30)IOp(6/8=3) IOp(9/40=4)
 --------------------------------------------------------------------

 --------------------------------
 Scan Step 195, Bond Length 1.475
 --------------------------------
 Symbolic Z-matrix:
 Charge =  0 Multiplicity = 1

                         Standard orientation:
 ---------------------------------------------------------------------
 Center     Atomic      Atomic             Coordinates (Angstroms)
 Number     Number       Type             X           Y           Z
 ---------------------------------------------------------------------
      1          6           0        0.000000    0.000000   -0.663581
      2          1           0        0.000000    0.937260   -1.254931
      3          1           0       -0.000000   -0.937260   -1.254931
      4          8           0        0.000000   -0.000000    0.811419
 ---------------------------------------------------------------------

 SCF Done:  E(RB3LYP) =  -114.474538612     A.U. after    9 cycles

 Excitation energies and oscillator strengths:

 Excited State   1:      Singlet-A2     2.5012 eV  495.69 nm  f=0.0000  <S**2>=0.000
       3 -> 27         0.00154
       3 -> 38         0.00122
       3 -> 46         0.00314
       4 -> 27         0.00098
       4 -> 38        -0.00023
       4 -> 46        -0.00140
       5 ->  9         0.01201
       5 -> 13         0.00041
       5 -> 18         0.00374
       5 -> 23         0.00148
       5 -> 28         0.00333
       5 -> 31        -0.00048
       5 -> 37         0.00193
       5 -> 44         0.00041
       5 -> 52         0.00047
       6 -> 27        -0.00058
       6 -> 38        -0.00085
       6 -> 46         0.00154
       7 -> 12        -0.00075
       7 -> 15         0.00427
       7 -> 19        -0.00369
       7 -> 22        -0.00043
       7 -> 25         0.00116
       7 -> 30        -0.00133
       7 -> 33         0.00042
       7 -> 42        -0.00010
       7 -> 49         0.00014
       7 -> 50         0.00022
       7 -> 53         0.00047
       8 ->  9         0.70760
       8 -> 13        -0.01893
       8 -> 18         0.02199
       8 -> 23        -0.00540
       8 -> 28         0.01100
       8 -> 31         0.00028
       8 -> 37         0.00064
       8 -> 48        -0.00030
       8 -> 52         0.00192
       3 <- 27         0.00083
       3 <- 38         0.00092
       3 <- 46         0.00320
       4 <- 27         0.00161
       4 <- 38         0.00022
       4 <- 46        -0.00114
       5 <-  9        -0.00048
       5 <- 13        -0.00063
       5 <- 18        -0.00085
       5 <- 23         0.00036
       5 <- 28        -0.00060
       5 <- 31         0.00046
       5 <- 37         0.00104
       5 <- 44         0.00014
       5 <- 52         0.00012
       6 <- 38        -0.00072
       6 <- 46         0.00120
       7 <- 15        -0.00942
       7 <- 19         0.00265
       7 <- 22         0.00730
       7 <- 25         0.00041
       7 <- 30         0.00487
       7 <- 33        -0.00076
       7 <- 35         0.00135
       7 <- 40         0.00068
       7 <- 42         0.00010
       7 <- 49        -0.00027
       7 <- 50         0.00014
       7 <- 53         0.00144
       8 <-  9        -0.04098
       8 <- 13         0.00110
       8 <- 18        -0.00587
       8 <- 23         0.00045
       8 <- 28        -0.00201
       8 <- 31        -0.00054
       8 <- 37        -0.00069
       8 <- 52         0.00052
 This state for optimization and/or second-order correction.
 Total Energy, E(TD-HF/TD-DFT) =  -114.382620356
 Copying the excited state density for this state as the 1-particle RhoCI density.

 Excited State   2:      Singlet-A1     6.2796 eV  197.44 nm  f=0.1104  <S**2>=0.000
       3 -> 10         0.00855
       3 -> 11        -0.01656
       3 -> 14         0.01114
       3 -> 16         0.01919
       3 -> 17        -0.00431
       3 -> 20        -0.00260
       3 -> 21        -0.00325
       3 -> 24         0.00432
       3 -> 26         0.00622
       3 -> 29        -0.00031
       3 -> 32         0.00284
       3 -> 34         0.00361
       3 -> 36         0.00050
       3 -> 39         0.00113
       3 -> 43         0.00047
       3 -> 45         0.00127
       3 -> 47         0.00172
       3 -> 51         0.00061
       3 -> 54         0.00029
       4 -> 10         0.02048
       4 -> 11         0.01033
       4 -> 14         0.01237
       4 -> 16        -0.00701
       4 -> 17         0.00340
       4 -> 20         0.00790
       4 -> 21         0.00028
       4 -> 24        -0.00636
       4 -> 26         0.00587
       4 -> 29         0.00114
       4 -> 32        -0.00122
       4 -> 34        -0.00257
       4 -> 36        -0.00025
       4 -> 39        -0.00019
       4 -> 41         0.00013
       4 -> 43        -0.00025
       4 -> 47        -0.00167
       4 -> 51        -0.00023
       5 -> 12         0.02413
       5 -> 15         0.02042
       5 -> 19         0.00172
       5 -> 22         0.00562
       5 -> 25         0.01102
       5 -> 30        -0.00148
       5 -> 33        -0.00335
       5 -> 35         0.00241
       5 -> 40         0.00162
       5 -> 42         0.00064
       5 -> 49         0.00060
       5 -> 50        -0.00055
       5 -> 53        -0.00023
       6 -> 10        -0.06094
       6 -> 11         0.09223
       6 -> 14        -0.05710
       6 -> 16        -0.11984
       6 -> 17        -0.01796
       6 -> 20        -0.02294
       6 -> 21         0.02178
       6 -> 24        -0.01979
       6 -> 26        -0.01010
       6 -> 29        -0.00976
       6 -> 34         0.00220
       6 -> 36        -0.00156
       6 -> 39         0.00046
       6 -> 41        -0.00070
       6 -> 43         0.00062
       6 -> 47         0.00175
       6 -> 51         0.00082
       6 -> 54        -0.00042
       7 ->  9         0.68614
       7 -> 13         0.01096
       7 -> 18        -0.02393
       7 -> 23         0.00329
       7 -> 28        -0.00354
       7 -> 31        -0.00244
       7 -> 37         0.00044
       7 -> 44        -0.00102
       7 -> 48         0.00057
       7 -> 52         0.00102
       8 -> 12        -0.00297
       8 -> 15         0.10145
       8 -> 19        -0.02668
       8 -> 22        -0.03816
       8 -> 25         0.00185
       8 -> 30        -0.01430
       8 -> 33         0.00391
       8 -> 35        -0.00494
       8 -> 40        -0.00216
       8 -> 42        -0.00034
       8 -> 49         0.00070
       8 -> 50         0.00031
       8 -> 53        -0.00088
       3 <- 10         0.00504
       3 <- 11        -0.01050
       3 <- 14         0.00785
       3 <- 16         0.01282
       3 <- 17        -0.00220
       3 <- 20        -0.00159
       3 <- 21        -0.00305
       3 <- 24         0.00290
       3 <- 26         0.00394
       3 <- 29        -0.00010
       3 <- 32         0.00259
       3 <- 34         0.00240
       3 <- 36         0.00027
       3 <- 39         0.00090
       3 <- 41         0.00013
       3 <- 43         0.00052
       3 <- 45         0.00118
       3 <- 47         0.00196
       3 <- 51         0.00058
       3 <- 54         0.00035
       4 <- 10         0.00933
       4 <- 11         0.00566
       4 <- 14         0.00577
       4 <- 16        -0.00419
       4 <- 17         0.00152
       4 <- 20         0.00548
       4 <- 21         0.00028
       4 <- 24        -0.00399
       4 <- 26         0.00431
       4 <- 29         0.00025
       4 <- 32        -0.00158
       4 <- 34        -0.00220
       4 <- 39        -0.00024
       4 <- 43        -0.00025
       4 <- 45         0.00038
       4 <- 47        -0.00137
       5 <- 12         0.00864
       5 <- 15         0.00880
       5 <- 19         0.00109
       5 <- 22         0.00311
       5 <- 25         0.00676
       5 <- 30        -0.00083
       5 <- 33        -0.00247
       5 <- 35         0.00191
       5 <- 40         0.00137
       5 <- 42         0.00050
       5 <- 49         0.00051
       5 <- 50        -0.00050
       5 <- 53        -0.00021
       6 <- 10        -0.01482
       6 <- 11         0.02410
       6 <- 14        -0.01934
       6 <- 16        -0.04562
       6 <- 17        -0.00740
       6 <- 20        -0.01162
       6 <- 21         0.01134
       6 <- 24        -0.01121
       6 <- 26        -0.00593
       6 <- 29        -0.00631
       6 <- 32         0.00048
       6 <- 34         0.00232
       6 <- 36        -0.00114
       6 <- 39         0.00061
       6 <- 41        -0.00047
       6 <- 43         0.00054
       6 <- 45        -0.00029
       6 <- 47         0.00130
       6 <- 51         0.00063
       6 <- 54        -0.00033
       7 <-  9        -0.11286
       7 <- 13         0.01023
       7 <- 18        -0.01472
       7 <- 23         0.00561
       7 <- 28        -0.00520
       7 <- 31        -0.00086
       7 <- 44        -0.00050
       7 <- 52         0.00086
       8 <- 12        -0.00044
       8 <- 15         0.02687
       8 <- 19        -0.00896
       8 <- 22        -0.01780
       8 <- 25         0.00060
       8 <- 30        -0.00953
       8 <- 33         0.00275
       8 <- 35        -0.00359
       8 <- 40        -0.00170
       8 <- 42        -0.00027
       8 <- 49         0.00048
       8 <- 50         0.00024
       8 <- 53        -0.00078

 Excited State   3:      Singlet-B1     6.3865 eV  194.13 nm  f=0.0015  <S**2>=0.000
       3 ->  9        -0.03181
       3 -> 13         0.00262
       3 -> 18        -0.00558
       3 -> 23         0.00245
       3 -> 28        -0.00142
       3 -> 31        -0.00050
       3 -> 44         0.00035
       3 -> 48         0.00073
       3 -> 52         0.00106
       4 ->  9         0.01514
       4 -> 13        -0.00271
       4 -> 18         0.00052
       4 -> 23        -0.00248
       4 -> 28         0.00019
       4 -> 31        -0.00181
       4 -> 37        -0.00045
       4 -> 48        -0.00134
       4 -> 52        -0.00075
       5 -> 27        -0.00076
       5 -> 38         0.00198
       5 -> 46         0.00148
       6 ->  9         0.70601
       6 -> 13        -0.02373
       6 -> 18         0.01883
       6 -> 23        -0.01159
       6 -> 28         0.00533
       6 -> 31         0.00378
       6 -> 37        -0.00244
       6 -> 44        -0.00326
       6 -> 48         0.00469
       6 -> 52         0.00167
       7 -> 10        -0.00728
       7 -> 11         0.01004
       7 -> 14        -0.00639
       7 -> 16        -0.00688
       7 -> 17        -0.01004
       7 -> 20         0.00223
       7 -> 21        -0.00094
       7 -> 24         0.00026
       7 -> 26        -0.00070
       7 -> 29        -0.00435
       7 -> 32        -0.00102
       7 -> 36         0.00178
       7 -> 39         0.00012
       7 -> 41        -0.00103
       7 -> 43         0.00070
       7 -> 45         0.00297
       7 -> 47         0.00378
       7 -> 51         0.00115
       7 -> 54         0.00054
       8 -> 27         0.00115
       8 -> 38         0.00035
       8 -> 46         0.00605
       3 <-  9        -0.01040
       3 <- 13        -0.00022
       3 <- 18        -0.00316
       3 <- 23        -0.00027
       3 <- 28        -0.00094
       3 <- 31        -0.00056
       3 <- 44        -0.00025
       3 <- 48         0.00095
       3 <- 52         0.00084
       4 <-  9         0.00647
       4 <- 18         0.00225
       4 <- 23        -0.00039
       4 <- 28         0.00198
       4 <- 31        -0.00135
       4 <- 37        -0.00012
       4 <- 44         0.00017
       4 <- 48        -0.00116
       4 <- 52        -0.00042
       5 <- 27        -0.00115
       5 <- 38         0.00156
       5 <- 46         0.00132
       6 <-  9        -0.02292
       6 <- 13         0.00191
       6 <- 18        -0.00303
       6 <- 23        -0.00017
       6 <- 28        -0.00302
       6 <- 31         0.00190
       6 <- 37        -0.00223
       6 <- 44        -0.00193
       6 <- 48         0.00417
       6 <- 52         0.00061
       7 <- 10         0.00508
       7 <- 11        -0.00801
       7 <- 14         0.00614
       7 <- 16         0.01692
       7 <- 20         0.00603
       7 <- 21        -0.00542
       7 <- 24         0.00500
       7 <- 26         0.00225
       7 <- 29         0.00067
       7 <- 32        -0.00075
       7 <- 34        -0.00079
       7 <- 36         0.00282
       7 <- 39         0.00038
       7 <- 41        -0.00062
       7 <- 43         0.00062
       7 <- 45         0.00281
       7 <- 47         0.00332
       7 <- 51         0.00090
       7 <- 54         0.00109
       8 <- 27         0.00146
       8 <- 38         0.00050
       8 <- 46         0.00553

 Excited State   4:      Singlet-B2     6.8600 eV  180.74 nm  f=0.0149  <S**2>=0.000
       3 -> 12         0.00188
       3 -> 15        -0.00032
       3 -> 19         0.00249
       3 -> 22        -0.00030
       3 -> 25         0.00070
       3 -> 30         0.00123
       3 -> 33         0.00037
       3 -> 35        -0.00122
       3 -> 40        -0.00085
       3 -> 42        -0.00012
       3 -> 49         0.00100
       3 -> 50        -0.00014
       3 -> 53        -0.00018
       4 -> 12        -0.00119
       4 -> 15         0.00262
       4 -> 19         0.00120
       4 -> 22        -0.00338
       4 -> 25         0.00288
       4 -> 30        -0.00034
       4 -> 33         0.00018
       4 -> 40         0.00045
       4 -> 42        -0.00011
       4 -> 49        -0.00015
       5 -> 10        -0.00626
       5 -> 11        -0.00033
       5 -> 14         0.01170
       5 -> 16         0.00487
       5 -> 17        -0.00159
       5 -> 21        -0.00600
       5 -> 24        -0.00158
       5 -> 26         0.00194
       5 -> 29         0.00135
       5 -> 32        -0.00044
       5 -> 34         0.00114
       5 -> 36         0.00048
       5 -> 39         0.00028
       5 -> 41        -0.00075
       5 -> 43        -0.00020
       5 -> 45         0.00020
       5 -> 47         0.00036
       5 -> 51        -0.00024
       5 -> 54         0.00016
       6 -> 12        -0.00295
       6 -> 15         0.00098
       6 -> 19        -0.00086
       6 -> 22        -0.00115
       6 -> 25         0.00070
       6 -> 33        -0.00045
       6 -> 35         0.00155
       6 -> 40         0.00086
       6 -> 49        -0.00036
       6 -> 53         0.00013
       7 -> 27         0.00017
       7 -> 38        -0.00095
       7 -> 46        -0.00141
       8 -> 10         0.70025
       8 -> 11        -0.06618
       8 -> 14         0.05261
       8 -> 16         0.04641
       8 -> 17         0.00079
       8 -> 20         0.01202
       8 -> 21        -0.00033
       8 -> 24         0.00195
       8 -> 26         0.00450
       8 -> 29         0.00419
       8 -> 32         0.00109
       8 -> 34         0.00030
       8 -> 36         0.00028
       8 -> 39         0.00031
       8 -> 41        -0.00046
       8 -> 43         0.00066
       8 -> 45         0.00133
       8 -> 47         0.00106
       8 -> 51        -0.00098
       8 -> 54         0.00059
       3 <- 12         0.00048
       3 <- 15         0.00016
       3 <- 19         0.00109
       3 <- 22        -0.00071
       3 <- 25         0.00030
       3 <- 30         0.00041
       3 <- 33         0.00033
       3 <- 35        -0.00102
       3 <- 40        -0.00079
       3 <- 49         0.00105
       3 <- 50        -0.00012
       3 <- 53        -0.00037
       4 <- 12         0.00069
       4 <- 15         0.00227
       4 <- 19         0.00117
       4 <- 22        -0.00242
       4 <- 25         0.00183
       4 <- 30        -0.00029
       4 <- 33         0.00028
       4 <- 35        -0.00028
       4 <- 40         0.00011
       4 <- 42        -0.00020
       4 <- 49        -0.00012
       5 <- 10         0.00197
       5 <- 11         0.00064
       5 <- 14         0.00430
       5 <- 16        -0.00129
       5 <- 17        -0.00028
       5 <- 21        -0.00152
       5 <- 24        -0.00265
       5 <- 26         0.00109
       5 <- 29         0.00029
       5 <- 32        -0.00076
       5 <- 34         0.00066
       5 <- 36         0.00013
       5 <- 41        -0.00063
       5 <- 43        -0.00023
       5 <- 45         0.00031
       5 <- 47         0.00013
       6 <- 12        -0.00028
       6 <- 15        -0.00200
       6 <- 19         0.00114
       6 <- 22         0.00115
       6 <- 25         0.00024
       6 <- 30         0.00178
       6 <- 33        -0.00056
       6 <- 35         0.00150
       6 <- 40         0.00080
       6 <- 49        -0.00041
       6 <- 50        -0.00012
       6 <- 53         0.00043
       7 <- 27         0.00023
       7 <- 38        -0.00072
       7 <- 46        -0.00112
       8 <- 10        -0.00278
       8 <- 11         0.00409
       8 <- 14        -0.00532
       8 <- 16        -0.00417
       8 <- 17        -0.00032
       8 <- 20         0.00023
       8 <- 21         0.00175
       8 <- 24         0.00031
       8 <- 26        -0.00143
       8 <- 29         0.00021
       8 <- 32        -0.00025
       8 <- 34        -0.00040
       8 <- 36        -0.00040
       8 <- 39        -0.00047
       8 <- 41        -0.00034
       8 <- 43         0.00019
       8 <- 45         0.00142
       8 <- 47         0.00046
       8 <- 51        -0.00049
       8 <- 54         0.00015

 Excited State   5:      Singlet-B2     7.3295 eV  169.16 nm  f=0.0185  <S**2>=0.000
       3 -> 12         0.00062
       3 -> 15         0.00197
       3 -> 19        -0.00220
       3 -> 22        -0.00048
       3 -> 25         0.00068
       3 -> 30        -0.00358
       3 -> 33        -0.00015
       3 -> 35         0.00124
       3 -> 40         0.00100
       3 -> 49        -0.00129
       3 -> 50         0.00015
       4 -> 12        -0.00167
       4 -> 15        -0.00081
       4 -> 19         0.00011
       4 -> 22         0.00098
       4 -> 25        -0.00127
       4 -> 30         0.00187
       4 -> 33        -0.00046
       4 -> 35         0.00066
       4 -> 40        -0.00012
       4 -> 50        -0.00012
       5 -> 10        -0.00456
       5 -> 11         0.00188
       5 -> 14        -0.00919
       5 -> 16         0.00384
       5 -> 17         0.00338
       5 -> 20         0.00331
       5 -> 21         0.00360
       5 -> 24         0.00048
       5 -> 26        -0.00168
       5 -> 29        -0.00136
       5 -> 32        -0.00125
       5 -> 34        -0.00038
       5 -> 36        -0.00077
       5 -> 39        -0.00087
       5 -> 41         0.00038
       5 -> 43        -0.00035
       5 -> 45        -0.00078
       5 -> 47        -0.00057
       5 -> 51         0.00051
       6 -> 12         0.00127
       6 -> 19         0.00117
       6 -> 22        -0.00097
       6 -> 30        -0.00129
       6 -> 33         0.00035
       6 -> 35        -0.00134
       6 -> 40        -0.00142
       6 -> 42        -0.00022
       6 -> 49         0.00179
       6 -> 50        -0.00015
       6 -> 53        -0.00019
       7 -> 27        -0.00076
       7 -> 38         0.00044
       7 -> 46         0.00299
       8 -> 10         0.07285
       8 -> 11         0.69878
       8 -> 14        -0.02918
       8 -> 16        -0.07262
       8 -> 17        -0.00467
       8 -> 20         0.01319
       8 -> 21         0.00296
       8 -> 24        -0.00432
       8 -> 26        -0.00080
       8 -> 29        -0.00532
       8 -> 32        -0.00056
       8 -> 34        -0.00075
       8 -> 36        -0.00104
       8 -> 39         0.00013
       8 -> 41         0.00052
       8 -> 43        -0.00024
       8 -> 45        -0.00337
       8 -> 47        -0.00184
       8 -> 51         0.00173
       8 -> 54        -0.00049
       3 <- 12        -0.00025

 The electronic state is 1-A1.
 Alpha  occ. eigenvalues --  -19.16694 -10.31525  -0.96180  -0.68305  -0.48851
 Alpha  occ. eigenvalues --   -0.43095  -0.34960  -0.29006
 Alpha virt. eigenvalues --   -0.12497  -0.00190   0.02636   0.04128   0.06172
 Alpha virt. eigenvalues --    0.11224   0.15299   0.16395   0.18954   0.21626
 Alpha virt. eigenvalues --    0.23857   0.30059   0.40025   0.42415   0.50979

 Mulliken charges:
               1
     1  C   -0.037006
     2  H    0.165192
     3  H    0.165192
     4  O   -0.293378
 Sum of Mulliken charges =  -0.00000

 Dipole moment (field-independent basis, Debye):
    X=             -0.0000    Y=              0.0000    Z=             -3.4559  Tot=              3.4559
 Quadrupole moment (field-independent basis, Debye-Ang):
   XX=            -12.4797   YY=            -11.8057   ZZ=            -11.6801
   XY=              0.0000   XZ=              0.0000   YZ=             -0.0000

 Normal termination of Gaussian 16 at Fri Sep 17 10:52:54 2021.
