 Gaussian 16, Revision C.01,
 Gaussian 16:  ES64L-G16RevC.01  3-Jul-2019

 ----------------------------------------
 #P wB97XD/6-311+G* NoSymm #P Field=Z+126
 ----------------------------------------

 -------
 TitleMe
 -------
 Symbolic Z-matrix:
 Charge =  1 Multiplicity = 1

                          Input orientation:
 ---------------------------------------------------------------------
 Center     Atomic      Atomic             Coordinates (Angstroms)
 Number     Number       Type             X           Y           Z
 ---------------------------------------------------------------------
      1          6           0        0.029500    1.339700    0.068200
      2          6           0        1.434800    1.286700    0.006400
      3          6           0        2.111800    0.051100   -0.005400
      4          6           0        1.445100   -1.137200    0.031200
      5          6           0       -0.687900    0.168200    0.110000
      6          1           0       -0.471300    2.298400    0.078100
      7          1           0        2.027300    2.196500   -0.032200
      8          1           0        1.989700   -2.076400    0.023200
      9          1           0       -1.771600    0.180400    0.158200
     10          7           0        3.586400    0.051000   -0.067500
     11          8           0        4.147100   -1.059700   -0.088100
     12          8           0        4.145000    1.163900   -0.090100
     13          6           0       -0.023600   -1.145800    0.083500
     14          1           0       -0.436700   -1.872500    0.788900
     15         35           0       -0.535900   -1.869700   -1.740800
 ---------------------------------------------------------------------

 SCF Done:  E(RwB97XD) =  -3010.54086497     A.U. after   18 cycles

 Alpha  occ. eigenvalues -- -483.29243 -62.84237 -56.63963 -56.63344 -56.63342
 Alpha  occ. eigenvalues --  -19.45192 -19.45130 -14.84693 -10.57184 -10.56620
 Alpha  occ. eigenvalues --  -10.56404 -10.56189 -10.55983 -10.52244  -9.00021
 Alpha  occ. eigenvalues --   -6.82788  -6.80772  -6.80759  -2.92670  -2.92137
 Alpha  occ. eigenvalues --   -2.92125  -2.90514  -2.90514  -1.48958  -1.31936
 Alpha  occ. eigenvalues --   -1.21766  -1.13012  -1.10894  -1.02678  -1.00291
 Alpha  occ. eigenvalues --   -0.94549  -0.90162  -0.84577  -0.80063  -0.79855
 Alpha  occ. eigenvalues --   -0.79267  -0.77603  -0.75385  -0.75155  -0.71151
 Alpha  occ. eigenvalues --   -0.68532  -0.66770  -0.62434  -0.58981  -0.56394
 Alpha  occ. eigenvalues --   -0.55478  -0.54946  -0.53989  -0.53218
 Alpha virt. eigenvalues --   -0.28577  -0.20632  -0.14517  -0.12594  -0.10327
 Alpha virt. eigenvalues --   -0.07630  -0.07237  -0.05569  -0.03839  -0.03453
 Alpha virt. eigenvalues --   -0.02329  -0.00940  -0.00517   0.00457   0.01230

 Mulliken charges:
               1
     1  C   -0.555026
     2  C    0.470157
     3  C   -0.700276
     4  C    0.267624
     5  C   -0.038442
     6  H    0.331075
     7  H    0.366518
     8  H    0.371236
     9  H    0.347038
    10  N   -0.110522
    11  O    0.032083
    12  O    0.029430
    13  C   -0.461727
    14  H    0.359596
    15  Br   0.291236
 Sum of Mulliken charges =   1.00000

 Dipole moment (field-independent basis, Debye):
    X=             -1.1374    Y=             -1.0716    Z=             -2.2128  Tot=              2.7090
 Quadrupole moment (field-independent basis, Debye-Ang):
   XX=            -71.6939   YY=            -51.3474   ZZ=            -60.4023
   XY=              1.6571   XZ=              0.0981   YZ=              3.5235

 Normal termination of Gaussian 16 at Wed May  1 15:26:25 2024.
