 Gaussian 16, Revision C.01,
 Gaussian 16:  ES64L-G16RevC.01  3-Jul-2019

 ---------------------------------------
 #P wB97XD/6-311+G* NoSymm #P Field=Z+68
 ---------------------------------------

 -------
 TitleMe
 -------
 Symbolic Z-matrix:
 Charge =  1 Multiplicity = 1

                          Input orientation:
 ---------------------------------------------------------------------
 Center     Atomic      Atomic             Coordinates (Angstroms)
 Number     Number       Type             X           Y           Z
 ---------------------------------------------------------------------
      1          6           0        0.519300    1.233000   -0.031900
      2          6           0        1.944500    1.269200   -0.036700
      3          6           0        2.620400    0.092800   -0.025000
      4          6           0       -0.196000    0.030100    0.001000
      5          1           0       -0.020700    2.174200   -0.043400
      6          1           0        2.482800    2.208900   -0.036100
      7          1           0       -1.277700    0.039900    0.011700
      8          7           0        4.092100    0.095900    0.036600
      9          8           0        4.639300   -1.021700    0.144600
     10          8           0        4.664900    1.198400   -0.023300
     11          6           0        0.494300   -1.167100    0.021000
     12          1           0       -0.032500   -2.114900    0.054500
     13          6           0        1.962900   -1.216500   -0.021100
     14          1           0        2.443600   -1.963100    0.615100
     15         35           0        2.173000   -1.949100   -1.906200
 ---------------------------------------------------------------------

 SCF Done:  E(RwB97XD) =  -3010.53554914     A.U. after   19 cycles

 Alpha  occ. eigenvalues -- -483.29947 -62.84949 -56.64665 -56.64067 -56.64052
 Alpha  occ. eigenvalues --  -19.46010 -19.46006 -14.85419 -10.58733 -10.57294
 Alpha  occ. eigenvalues --  -10.56783 -10.56373 -10.52906 -10.52290  -9.00740
 Alpha  occ. eigenvalues --   -6.83479  -6.81522  -6.81479  -2.93368  -2.92858
 Alpha  occ. eigenvalues --   -2.92823  -2.91258  -2.91257  -1.49694  -1.32659
 Alpha  occ. eigenvalues --   -1.21872  -1.12327  -1.11797  -1.03886  -0.99719
 Alpha  occ. eigenvalues --   -0.94803  -0.90101  -0.84616  -0.80547  -0.79782
 Alpha  occ. eigenvalues --   -0.79695  -0.77469  -0.75906  -0.75100  -0.71289
 Alpha  occ. eigenvalues --   -0.68029  -0.67079  -0.62577  -0.59089  -0.57170
 Alpha  occ. eigenvalues --   -0.56418  -0.55708  -0.54767  -0.53491
 Alpha virt. eigenvalues --   -0.29434  -0.20042  -0.14737  -0.12650  -0.08987
 Alpha virt. eigenvalues --   -0.06403  -0.06015  -0.04972  -0.03099  -0.02767
 Alpha virt. eigenvalues --   -0.02061  -0.01672  -0.00314   0.00491   0.01456

 Mulliken charges:
               1
     1  C   -0.127492
     2  C    0.206887
     3  C   -0.061362
     4  C   -0.331577
     5  H    0.344314
     6  H    0.349213
     7  H    0.328855
     8  N   -0.254404
     9  O    0.088085
    10  O    0.069347
    11  C   -0.220460
    12  H    0.354555
    13  C   -0.385057
    14  H    0.389264
    15  Br   0.249830
 Sum of Mulliken charges =   1.00000

 Dipole moment (field-independent basis, Debye):
    X=              2.8827    Y=             -1.1809    Z=             -1.9748  Tot=              3.6884
 Quadrupole moment (field-independent basis, Debye-Ang):
   XX=            -67.8709   YY=            -50.7100   ZZ=            -60.6384
   XY=             -3.5267   XZ=             -5.0852   YZ=              3.6524

 Normal termination of Gaussian 16 at Thu May  2 14:19:22 2024.
