 Gaussian 16, Revision A.03,
 Gaussian 16:  ES64L-G16RevA.03 25-Dec-2016

 --------------------------------------------------------------------
 #p B3LYP/6-311+G** #p TD=(singlets,nstates=30)IOp(6/8=3) IOp(9/40=4)
 --------------------------------------------------------------------

 --------------------------------
 Scan Step 123, Bond Length 1.115
 --------------------------------
 Symbolic Z-matrix:
 Charge =  0 Multiplicity = 1

                         Standard orientation:
 ---------------------------------------------------------------------
 Center     Atomic      Atomic             Coordinates (Angstroms)
 Number     Number       Type             X           Y           Z
 ---------------------------------------------------------------------
      1          6           0        0.000000   -0.000000   -0.483581
      2          1           0        0.000000    0.937260   -1.074931
      3          1           0       -0.000000   -0.937260   -1.074931
      4          8           0        0.000000    0.000000    0.631419
 ---------------------------------------------------------------------

 SCF Done:  E(RB3LYP) =  -114.527476268     A.U. after    9 cycles

 Excitation energies and oscillator strengths:

 Excited State   1:      Singlet-A2     4.4727 eV  277.20 nm  f=0.0000  <S**2>=0.000
       3 -> 27         0.00278
       3 -> 38         0.00235
       3 -> 45         0.00215
       4 -> 27         0.00239
       4 -> 38        -0.00067
       4 -> 45        -0.00115
       5 ->  9         0.02077
       5 -> 13        -0.00565
       5 -> 17         0.00605
       5 -> 23        -0.00140
       5 -> 29         0.00411
       5 -> 31         0.00284
       5 -> 36         0.00385
       5 -> 44         0.00067
       5 -> 47         0.00014
       5 -> 52         0.00084
       6 -> 27         0.00021
       6 -> 38        -0.00073
       6 -> 45         0.00172
       7 -> 12        -0.00062
       7 -> 16         0.00222
       7 -> 18        -0.00227
       7 -> 22         0.00120
       7 -> 24         0.00134
       7 -> 30        -0.00080
       7 -> 34         0.00039
       7 -> 35         0.00040
       7 -> 40        -0.00036
       7 -> 48         0.00052
       7 -> 51         0.00025
       7 -> 53         0.00043
       8 ->  9         0.70373
       8 -> 13        -0.06280
       8 -> 17         0.02419
       8 -> 23        -0.01159
       8 -> 29         0.00783
       8 -> 31         0.00328
       8 -> 36        -0.00081
       8 -> 44        -0.00020
       8 -> 47        -0.00021
       8 -> 52         0.00150
       3 <- 27         0.00188
       3 <- 38         0.00198
       3 <- 45         0.00224
       4 <- 27         0.00321
       4 <- 45        -0.00102
       5 <-  9        -0.00014
       5 <- 13        -0.00090
       5 <- 17        -0.00083
       5 <- 23         0.00055
       5 <- 29        -0.00054
       5 <- 31        -0.00104
       5 <- 36         0.00177
       5 <- 44         0.00033
       5 <- 47         0.00017
       5 <- 52         0.00022
       6 <- 27         0.00070
       6 <- 38        -0.00068
       6 <- 45         0.00134
       7 <- 12        -0.00092
       7 <- 16        -0.00607
       7 <- 18        -0.00071
       7 <- 22         0.00691
       7 <- 24        -0.00052
       7 <- 30         0.00276
       7 <- 34        -0.00133
       7 <- 35         0.00254
       7 <- 40        -0.00102
       7 <- 42         0.00026
       7 <- 48         0.00034
       7 <- 51         0.00012
       7 <- 53         0.00116
       8 <-  9        -0.01967
       8 <- 13         0.00433
       8 <- 17        -0.00396
       8 <- 23         0.00078
       8 <- 29        -0.00066
       8 <- 31         0.00136
       8 <- 36        -0.00181
       8 <- 52         0.00044
 This state for optimization and/or second-order correction.
 Total Energy, E(TD-HF/TD-DFT) =  -114.363107036
 Copying the excited state density for this state as the 1-particle RhoCI density.

 Excited State   2:      Singlet-B2     6.6960 eV  185.16 nm  f=0.0452  <S**2>=0.000
       3 -> 12         0.00130
       3 -> 16         0.00067
       3 -> 18         0.00112
       3 -> 22        -0.00026
       3 -> 24         0.00131
       3 -> 30        -0.00011
       3 -> 34         0.00012
       3 -> 35        -0.00030
       4 -> 12        -0.00402
       4 -> 16         0.00137
       4 -> 18         0.00229
       4 -> 22        -0.00335
       4 -> 24         0.00368
       4 -> 30         0.00011
       4 -> 34        -0.00071
       4 -> 35         0.00076
       4 -> 40        -0.00050
       5 -> 10        -0.00413
       5 -> 11        -0.00932
       5 -> 14         0.00689
       5 -> 15        -0.00113
       5 -> 19         0.00228
       5 -> 20         0.00073
       5 -> 21         0.00508
       5 -> 26         0.00259
       5 -> 28         0.00185
       5 -> 32         0.00023
       5 -> 33        -0.00101
       5 -> 37        -0.00031
       5 -> 39        -0.00031
       5 -> 41        -0.00016
       5 -> 43        -0.00056
       5 -> 46        -0.00048
       5 -> 49         0.00012
       6 -> 12         0.00089
       6 -> 16         0.00129
       6 -> 18         0.00315
       6 -> 22        -0.00270
       6 -> 24         0.00152
       6 -> 30        -0.00039
       6 -> 34        -0.00016
       6 -> 35         0.00016
       6 -> 40         0.00021
       6 -> 42        -0.00025
       6 -> 48         0.00041
       6 -> 51        -0.00046
       7 -> 27         0.00038
       7 -> 38        -0.00038
       7 -> 45         0.00063
       8 -> 10         0.70429
       8 -> 11        -0.05766
       8 -> 14         0.00553
       8 -> 15        -0.00850
       8 -> 19         0.01605
       8 -> 20         0.01153
       8 -> 21        -0.00430
       8 -> 25         0.00062
       8 -> 26         0.00170
       8 -> 28         0.00060
       8 -> 32        -0.00020
       8 -> 33         0.00212
       8 -> 37         0.00049
       8 -> 39         0.00048
       8 -> 41        -0.00015
       8 -> 43         0.00067
       8 -> 46        -0.00080
       8 -> 54         0.00017
       3 <- 12         0.00035
       3 <- 16         0.00052
       3 <- 18         0.00046
       3 <- 22        -0.00037
       3 <- 24         0.00082
       3 <- 30        -0.00011
       3 <- 34         0.00010
       3 <- 35        -0.00028
       4 <- 12         0.00063
       4 <- 16         0.00169
       4 <- 18         0.00232
       4 <- 22        -0.00204
       4 <- 24         0.00259
       4 <- 34        -0.00046
       4 <- 35         0.00049
       4 <- 40        -0.00020
       4 <- 42        -0.00020
       4 <- 48        -0.00011
       5 <- 10         0.00245
       5 <- 11        -0.00022
       5 <- 14         0.00496
       5 <- 15        -0.00103
       5 <- 19         0.00053
       5 <- 20         0.00050
       5 <- 21         0.00230
       5 <- 25         0.00171
       5 <- 26         0.00157
       5 <- 28         0.00045
       5 <- 33        -0.00099
       5 <- 37        -0.00035
       5 <- 39        -0.00017
       5 <- 43        -0.00040
       5 <- 46        -0.00041
       5 <- 49         0.00012
       6 <- 12         0.00028
       6 <- 16        -0.00013
       6 <- 18         0.00152
       6 <- 22        -0.00091
       6 <- 24         0.00056
       6 <- 30         0.00034
       6 <- 34        -0.00022
       6 <- 35         0.00032
       6 <- 40         0.00020
       6 <- 42        -0.00024
       6 <- 48         0.00034
       6 <- 51        -0.00046
       6 <- 53         0.00012
       7 <- 27         0.00029
       7 <- 38        -0.00028
       7 <- 45         0.00054
       8 <- 10        -0.00238
       8 <- 11        -0.00065
       8 <- 14        -0.00733
       8 <- 19        -0.00039
       8 <- 20        -0.00042
       8 <- 21        -0.00268
       8 <- 25        -0.00269
       8 <- 26        -0.00022
       8 <- 28        -0.00069
       8 <- 32        -0.00080
       8 <- 33         0.00116
       8 <- 37         0.00047
       8 <- 39         0.00039
       8 <- 43         0.00050
       8 <- 46        -0.00054
       8 <- 50        -0.00013

 Excited State   3:      Singlet-B2     7.4914 eV  165.50 nm  f=0.0224  <S**2>=0.000
       3 -> 12        -0.00024
       3 -> 16        -0.00067
       3 -> 18         0.00064
       3 -> 22         0.00030
       3 -> 24         0.00026
       3 -> 30         0.00171
       3 -> 34         0.00013
       3 -> 35        -0.00037
       3 -> 40         0.00035
       3 -> 42        -0.00013
       3 -> 48         0.00032
       3 -> 51        -0.00027
       4 -> 12         0.00302
       4 -> 16        -0.00057
       4 -> 18         0.00303
       4 -> 22        -0.00153
       4 -> 24         0.00321
       4 -> 30        -0.00111
       4 -> 34         0.00052
       4 -> 35        -0.00045
       4 -> 42        -0.00017
       4 -> 48         0.00021
       4 -> 51        -0.00013
       5 -> 10        -0.00765
       5 -> 11         0.00021
       5 -> 14         0.00671
       5 -> 15        -0.00688
       5 -> 19        -0.00352
       5 -> 20        -0.00346
       5 -> 21         0.00103
       5 -> 25         0.00140
       5 -> 28         0.00156
       5 -> 32        -0.00038
       5 -> 33        -0.00149
       5 -> 37        -0.00013
       5 -> 39         0.00043
       5 -> 41        -0.00083
       5 -> 46         0.00082
       5 -> 50         0.00043
       6 -> 12        -0.00323
       6 -> 16        -0.00190
       6 -> 18        -0.00127
       6 -> 22         0.00144
       6 -> 30         0.00070
       6 -> 34        -0.00047
       6 -> 35         0.00147
       6 -> 40        -0.00095
       6 -> 42         0.00015
       6 -> 48        -0.00089
       6 -> 51         0.00063
       6 -> 53         0.00012
       7 -> 27        -0.00032
       7 -> 38        -0.00108
       7 -> 45        -0.00153
       8 -> 10         0.05826
       8 -> 11         0.70378
       8 -> 14        -0.01016
       8 -> 15         0.01468
       8 -> 19        -0.02584
       8 -> 20         0.01085
       8 -> 21        -0.00228
       8 -> 25         0.00058
       8 -> 26        -0.00164
       8 -> 28        -0.00018
       8 -> 32        -0.00038
       8 -> 41        -0.00135
       8 -> 43         0.00019
       8 -> 46         0.00146
       8 -> 49        -0.00022
       8 -> 50         0.00085
       8 -> 54        -0.00016
       3 <- 12         0.00033
       3 <- 16        -0.00025
       3 <- 18         0.00081
       3 <- 24         0.00038
       3 <- 30         0.00102
       3 <- 34         0.00022
       3 <- 35        -0.00043
       3 <- 40         0.00031
       3 <- 42        -0.00011
       3 <- 48         0.00026
       3 <- 51        -0.00017
       3 <- 53        -0.00024
       4 <- 12         0.00035
       4 <- 16         0.00059
       4 <- 18         0.00082
       4 <- 22        -0.00117
       4 <- 24         0.00133
       4 <- 30        -0.00049
       4 <- 34         0.00048
       4 <- 42        -0.00019
       4 <- 48         0.00015
       4 <- 51        -0.00018
       5 <- 10         0.00130
       5 <- 11        -0.00094
       5 <- 14         0.00235
       5 <- 15        -0.00044
       5 <- 19         0.00084
       5 <- 20        -0.00027
       5 <- 21         0.00084
       5 <- 25         0.00121
       5 <- 26        -0.00040
       5 <- 28         0.00077
       5 <- 32         0.00088
       5 <- 33        -0.00081
       5 <- 37         0.00018
       5 <- 39         0.00017
       5 <- 41        -0.00085
       5 <- 46         0.00076
       5 <- 50         0.00036
       6 <- 12        -0.00034
       6 <- 16        -0.00038
       6 <- 18        -0.00011
       6 <- 22         0.00054
       6 <- 30         0.00036
       6 <- 34        -0.00029
       6 <- 35         0.00113
       6 <- 40        -0.00069
       6 <- 48        -0.00074
       6 <- 51         0.00053
       7 <- 38        -0.00087
       7 <- 45        -0.00130
       8 <- 10        -0.00075
       8 <- 14        -0.00410
       8 <- 15         0.00055
       8 <- 19         0.00329
       8 <- 20        -0.00131
       8 <- 21        -0.00209
       8 <- 25         0.00018
       8 <- 26        -0.00164
       8 <- 28        -0.00017
       8 <- 32         0.00125
       8 <- 33         0.00073
       8 <- 37        -0.00011
       8 <- 39        -0.00036
       8 <- 41        -0.00116
       8 <- 46         0.00117
       8 <- 50         0.00062

 Excited State   4:      Singlet-A1     7.6513 eV  162.04 nm  f=0.0535  <S**2>=0.000
       3 -> 10         0.00174
       3 -> 11        -0.00099
       3 -> 14         0.00065
       3 -> 15        -0.00028
       3 -> 19         0.00060
       3 -> 20         0.00136
       3 -> 21         0.00052
       3 -> 25        -0.00041
       3 -> 26         0.00099
       3 -> 28         0.00112
       3 -> 32        -0.00021
       3 -> 33        -0.00048
       3 -> 37        -0.00026
       3 -> 39         0.00011
       3 -> 41        -0.00021
       3 -> 46         0.00010
       3 -> 49         0.00020
       3 -> 50         0.00032
       3 -> 54        -0.00021
       4 -> 10         0.00516
       4 -> 11         0.00710
       4 -> 14         0.00542
       4 -> 19         0.00040
       4 -> 20         0.00494
       4 -> 21         0.00180
       4 -> 25         0.00720
       4 -> 26         0.00120
       4 -> 28        -0.00045
       4 -> 32         0.00052
       4 -> 33        -0.00049
       4 -> 39        -0.00020
       4 -> 41         0.00015
       4 -> 43         0.00015
       4 -> 46        -0.00023
       4 -> 49        -0.00013
       4 -> 50         0.00014
       5 -> 12         0.00715
       5 -> 16         0.00094
       5 -> 18         0.01136
       5 -> 22        -0.00160
       5 -> 24         0.00522
       5 -> 34        -0.00015
       5 -> 35         0.00080
       5 -> 51         0.00030
       5 -> 53        -0.00015
       6 -> 10         0.01301
       6 -> 11        -0.00348
       6 -> 14         0.00435
       6 -> 15         0.00140
       6 -> 19         0.00380
       6 -> 20         0.00447
       6 -> 21         0.00154
       6 -> 25         0.00287
       6 -> 26         0.00034
       6 -> 28        -0.00140
       6 -> 32         0.00061
       6 -> 33        -0.00020
       6 -> 43         0.00012
       6 -> 49        -0.00054
       6 -> 50        -0.00036
       7 ->  9         0.01403
       7 -> 13         0.00882
       7 -> 17         0.00379
       7 -> 23         0.00520
       7 -> 29        -0.00025
       7 -> 31         0.00086
       7 -> 36         0.00056
       7 -> 44         0.00066
       7 -> 47        -0.00035
       7 -> 52        -0.00011
       8 -> 12         0.70575
       8 -> 16        -0.01586
       8 -> 18         0.02941
       8 -> 22         0.00506
       8 -> 24         0.00280
       8 -> 30         0.00098
       8 -> 34         0.00153
       8 -> 35        -0.00207
       8 -> 40        -0.00073
       8 -> 42         0.00039
       8 -> 48        -0.00038
       8 -> 51         0.00030
       8 -> 53        -0.00021
       3 <- 10         0.00060
       3 <- 11        -0.00014
       3 <- 14         0.00038
       3 <- 19         0.00019
       3 <- 20         0.00063
       3 <- 21         0.00041
       3 <- 26         0.00059
       3 <- 28         0.00072
       3 <- 32        -0.00024
       3 <- 33        -0.00029
       3 <- 37        -0.00021
       3 <- 41        -0.00016
       3 <- 46         0.00019
       3 <- 49         0.00015
       3 <- 50         0.00029
       3 <- 54        -0.00019
       4 <- 10         0.00467
       4 <- 11         0.00185
       4 <- 14         0.00398
       4 <- 15        -0.00042
       4 <- 19         0.00027
       4 <- 20         0.00281
       4 <- 21         0.00071
       4 <- 25         0.00400
       4 <- 26         0.00076
       4 <- 32         0.00045
       4 <- 33        -0.00086
       4 <- 39        -0.00026
       4 <- 46        -0.00020
       4 <- 49        -0.00010
       4 <- 50         0.00013
       5 <- 12         0.00277
       5 <- 16         0.00202
       5 <- 18         0.00405
       5 <- 22        -0.00047
       5 <- 24         0.00283
       5 <- 34        -0.00034
       5 <- 35         0.00074
       5 <- 40         0.00010
       5 <- 51         0.00020
       5 <- 53        -0.00013
       6 <- 10         0.00347
       6 <- 11        -0.00034
       6 <- 14         0.00177
       6 <- 15         0.00044
       6 <- 19         0.00126
       6 <- 20         0.00219
       6 <- 21         0.00055
       6 <- 25         0.00147
       6 <- 26         0.00045
       6 <- 28        -0.00085
       6 <- 32         0.00046
       6 <- 33        -0.00027
       6 <- 41         0.00014
       6 <- 49        -0.00043
       6 <- 50        -0.00038
       7 <-  9         0.00147
       7 <- 13         0.00228
       7 <- 17         0.00115
       7 <- 23         0.00270
       7 <- 29        -0.00025
       7 <- 31         0.00060
       7 <- 36         0.00045
       7 <- 44         0.00054
       7 <- 47        -0.00030
       8 <- 12        -0.00142
       8 <- 16        -0.00710
       8 <- 18        -0.00252
       8 <- 22         0.00080
       8 <- 24        -0.00208
       8 <- 30        -0.00012
       8 <- 34         0.00077
       8 <- 35        -0.00106
       8 <- 40        -0.00067
       8 <- 42         0.00033
       8 <- 48        -0.00042
       8 <- 51         0.00024
       8 <- 53        -0.00022

 Excited State   5:      Singlet-A2     8.1530 eV  152.07 nm  f=0.0000  <S**2>=0.000
       3 -> 27        -0.00061
       3 -> 38        -0.00054
       3 -> 45        -0.00032
       4 -> 27         0.00017
       4 -> 38         0.00053
       5 ->  9        -0.00860
       5 -> 13        -0.00224
       5 -> 17         0.00615
       5 -> 23        -0.00155
       5 -> 31        -0.00169
       5 -> 36        -0.00116
       5 -> 44        -0.00022
       5 -> 52        -0.00011
       6 -> 27         0.00022
       6 -> 38         0.00029
       6 -> 45        -0.00033
       7 -> 12        -0.00050
       7 -> 16        -0.00181
       7 -> 18         0.00190
       7 -> 22        -0.00070
       7 -> 24        -0.00014
       7 -> 35        -0.00016
       7 -> 40         0.00013
       7 -> 48        -0.00012
       8 ->  9         0.06271
       8 -> 13         0.70383
       8 -> 17         0.01562
       8 -> 23         0.01823
       8 -> 31        -0.00138
       8 -> 36        -0.00019
       8 -> 47         0.00018
       8 -> 52        -0.00017
       3 <- 27        -0.00022
       3 <- 38        -0.00038
       3 <- 45        -0.00040
       4 <- 27        -0.00020
       5 <-  9        -0.00026
       5 <- 13        -0.00031
       5 <- 17         0.00059
       5 <- 36        -0.00026
       6 <- 38         0.00020
       7 <- 12        -0.00066
       7 <- 16        -0.00085
       7 <- 18         0.00068
       7 <- 22        -0.00118
       7 <- 24        -0.00038
       7 <- 30         0.00020
       7 <- 34         0.00043
       7 <- 35        -0.00071
       7 <- 40         0.00040
       7 <- 42        -0.00015
       7 <- 53        -0.00012
       8 <-  9         0.00263
       8 <- 13         0.00142
       8 <- 17         0.00023
       8 <- 23        -0.00023
       8 <- 31        -0.00013
       8 <- 36         0.00021

 Excited State   6:      Singlet-B1    10.1726 eV  121.88 nm  f=0.0004  <S**2>=0.000
       3 ->  9        -0.03040
       3 -> 13         0.00813
       3 -> 17        -0.00778
       3 -> 23         0.00542
       3 -> 29        -0.00343
       3 -> 31        -0.00046
       3 -> 36        -0.00016
       3 -> 44         0.00079
       3 -> 47        -0.00025
       3 -> 52         0.00108
       4 ->  9         0.01648
       4 -> 13        -0.00288
       4 -> 17         0.00105
       4 -> 23        -0.00239

 The electronic state is 1-A1.
 Alpha  occ. eigenvalues --  -19.14549 -10.26441  -1.12691  -0.63170  -0.52367
 Alpha  occ. eigenvalues --   -0.47779  -0.44507  -0.27438
 Alpha virt. eigenvalues --   -0.04051   0.01031   0.04100   0.04316   0.06728
 Alpha virt. eigenvalues --    0.13330   0.18348   0.18827   0.22016   0.22873
 Alpha virt. eigenvalues --    0.27200   0.34521   0.47672   0.48297   0.51066

 Mulliken charges:
               1
     1  C    0.047177
     2  H    0.086262
     3  H    0.086262
     4  O   -0.219700
 Sum of Mulliken charges =  -0.00000

 Dipole moment (field-independent basis, Debye):
    X=             -0.0000    Y=              0.0000    Z=             -2.0324  Tot=              2.0324
 Quadrupole moment (field-independent basis, Debye-Ang):
   XX=            -11.4811   YY=            -11.8032   ZZ=            -12.6670
   XY=              0.0000   XZ=              0.0000   YZ=             -0.0000

 Normal termination of Gaussian 16 at Fri Sep 17 10:52:39 2021.
