 Gaussian 16, Revision A.03,
 Gaussian 16:  ES64L-G16RevA.03 25-Dec-2016

 --------------------------------------------------------------------
 #p B3LYP/6-311+G** #p TD=(singlets,nstates=30)IOp(6/8=3) IOp(9/40=4)
 --------------------------------------------------------------------

 -------------------------------
 Scan Step 29, Bond Length 0.645
 -------------------------------
 Symbolic Z-matrix:
 Charge =  0 Multiplicity = 1

                         Standard orientation:
 ---------------------------------------------------------------------
 Center     Atomic      Atomic             Coordinates (Angstroms)
 Number     Number       Type             X           Y           Z
 ---------------------------------------------------------------------
      1          6           0        0.000000    0.000000   -0.248581
      2          1           0        0.000000    0.937260   -0.839931
      3          1           0       -0.000000   -0.937260   -0.839931
      4          8           0        0.000000    0.000000    0.396419
 ---------------------------------------------------------------------

 SCF Done:  E(RB3LYP) =  -112.352338213     A.U. after   10 cycles

 Excitation energies and oscillator strengths:

 Excited State   1:      Singlet-B2     4.7028 eV  263.64 nm  f=0.1301  <S**2>=0.000
       3 -> 11         0.00075
       3 -> 16         0.00072
       3 -> 19         0.00075
       3 -> 22         0.00056
       3 -> 24         0.00105
       3 -> 29         0.00018
       3 -> 32        -0.00021
       3 -> 40        -0.00027
       3 -> 43         0.00022
       3 -> 54         0.00016
       4 ->  9        -0.00279
       4 -> 12         0.00261
       4 -> 13         0.00335
       4 -> 15         0.00145
       4 -> 18         0.00254
       4 -> 20         0.00208
       4 -> 21         0.00164
       4 -> 25         0.00140
       4 -> 26        -0.00077
       4 -> 30         0.00095
       4 -> 31         0.00143
       4 -> 33         0.00017
       4 -> 38        -0.00062
       4 -> 42         0.00047
       4 -> 44        -0.00029
       4 -> 47        -0.00076
       4 -> 49        -0.00013
       4 -> 51        -0.00011
       5 -> 28         0.00191
       5 -> 35         0.00086
       5 -> 45         0.00077
       6 -> 11        -0.00534
       6 -> 16         0.00351
       6 -> 19         0.00030
       6 -> 22        -0.00052
       6 -> 24         0.00458
       6 -> 29         0.00070
       6 -> 32        -0.00068
       6 -> 37         0.00013
       6 -> 40        -0.00011
       6 -> 43         0.00015
       6 -> 46         0.00035
       7 -> 11         0.00868
       7 -> 16         0.00357
       7 -> 19         0.00319
       7 -> 22         0.00021
       7 -> 24         0.00063
       7 -> 29        -0.00116
       7 -> 32         0.00094
       7 -> 37        -0.00069
       7 -> 43        -0.00040
       7 -> 46         0.00040
       7 -> 50         0.00042
       7 -> 54        -0.00011
       8 ->  9         0.70506
       8 -> 12        -0.00076
       8 -> 13         0.05214
       8 -> 15        -0.00568
       8 -> 18        -0.02242
       8 -> 20         0.00539
       8 -> 21         0.01056
       8 -> 25        -0.00024
       8 -> 26        -0.00055
       8 -> 30        -0.00325
       8 -> 31        -0.00197
       8 -> 33        -0.00094
       8 -> 38        -0.00110
       8 -> 42         0.00075
       8 -> 44         0.00038
       8 -> 47         0.00071
       8 -> 49         0.00027
       8 -> 51         0.00010
       3 <- 11         0.00034
       3 <- 16         0.00038
       3 <- 19         0.00048
       3 <- 22         0.00046
       3 <- 24         0.00079
       3 <- 29         0.00013
       3 <- 32        -0.00023
       3 <- 40        -0.00027
       3 <- 43         0.00022
       3 <- 54         0.00016
       4 <-  9        -0.00118
       4 <- 12        -0.00021
       4 <- 13         0.00275
       4 <- 15         0.00171
       4 <- 18         0.00045
       4 <- 20         0.00125
       4 <- 21         0.00131
       4 <- 25         0.00107
       4 <- 26        -0.00133
       4 <- 30         0.00072
       4 <- 31         0.00061
       4 <- 33         0.00019
       4 <- 38        -0.00040
       4 <- 39         0.00015
       4 <- 42         0.00039
       4 <- 44        -0.00023
       4 <- 47        -0.00068
       5 <- 28         0.00160
       5 <- 35         0.00070
       5 <- 45         0.00065
       6 <- 11        -0.00116
       6 <- 16         0.00314
       6 <- 19         0.00054
       6 <- 22         0.00010
       6 <- 24         0.00338
       6 <- 29         0.00022
       6 <- 32        -0.00060
       6 <- 37         0.00019
       6 <- 43         0.00011
       6 <- 46         0.00032
       6 <- 50         0.00017
       7 <- 11         0.00195
       7 <- 16         0.00147
       7 <- 19         0.00044
       7 <- 29        -0.00166
       7 <- 32         0.00077
       7 <- 37        -0.00043
       7 <- 43        -0.00027
       7 <- 46         0.00043
       7 <- 50         0.00049
       8 <-  9        -0.00969
       8 <- 12        -0.00590
       8 <- 13         0.02158
       8 <- 15         0.00672
       8 <- 18         0.00120
       8 <- 20         0.00074
       8 <- 21         0.00543
       8 <- 25         0.00301
       8 <- 26        -0.00021
       8 <- 30        -0.00216
       8 <- 31        -0.00139
       8 <- 33        -0.00132
       8 <- 38        -0.00106
       8 <- 42         0.00065
       8 <- 44         0.00011
       8 <- 47         0.00062
       8 <- 49         0.00018
 This state for optimization and/or second-order correction.
 Total Energy, E(TD-HF/TD-DFT) =  -112.179513864
 Copying the excited state density for this state as the 1-particle RhoCI density.

 Excited State   2:      Singlet-A2     5.0485 eV  245.58 nm  f=0.0000  <S**2>=0.000
       3 -> 28        -0.00184
       3 -> 35        -0.00109
       3 -> 45        -0.00037
       4 -> 10        -0.00082
       4 -> 14         0.00028
       4 -> 17        -0.00323
       4 -> 23         0.00133
       4 -> 27        -0.00213
       4 -> 34         0.00011
       4 -> 36        -0.00134
       4 -> 41        -0.00012
       4 -> 48        -0.00014
       4 -> 52        -0.00025
       5 -> 11         0.00025
       5 -> 16        -0.00017
       5 -> 19         0.00034
       5 -> 22        -0.00084
       5 -> 24         0.00024
       5 -> 29         0.00027
       5 -> 32        -0.00010
       5 -> 37        -0.00032
       5 -> 40         0.00012
       5 -> 43        -0.00037
       5 -> 46        -0.00033
       5 -> 50         0.00018
       6 -> 28        -0.00315
       6 -> 35         0.00050
       7 -> 28         0.00165
       7 -> 35        -0.00035
       7 -> 45        -0.00040
       8 -> 10         0.70634
       8 -> 14        -0.01912
       8 -> 17         0.02741
       8 -> 23         0.00339
       8 -> 27         0.00113
       8 -> 34         0.00327
       8 -> 36        -0.00180
       8 -> 41         0.00034
       8 -> 48         0.00014
       8 -> 52         0.00034
       3 <- 28        -0.00152
       3 <- 35        -0.00095
       3 <- 45        -0.00036
       4 <- 10        -0.00018
       4 <- 14         0.00058
       4 <- 17        -0.00079
       4 <- 23         0.00013
       4 <- 27        -0.00041
       4 <- 34         0.00072
       4 <- 36        -0.00076
       4 <- 41        -0.00020
       5 <- 11         0.00056
       5 <- 16        -0.00053
       5 <- 19         0.00135
       5 <- 22        -0.00116
       5 <- 24         0.00102
       5 <- 29         0.00129
       5 <- 32         0.00018
       5 <- 37        -0.00068
       5 <- 43        -0.00042
       5 <- 46        -0.00034
       5 <- 54        -0.00022
       6 <- 28        -0.00305
       6 <- 35         0.00064
       7 <- 28         0.00170
       7 <- 35        -0.00046
       7 <- 45        -0.00041
       8 <- 10         0.00194
       8 <- 14         0.00444
       8 <- 17        -0.00658
       8 <- 23         0.00018
       8 <- 27        -0.00059
       8 <- 34         0.00313
       8 <- 36        -0.00143
       8 <- 41         0.00021
       8 <- 52         0.00012

 Excited State   3:      Singlet-B2     5.6802 eV  218.28 nm  f=0.0353  <S**2>=0.000
       3 -> 11        -0.00017
       3 -> 16         0.00044
       3 -> 19        -0.00032
       3 -> 22         0.00030
       3 -> 24         0.00028
       3 -> 29        -0.00033
       3 -> 32         0.00012
       3 -> 37        -0.00020
       3 -> 40         0.00012
       3 -> 43        -0.00020
       3 -> 46         0.00013
       3 -> 54        -0.00018
       4 ->  9         0.00149
       4 -> 12         0.00028
       4 -> 13         0.00113
       4 -> 15         0.00223
       4 -> 18        -0.00116
       4 -> 20        -0.00054
       4 -> 21         0.00114
       4 -> 25         0.00087
       4 -> 26         0.00047
       4 -> 30        -0.00216
       4 -> 31        -0.00037
       4 -> 38         0.00030
       4 -> 39        -0.00095
       4 -> 42        -0.00030
       4 -> 47         0.00049
       5 -> 28        -0.00100
       5 -> 35        -0.00119
       5 -> 45        -0.00066
       6 -> 11        -0.00069
       6 -> 16         0.00357
       6 -> 19        -0.00186
       6 -> 24         0.00171
       6 -> 29         0.00188
       6 -> 32         0.00041
       6 -> 37         0.00061
       6 -> 40         0.00043
       6 -> 43         0.00029
       6 -> 46        -0.00031
       6 -> 50        -0.00025
       6 -> 54         0.00014
       7 -> 11        -0.00181
       7 -> 16        -0.00437
       7 -> 19        -0.00108
       7 -> 22         0.00048
       7 -> 24        -0.00319
       7 -> 29        -0.00111
       7 -> 32        -0.00048
       7 -> 37         0.00051
       7 -> 43         0.00012
       7 -> 46        -0.00055
       7 -> 50        -0.00028
       7 -> 54         0.00014
       8 ->  9        -0.00101
       8 -> 12         0.70564
       8 -> 13         0.03413
       8 -> 15         0.02690
       8 -> 18         0.00714
       8 -> 20         0.01577
       8 -> 21         0.00542
       8 -> 25        -0.00092
       8 -> 26         0.00188
       8 -> 30        -0.00271
       8 -> 31         0.00052
       8 -> 33        -0.00021
       8 -> 38        -0.00050
       8 -> 39         0.00143
       8 -> 42         0.00087
       8 -> 47        -0.00037
       8 -> 53        -0.00015
       3 <- 16         0.00042
       3 <- 22         0.00015
       3 <- 24         0.00035
       3 <- 29        -0.00018
       3 <- 32         0.00013
       3 <- 37        -0.00021
       3 <- 43        -0.00019
       3 <- 54        -0.00023
       4 <-  9        -0.00115
       4 <- 12        -0.00017
       4 <- 13         0.00120
       4 <- 15         0.00068
       4 <- 18         0.00059
       4 <- 20        -0.00042
       4 <- 21         0.00078
       4 <- 25         0.00097
       4 <- 26         0.00054
       4 <- 30        -0.00144
       4 <- 33        -0.00057
       4 <- 38         0.00020
       4 <- 39        -0.00071
       4 <- 42        -0.00032
       4 <- 47         0.00045
       5 <- 28        -0.00061
       5 <- 35        -0.00103
       5 <- 45        -0.00058
       6 <- 11        -0.00050
       6 <- 16         0.00073
       6 <- 19         0.00025
       6 <- 22        -0.00056
       6 <- 24         0.00150
       6 <- 29         0.00145
       6 <- 32         0.00059
       6 <- 37         0.00056
       6 <- 40         0.00036
       6 <- 43         0.00021
       6 <- 46        -0.00026
       6 <- 50        -0.00019
       6 <- 54         0.00010
       7 <- 11         0.00010
       7 <- 16        -0.00143
       7 <- 19        -0.00058
       7 <- 22         0.00034
       7 <- 24        -0.00188
       7 <- 29        -0.00029
       7 <- 32        -0.00040
       7 <- 37         0.00016
       7 <- 46        -0.00049
       7 <- 50        -0.00036
       8 <-  9        -0.00541
       8 <- 12         0.00094
       8 <- 13         0.01151
       8 <- 15         0.00454
       8 <- 18        -0.00119
       8 <- 20        -0.00311
       8 <- 21         0.00331
       8 <- 25         0.00064
       8 <- 30        -0.00226
       8 <- 31         0.00051
       8 <- 33        -0.00012
       8 <- 38        -0.00033
       8 <- 39         0.00126
       8 <- 42         0.00076
       8 <- 47        -0.00031

 Excited State   4:      Singlet-A1     5.8648 eV  211.40 nm  f=0.0055  <S**2>=0.000
       3 ->  9         0.00132
       3 -> 12        -0.00046
       3 -> 13         0.00021
       3 -> 15        -0.00076
       3 -> 18        -0.00156
       3 -> 20        -0.00014
       3 -> 21         0.00084
       3 -> 25        -0.00071
       3 -> 26        -0.00031
       3 -> 30         0.00067
       3 -> 31        -0.00080
       3 -> 33         0.00046
       3 -> 38         0.00038
       3 -> 39         0.00033
       3 -> 44        -0.00010
       3 -> 47        -0.00011
       3 -> 51         0.00019
       3 -> 53        -0.00011
       4 -> 11        -0.00597
       4 -> 16        -0.00598
       4 -> 19        -0.00468
       4 -> 22        -0.00250
       4 -> 24        -0.00325
       4 -> 37        -0.00101
       4 -> 40        -0.00013
       4 -> 43         0.00024
       4 -> 50         0.00016
       5 -> 10        -0.00314
       5 -> 14        -0.00369
       5 -> 17        -0.00234
       5 -> 23        -0.00349
       5 -> 27        -0.00082
       5 -> 34        -0.00085
       5 -> 36        -0.00059
       5 -> 48         0.00019
       6 ->  9         0.01155
       6 -> 12         0.00605
       6 -> 13        -0.00384
       6 -> 15        -0.00445
       6 -> 18        -0.00728
       6 -> 20         0.00427
       6 -> 21         0.00154
       6 -> 25        -0.00556
       6 -> 26         0.00092
       6 -> 30        -0.00037
       6 -> 31         0.00169
       6 -> 33         0.00201
       6 -> 38         0.00131
       6 -> 39        -0.00111
       6 -> 42        -0.00016
       6 -> 44         0.00065
       6 -> 49        -0.00043
       7 ->  9         0.00696
       7 -> 12        -0.01238
       7 -> 13         0.00104
       7 -> 15         0.00559
       7 -> 18        -0.00710
       7 -> 20        -0.00390
       7 -> 21        -0.00099
       7 -> 25         0.00167
       7 -> 26        -0.00328
       7 -> 30        -0.00074
       7 -> 31        -0.00182
       7 -> 33         0.00012
       7 -> 38        -0.00081
       7 -> 39         0.00057
       7 -> 42         0.00015
       7 -> 44        -0.00037
       7 -> 51        -0.00016
       8 -> 11         0.70464
       8 -> 16         0.05370
       8 -> 19        -0.02016
       8 -> 22        -0.00081
       8 -> 24         0.00756
       8 -> 29        -0.00367
       8 -> 32         0.00203
       8 -> 37        -0.00335
       8 -> 40        -0.00044
       8 -> 43         0.00186
       8 -> 46        -0.00097
       8 -> 50         0.00021
       3 <-  9         0.00074
       3 <- 12        -0.00022
       3 <- 13         0.00017
       3 <- 15        -0.00048
       3 <- 18        -0.00100
       3 <- 20        -0.00011
       3 <- 21         0.00057
       3 <- 25        -0.00055
       3 <- 26        -0.00025
       3 <- 30         0.00052
       3 <- 31        -0.00055
       3 <- 33         0.00039
       3 <- 38         0.00030
       3 <- 39         0.00027
       3 <- 44        -0.00010
       3 <- 47        -0.00014
       3 <- 51         0.00016
       4 <- 11        -0.00250
       4 <- 16        -0.00249
       4 <- 19        -0.00271
       4 <- 22        -0.00179
       4 <- 24        -0.00179
       4 <- 32         0.00012
       4 <- 37        -0.00084
       4 <- 40        -0.00012
       4 <- 43         0.00023
       4 <- 50         0.00015
       5 <- 10        -0.00177
       5 <- 14        -0.00218
       5 <- 17        -0.00145
       5 <- 23        -0.00245
       5 <- 27        -0.00060
       5 <- 34        -0.00070
       5 <- 36        -0.00050
       5 <- 48         0.00017
       6 <-  9         0.00815
       6 <- 12         0.00311
       6 <- 13        -0.00305
       6 <- 15        -0.00356
       6 <- 18        -0.00393
       6 <- 20         0.00238
       6 <- 21         0.00186
       6 <- 25        -0.00375
       6 <- 26         0.00059
       6 <- 31         0.00125
       6 <- 33         0.00145
       6 <- 38         0.00128
       6 <- 39        -0.00086
       6 <- 42        -0.00016
       6 <- 44         0.00063
       6 <- 49        -0.00036
       7 <-  9        -0.00014
       7 <- 12        -0.00510
       7 <- 13         0.00161
       7 <- 15         0.00387
       7 <- 18        -0.00334
       7 <- 20        -0.00185
       7 <- 21        -0.00109
       7 <- 25         0.00119
       7 <- 26        -0.00217
       7 <- 30        -0.00075
       7 <- 31        -0.00139
       7 <- 38        -0.00073
       7 <- 39         0.00033
       7 <- 44        -0.00037
       7 <- 47         0.00011
       7 <- 51        -0.00015
       8 <- 11        -0.01085
       8 <- 16         0.00512
       8 <- 19        -0.01580
       8 <- 22        -0.00419
       8 <- 24         0.00340
       8 <- 29        -0.00267
       8 <- 32         0.00183
       8 <- 37        -0.00267
       8 <- 40        -0.00017
       8 <- 43         0.00150
       8 <- 46        -0.00093
       8 <- 50         0.00021

 Excited State   5:      Singlet-A2     8.2395 eV  150.48 nm  f=0.0000  <S**2>=0.000
       3 -> 28         0.00254
       3 -> 35         0.00160
       3 -> 45         0.00052
       4 -> 14        -0.00665
       4 -> 17         0.00172
       4 -> 23        -0.00328
       4 -> 27         0.00062
       4 -> 34         0.00081
       4 -> 36         0.00242
       4 -> 52         0.00029
       5 -> 16        -0.00037
       5 -> 19        -0.00048
       5 -> 22         0.00130
       5 -> 24        -0.00072
       5 -> 37         0.00043
       5 -> 40        -0.00016
       5 -> 43         0.00060
       5 -> 46         0.00043
       5 -> 50        -0.00013
       5 -> 54         0.00013
       6 -> 28         0.00272
       6 -> 35        -0.00065
       6 -> 45         0.00011
       7 -> 28        -0.00149
       7 -> 35         0.00041
       7 -> 45         0.00046
       8 -> 10         0.02150
       8 -> 14         0.70340
       8 -> 17        -0.06618
       8 -> 23         0.01925
       8 -> 27        -0.00241
       8 -> 34        -0.00282
       8 -> 36         0.00282
       8 -> 41        -0.00015
       8 -> 52        -0.00038
       3 <- 28         0.00176
       3 <- 35         0.00131
       3 <- 45         0.00057
       4 <- 10         0.00032
       4 <- 14        -0.00064
       4 <- 17         0.00057
       4 <- 23        -0.00022
       4 <- 27         0.00028
       4 <- 34        -0.00062
       4 <- 36         0.00094
       4 <- 41         0.00026
       4 <- 52         0.00011
       5 <- 11         0.00038
       5 <- 16        -0.00018
       5 <- 19        -0.00043
       5 <- 22         0.00159
       5 <- 24        -0.00150
       5 <- 29        -0.00039
       5 <- 32        -0.00053
       5 <- 37         0.00108
       5 <- 43         0.00068
       5 <- 46         0.00016
       5 <- 54         0.00027
       6 <- 28         0.00285
       6 <- 35        -0.00057
       6 <- 45        -0.00011
       7 <- 28        -0.00145
       7 <- 35         0.00011
       7 <- 45         0.00028
       8 <- 10         0.00485
       8 <- 14        -0.00273
       8 <- 17         0.00445
       8 <- 23        -0.00079
       8 <- 27         0.00046
       8 <- 34        -0.00309
       8 <- 36         0.00154
       8 <- 41        -0.00023
       8 <- 52        -0.00016

 Excited State   6:      Singlet-B2     8.9094 eV  139.16 nm  f=0.0972  <S**2>=0.000
       3 -> 11         0.00046

 The electronic state is 1-A1.
 Alpha  occ. eigenvalues --  -19.22002 -10.35692  -1.30198  -0.82215  -0.79305
 Alpha  occ. eigenvalues --   -0.58222  -0.53853  -0.20132
 Alpha virt. eigenvalues --    0.00613   0.02724   0.04428   0.04689   0.14331
 Alpha virt. eigenvalues --    0.15331   0.17874   0.18208   0.21749   0.22916
 Alpha virt. eigenvalues --    0.27576   0.36587   0.50705   0.57502   0.59321

 Mulliken charges:
               1
     1  C    0.279516
     2  H   -0.109848
     3  H   -0.109848
     4  O   -0.059821
 Sum of Mulliken charges =   0.00000

 Dipole moment (field-independent basis, Debye):
    X=              0.0000    Y=              0.0000    Z=              1.3186  Tot=              1.3186
 Quadrupole moment (field-independent basis, Debye-Ang):
   XX=            -10.1598   YY=            -13.8462   ZZ=            -13.6713
   XY=             -0.0000   XZ=             -0.0000   YZ=             -0.0000

 Normal termination of Gaussian 16 at Fri Sep 17 10:52:25 2021.
