 Gaussian 16, Revision C.01,
 Gaussian 16:  ES64L-G16RevC.01  3-Jul-2019

 ---------------------------------------
 #P wB97XD/6-311+G* NoSymm #P Field=Z-97
 ---------------------------------------

 -------
 TitleMe
 -------
 Symbolic Z-matrix:
 Charge =  1 Multiplicity = 1

                          Input orientation:
 ---------------------------------------------------------------------
 Center     Atomic      Atomic             Coordinates (Angstroms)
 Number     Number       Type             X           Y           Z
 ---------------------------------------------------------------------
      1          6           0        0.029500    1.339700    0.068200
      2          6           0        1.434800    1.286700    0.006400
      3          6           0        2.111800    0.051100   -0.005400
      4          6           0        1.445100   -1.137200    0.031200
      5          6           0       -0.687900    0.168200    0.110000
      6          1           0       -0.471300    2.298400    0.078100
      7          1           0        2.027300    2.196500   -0.032200
      8          1           0        1.989700   -2.076400    0.023200
      9          1           0       -1.771600    0.180400    0.158200
     10          7           0        3.586400    0.051000   -0.067500
     11          8           0        4.147100   -1.059700   -0.088100
     12          8           0        4.145000    1.163900   -0.090100
     13          6           0       -0.023600   -1.145800    0.083500
     14          1           0       -0.436700   -1.872500    0.788900
     15         35           0       -0.535900   -1.869700   -1.740800
 ---------------------------------------------------------------------

 SCF Done:  E(RwB97XD) =  -3010.53846816     A.U. after   18 cycles

 Alpha  occ. eigenvalues -- -483.32637 -62.87686 -56.67347 -56.66818 -56.66816
 Alpha  occ. eigenvalues --  -19.46078 -19.45997 -14.85578 -10.58898 -10.57862
 Alpha  occ. eigenvalues --  -10.57458 -10.57275 -10.56990 -10.53159  -9.03508
 Alpha  occ. eigenvalues --   -6.86101  -6.84361  -6.84348  -2.96026  -2.95561
 Alpha  occ. eigenvalues --   -2.95549  -2.94157  -2.94157  -1.49833  -1.32806
 Alpha  occ. eigenvalues --   -1.22987  -1.14618  -1.12060  -1.05455  -1.01266
 Alpha  occ. eigenvalues --   -0.95802  -0.91206  -0.85468  -0.80978  -0.80864
 Alpha  occ. eigenvalues --   -0.80194  -0.78492  -0.76303  -0.76153  -0.72899
 Alpha  occ. eigenvalues --   -0.69615  -0.67812  -0.64269  -0.60927  -0.58173
 Alpha  occ. eigenvalues --   -0.57231  -0.56487  -0.56182  -0.55789
 Alpha virt. eigenvalues --   -0.30123  -0.21512  -0.16552  -0.13789  -0.10627
 Alpha virt. eigenvalues --   -0.07498  -0.07087  -0.06588  -0.05058  -0.03858
 Alpha virt. eigenvalues --   -0.03393  -0.02682  -0.02441  -0.02225  -0.01680

 Mulliken charges:
               1
     1  C   -0.596626
     2  C    0.548213
     3  C   -0.725844
     4  C    0.299134
     5  C    0.033986
     6  H    0.337712
     7  H    0.367521
     8  H    0.376886
     9  H    0.355029
    10  N   -0.106457
    11  O    0.032032
    12  O    0.028384
    13  C   -0.472656
    14  H    0.437563
    15  Br   0.085122
 Sum of Mulliken charges =   1.00000

 Dipole moment (field-independent basis, Debye):
    X=             -0.5932    Y=             -0.2254    Z=              1.6577  Tot=              1.7750
 Quadrupole moment (field-independent basis, Debye-Ang):
   XX=            -70.9249   YY=            -52.4976   ZZ=            -64.5075
   XY=              1.0373   XZ=              1.8822   YZ=              0.2271

 Normal termination of Gaussian 16 at Wed May  1 15:22:48 2024.
