 Gaussian 16, Revision A.03,
 Gaussian 16:  ES64L-G16RevA.03 25-Dec-2016

 --------------------------------------------------------------------
 #p B3LYP/6-311+G** #p TD=(singlets,nstates=30)IOp(6/8=3) IOp(9/40=4)
 --------------------------------------------------------------------

 ------------------------------
 Scan Step 300, Bond Length 2.0
 ------------------------------
 Symbolic Z-matrix:
 Charge =  0 Multiplicity = 1

                         Standard orientation:
 ---------------------------------------------------------------------
 Center     Atomic      Atomic             Coordinates (Angstroms)
 Number     Number       Type             X           Y           Z
 ---------------------------------------------------------------------
      1          6           0        0.000000    0.000000   -0.926081
      2          1           0        0.000000    0.937260   -1.517431
      3          1           0       -0.000000   -0.937260   -1.517431
      4          8           0        0.000000    0.000000    1.073919
 ---------------------------------------------------------------------

 SCF Done:  E(RB3LYP) =  -114.296433113     A.U. after   13 cycles

 Excitation energies and oscillator strengths:

 Excited State   1:      Singlet-A2     0.9774 eV 1268.57 nm  f=0.0000  <S**2>=0.000
       3 -> 27         0.00052
       3 -> 38         0.00029
       3 -> 47         0.00322
       4 -> 27         0.00025
       4 -> 47        -0.00071
       5 ->  9        -0.00052
       5 -> 14         0.00100
       5 -> 18         0.00114
       5 -> 23         0.00109
       5 -> 28         0.00079
       5 -> 37         0.00050
       5 -> 44         0.00014
       5 -> 52         0.00011
       6 -> 27        -0.00049
       6 -> 38        -0.00043
       6 -> 47         0.00071
       7 -> 12        -0.00152
       7 -> 16         0.00540
       7 -> 19        -0.00506
       7 -> 22        -0.00111
       7 -> 25        -0.00037
       7 -> 30        -0.00210
       7 -> 33         0.00024
       7 -> 49         0.00012
       7 -> 53         0.00034
       8 ->  9         0.71259
       8 -> 14        -0.00426
       8 -> 18         0.01991
       8 -> 28         0.00944
       8 -> 31         0.00150
       8 -> 37         0.00044
       8 -> 46        -0.00026
       8 -> 52         0.00175
       3 <- 47         0.00324
       4 <- 27         0.00049
       4 <- 38         0.00014
       4 <- 47        -0.00052
       5 <-  9         0.00073
       5 <- 14        -0.00024
       5 <- 18        -0.00023
       5 <- 23         0.00012
       5 <- 28        -0.00019
       5 <- 31         0.00017
       5 <- 37         0.00029
       6 <- 38        -0.00031
       6 <- 47         0.00049
       7 <- 12         0.00246
       7 <- 16        -0.01031
       7 <- 19         0.00655
       7 <- 22         0.00468
       7 <- 25        -0.00062
       7 <- 30         0.00565
       7 <- 33        -0.00033
       7 <- 49        -0.00044
       7 <- 53         0.00141
       8 <-  9        -0.08988
       8 <- 14        -0.00088
       8 <- 18        -0.00812
       8 <- 23        -0.00052
       8 <- 28        -0.00281
       8 <- 31        -0.00086
       8 <- 37        -0.00012
       8 <- 46         0.00012
       8 <- 52         0.00038
 This state for optimization and/or second-order correction.
 Total Energy, E(TD-HF/TD-DFT) =  -114.260516006
 Copying the excited state density for this state as the 1-particle RhoCI density.

 Excited State   2:      Singlet-B2     2.3961 eV  517.45 nm  f=0.0009  <S**2>=0.000
       3 -> 12        -0.00091
       3 -> 16         0.00065
       3 -> 19        -0.00305
       3 -> 22         0.00113
       3 -> 25        -0.00085
       3 -> 30        -0.00196
       3 -> 33         0.00038
       3 -> 36         0.00084
       3 -> 40        -0.00095
       3 -> 42        -0.00016
       3 -> 49        -0.00412
       3 -> 51         0.00012
       3 -> 53         0.00020
       4 -> 12         0.00026
       4 -> 16        -0.00097
       4 -> 19         0.00020
       4 -> 22         0.00125
       4 -> 25         0.00031
       4 -> 30         0.00053
       4 -> 33        -0.00023
       4 -> 36         0.00036
       4 -> 40         0.00016
       4 -> 49         0.00069
       5 -> 10         0.00797
       5 -> 11         0.00069
       5 -> 13        -0.00158
       5 -> 15         0.00205
       5 -> 17        -0.00051
       5 -> 20         0.00166
       5 -> 21         0.00188
       5 -> 24         0.00113
       5 -> 29        -0.00187
       5 -> 32        -0.00039
       5 -> 39         0.00043
       5 -> 41         0.00029
       5 -> 48        -0.00021
       5 -> 50         0.00015
       5 -> 54        -0.00014
       6 -> 12         0.00230
       6 -> 16        -0.00298
       6 -> 19         0.00447
       6 -> 22        -0.00073
       6 -> 25         0.00114
       6 -> 30         0.00067
       6 -> 33        -0.00027
       6 -> 36        -0.00085
       6 -> 40         0.00049
       6 -> 42         0.00044
       6 -> 49         0.00077
       6 -> 53        -0.00042
       7 -> 27        -0.00037
       7 -> 38         0.00019
       7 -> 47         0.00236
       8 -> 10         0.70845
       8 -> 11         0.03565
       8 -> 13        -0.03318
       8 -> 15        -0.01515
       8 -> 17        -0.01647
       8 -> 20         0.00820
       8 -> 21         0.00376
       8 -> 24        -0.00429
       8 -> 26        -0.00295
       8 -> 29        -0.01386
       8 -> 32         0.00274
       8 -> 34        -0.00078
       8 -> 35         0.00203
       8 -> 41        -0.00016
       8 -> 43         0.00010
       8 -> 45        -0.00070
       8 -> 48        -0.00287
       8 -> 50         0.00086
       8 -> 54        -0.00253
       3 <- 12        -0.00031
       3 <- 16         0.00026
       3 <- 19        -0.00156
       3 <- 22         0.00081
       3 <- 25        -0.00077
       3 <- 30        -0.00081
       3 <- 33         0.00036
       3 <- 36         0.00047
       3 <- 40        -0.00082
       3 <- 49        -0.00416
       3 <- 51         0.00012
       3 <- 53         0.00058
       4 <- 12         0.00012
       4 <- 16        -0.00136
       4 <- 19         0.00019
       4 <- 22         0.00167
       4 <- 25         0.00010
       4 <- 30         0.00086
       4 <- 33        -0.00022
       4 <- 36         0.00049
       4 <- 49         0.00048
       5 <- 10        -0.00099
       5 <- 11        -0.00032
       5 <- 13        -0.00027
       5 <- 15         0.00174
       5 <- 17         0.00018
       5 <- 20         0.00072
       5 <- 21         0.00123
       5 <- 24         0.00119
       5 <- 29        -0.00042
       5 <- 32        -0.00017
       5 <- 39         0.00024
       5 <- 41         0.00030
       5 <- 45        -0.00014
       5 <- 48        -0.00024
       6 <- 12        -0.00138
       6 <- 16         0.00871
       6 <- 19        -0.00534
       6 <- 22        -0.00517
       6 <- 25         0.00145
       6 <- 30        -0.00639
       6 <- 33         0.00011
       6 <- 36        -0.00060
       6 <- 40         0.00046
       6 <- 42         0.00037
       6 <- 49         0.00134
       6 <- 53        -0.00146
       7 <- 27        -0.00039
       7 <- 38         0.00016
       7 <- 47         0.00208
       8 <- 10        -0.06999
       8 <- 11        -0.00688
       8 <- 13         0.00626
       8 <- 15         0.00231
       8 <- 17         0.00341
       8 <- 20        -0.00401
       8 <- 21        -0.00070
       8 <- 24         0.00121
       8 <- 26         0.00062
       8 <- 29         0.00353
       8 <- 32         0.00143
       8 <- 34         0.00069
       8 <- 35        -0.00101
       8 <- 39        -0.00059
       8 <- 41         0.00010
       8 <- 43         0.00020
       8 <- 45        -0.00126
       8 <- 48        -0.00245
       8 <- 50         0.00097
       8 <- 54        -0.00063

 Excited State   3:      Singlet-A1     2.5181 eV  492.37 nm  f=0.0160  <S**2>=0.000
       3 -> 10        -0.01001
       3 -> 11        -0.00154
       3 -> 13        -0.00044
       3 -> 17        -0.00270
       3 -> 20        -0.00287
       3 -> 21         0.00079
       3 -> 24        -0.00017
       3 -> 26         0.00031
       3 -> 29         0.00034
       3 -> 32         0.00235
       3 -> 34         0.00085
       3 -> 35        -0.00083
       3 -> 39        -0.00018
       3 -> 43         0.00035
       3 -> 45        -0.00146
       3 -> 48         0.00231
       3 -> 50         0.00171
       3 -> 54        -0.00016
       4 -> 10         0.00093
       4 -> 11         0.00795
       4 -> 13         0.00091
       4 -> 15        -0.00628
       4 -> 17         0.00167
       4 -> 20         0.00100
       4 -> 21         0.00012
       4 -> 24        -0.00337
       4 -> 26         0.00215
       4 -> 32        -0.00084
       4 -> 34        -0.00053
       4 -> 39        -0.00032
       4 -> 43        -0.00036
       4 -> 45         0.00070
       4 -> 48        -0.00056
       4 -> 50        -0.00018
       4 -> 54         0.00011
       5 -> 12         0.00640
       5 -> 16         0.00021
       5 -> 19         0.00078
       5 -> 22         0.00560
       5 -> 25        -0.00282
       5 -> 30         0.00027
       5 -> 33        -0.00208
       5 -> 36         0.00265
       5 -> 40        -0.00081
       5 -> 42        -0.00094
       5 -> 51        -0.00094
       6 -> 10         0.27180
       6 -> 11         0.02283
       6 -> 13        -0.02293
       6 -> 15        -0.01509
       6 -> 17        -0.01318
       6 -> 20         0.00067
       6 -> 21         0.00252
       6 -> 24        -0.00535
       6 -> 26        -0.00164
       6 -> 29        -0.00084
       6 -> 32         0.00481
       6 -> 34         0.00134
       6 -> 35         0.00094
       6 -> 39        -0.00167
       6 -> 43         0.00071
       6 -> 45        -0.00105
       6 -> 48         0.00059
       6 -> 50         0.00035
       6 -> 54        -0.00099
       7 ->  9         0.67090
       7 -> 14        -0.00875
       7 -> 18        -0.00687
       7 -> 23        -0.00333
       7 -> 28         0.00198
       7 -> 31        -0.00330
       7 -> 37         0.00135
       7 -> 44        -0.00094
       7 -> 52         0.00103
       8 -> 12        -0.00641
       8 -> 16         0.02430
       8 -> 19        -0.01506
       8 -> 22        -0.00731
       8 -> 30        -0.00608
       8 -> 33         0.00063
       8 -> 36        -0.00025
       8 -> 49        -0.00018
       8 -> 51         0.00010
       8 -> 53        -0.00045
       3 <- 10        -0.00865
       3 <- 11        -0.00164
       3 <- 13        -0.00047
       3 <- 15        -0.00049
       3 <- 17        -0.00165
       3 <- 20        -0.00272
       3 <- 21         0.00041
       3 <- 24        -0.00054
       3 <- 26        -0.00038
       3 <- 29         0.00055
       3 <- 32         0.00195
       3 <- 34         0.00044
       3 <- 35        -0.00093
       3 <- 43         0.00035
       3 <- 45        -0.00152
       3 <- 48         0.00230
       3 <- 50         0.00173
       4 <- 10         0.00181
       4 <- 11         0.00641
       4 <- 13         0.00098
       4 <- 15        -0.00469
       4 <- 17         0.00111
       4 <- 20         0.00169
       4 <- 24        -0.00274
       4 <- 26         0.00204
       4 <- 29        -0.00038
       4 <- 32        -0.00076
       4 <- 34        -0.00046
       4 <- 35         0.00012
       4 <- 39        -0.00037
       4 <- 41         0.00010
       4 <- 43        -0.00032
       4 <- 45         0.00059
       4 <- 48        -0.00033
       5 <- 12         0.00445
       5 <- 16         0.00023
       5 <- 19         0.00070
       5 <- 22         0.00436
       5 <- 25        -0.00237
       5 <- 30         0.00028
       5 <- 33        -0.00181
       5 <- 36         0.00237
       5 <- 40        -0.00076
       5 <- 42        -0.00086
       5 <- 51        -0.00089
       6 <- 10         0.09853
       6 <- 11         0.01111
       6 <- 13        -0.01268
       6 <- 15        -0.00917
       6 <- 17        -0.00891
       6 <- 20        -0.00087
       6 <- 21         0.00207
       6 <- 24        -0.00371
       6 <- 26        -0.00054
       6 <- 32         0.00444
       6 <- 34         0.00148
       6 <- 35         0.00051
       6 <- 39        -0.00150
       6 <- 43         0.00062
       6 <- 45        -0.00076
       6 <- 48         0.00032
       6 <- 50         0.00021
       6 <- 54        -0.00093
       7 <-  9        -0.12664
       7 <- 14         0.00124
       7 <- 18        -0.00956
       7 <- 23        -0.00046
       7 <- 28        -0.00076
       7 <- 31        -0.00153
       7 <- 37         0.00066
       7 <- 44        -0.00089
       7 <- 46        -0.00048
       7 <- 52         0.00097
       8 <- 12        -0.00339
       8 <- 16         0.01450
       8 <- 19        -0.01006
       8 <- 22        -0.00538
       8 <- 25         0.00011
       8 <- 30        -0.00515
       8 <- 33         0.00052
       8 <- 36        -0.00018
       8 <- 49        -0.00027
       8 <- 53        -0.00043

 Excited State   4:      Singlet-B1     2.6659 eV  465.07 nm  f=0.0003  <S**2>=0.000
       3 ->  9        -0.01439
       3 -> 14         0.00034
       3 -> 18        -0.00297
       3 -> 23         0.00093
       3 -> 28        -0.00144
       3 -> 31        -0.00112
       3 -> 37         0.00015
       3 -> 46        -0.00200
       3 -> 52         0.00035
       4 ->  9        -0.00697
       4 -> 14         0.00118
       4 -> 18         0.00024
       4 -> 23         0.00098
       4 -> 28         0.00057
       4 -> 31        -0.00059
       4 -> 46         0.00027
       5 -> 27        -0.00236
       5 -> 38        -0.00047
       5 -> 47         0.00023
       6 ->  9         0.36542
       6 -> 14        -0.01013
       6 -> 18         0.01020
       6 -> 23        -0.00636
       6 -> 28         0.00366
       6 -> 31        -0.00018
       6 -> 37         0.00017
       6 -> 44        -0.00059
       6 -> 46         0.00162
       6 -> 52         0.00013
       7 -> 10         0.61250
       7 -> 11         0.03122
       7 -> 13        -0.03046
       7 -> 15        -0.01614
       7 -> 17        -0.01339
       7 -> 20         0.00525
       7 -> 21         0.00227
       7 -> 24        -0.00618
       7 -> 26        -0.00423
       7 -> 29        -0.00917
       7 -> 32         0.00233
       7 -> 34        -0.00103
       7 -> 35         0.00090
       7 -> 41        -0.00012
       7 -> 43         0.00040
       7 -> 45        -0.00114
       7 -> 48         0.00246
       7 -> 50         0.00067
       7 -> 54        -0.00142
       8 -> 27         0.00011
       8 -> 47         0.00298
       3 <-  9        -0.00482
       3 <- 14        -0.00033
       3 <- 18        -0.00188
       3 <- 28        -0.00096
       3 <- 31        -0.00056
       3 <- 44        -0.00027
       3 <- 46        -0.00196
       3 <- 52         0.00054
       4 <-  9        -0.00362
       4 <- 14         0.00104
       4 <- 18         0.00090
       4 <- 23         0.00088
       4 <- 28         0.00121
       4 <- 31        -0.00045
       4 <- 44        -0.00037
       4 <- 46         0.00013
       5 <- 27        -0.00222
       5 <- 38        -0.00037
       5 <- 47         0.00023
       6 <-  9        -0.07160
       6 <- 14         0.00231
       6 <- 18        -0.00731
       6 <- 23         0.00107
       6 <- 28        -0.00415
       6 <- 31        -0.00285
       6 <- 37         0.00049
       6 <- 44         0.00060
       6 <- 46         0.00170
       6 <- 52        -0.00096
       7 <- 10        -0.07927
       7 <- 11        -0.00785
       7 <- 13         0.00961
       7 <- 15         0.00410
       7 <- 17         0.00405
       7 <- 20        -0.00153
       7 <- 21        -0.00232
       7 <- 24         0.00204
       7 <- 26         0.00142
       7 <- 29         0.00252
       7 <- 32        -0.00010
       7 <- 34        -0.00020
       7 <- 35        -0.00064
       7 <- 39        -0.00022
       7 <- 41         0.00022
       7 <- 43         0.00020
       7 <- 45        -0.00083
       7 <- 48         0.00226
       7 <- 50         0.00100
       8 <- 27         0.00034
       8 <- 47         0.00270

 Excited State   5:      Singlet-B1     3.3184 eV  373.63 nm  f=0.0046  <S**2>=0.000
       3 ->  9        -0.00870
       3 -> 14         0.00036
       3 -> 18        -0.00029
       3 -> 23         0.00034
       3 -> 28         0.00129
       3 -> 31         0.00056
       3 -> 44         0.00050
       3 -> 46         0.00299
       3 -> 52         0.00047
       4 ->  9         0.02718
       4 -> 14        -0.00555
       4 -> 18        -0.00044
       4 -> 23        -0.00443
       4 -> 31        -0.00096
       4 -> 37        -0.00033
       4 -> 44         0.00038
       4 -> 46        -0.00084
       4 -> 52        -0.00019
       5 -> 27         0.00513
       5 -> 38         0.00377
       6 ->  9         0.60891
       6 -> 14        -0.01199
       6 -> 18         0.00585
       6 -> 23        -0.00781
       6 -> 28        -0.00079
       6 -> 31         0.00455
       6 -> 37        -0.00291
       6 -> 44        -0.00150
       6 -> 46         0.00213
       6 -> 52         0.00107
       7 -> 10        -0.35841
       7 -> 11        -0.01282
       7 -> 13         0.01378
       7 -> 15         0.01378
       7 -> 17         0.00214
       7 -> 20         0.00251
       7 -> 21        -0.00042
       7 -> 24         0.00456
       7 -> 26         0.00188
       7 -> 29         0.00416
       7 -> 34         0.00281
       7 -> 35         0.00151
       7 -> 39        -0.00055
       7 -> 43        -0.00017
       7 -> 45         0.00025
       7 -> 48         0.00129
       7 -> 50         0.00066
       7 -> 54         0.00125
       8 -> 27        -0.00036
       8 -> 38        -0.00015
       8 -> 47         0.00149
       3 <-  9        -0.00272
       3 <- 14        -0.00100
       3 <- 18        -0.00060
       3 <- 23        -0.00062
       3 <- 28         0.00107
       3 <- 31        -0.00037
       3 <- 37         0.00035
       3 <- 44         0.00046
       3 <- 46         0.00306
       3 <- 52         0.00018
       4 <-  9         0.01550
       4 <- 14        -0.00301
       4 <- 18         0.00044
       4 <- 23        -0.00305
       4 <- 28         0.00016
       4 <- 31        -0.00076
       4 <- 37        -0.00027
       4 <- 44         0.00037
       4 <- 46        -0.00053
       4 <- 52        -0.00013
       5 <- 27         0.00380
       5 <- 38         0.00329
       6 <-  9        -0.00167
       6 <- 14         0.00208
       6 <- 18        -0.00029
       6 <- 23        -0.00011
       6 <- 28        -0.00229
       6 <- 31         0.00443
       6 <- 37        -0.00275
       6 <- 44        -0.00081
       6 <- 46         0.00138
       6 <- 52         0.00098
       7 <- 10        -0.02263
       7 <- 11        -0.00319
       7 <- 13         0.00557
       7 <- 15         0.00852
       7 <- 17         0.00155
       7 <- 20         0.00466
       7 <- 21        -0.00052
       7 <- 24         0.00428
       7 <- 26         0.00140
       7 <- 29         0.00124
       7 <- 32        -0.00122
       7 <- 34         0.00207
       7 <- 35         0.00218
       7 <- 39        -0.00032
       7 <- 43        -0.00029
       7 <- 45         0.00043
       7 <- 48         0.00133
       7 <- 50         0.00099
       7 <- 54         0.00114
       8 <- 47         0.00161

 Excited State   6:      Singlet-A2     6.6330 eV  186.92 nm  f=0.0000  <S**2>=0.000
       3 -> 27        -0.00087
       3 -> 38        -0.00022
       4 -> 27        -0.00606
       4 -> 38         0.00045
       4 -> 47        -0.00014
       5 ->  9         0.70641
       5 -> 14        -0.02544
       5 -> 18         0.00294

 The electronic state is 1-A1.
 Alpha  occ. eigenvalues --  -19.17818 -10.34468  -0.87743  -0.72289  -0.49591
 Alpha  occ. eigenvalues --   -0.37038  -0.29564  -0.28458
 Alpha virt. eigenvalues --   -0.18500  -0.11530  -0.00406   0.04017   0.06000
 Alpha virt. eigenvalues --    0.06078   0.11375   0.12709   0.18503   0.20763
 Alpha virt. eigenvalues --    0.23821   0.30382   0.38476   0.38909   0.50287

 Mulliken charges:
               1
     1  C   -0.114753
     2  H    0.195568
     3  H    0.195568
     4  O   -0.276383
 Sum of Mulliken charges =  -0.00000

 Dipole moment (field-independent basis, Debye):
    X=             -0.0000    Y=              0.0000    Z=             -4.4474  Tot=              4.4474
 Quadrupole moment (field-independent basis, Debye-Ang):
   XX=            -13.1474   YY=            -12.1413   ZZ=            -10.1427
   XY=              0.0000   XZ=              0.0000   YZ=              0.0000

 Normal termination of Gaussian 16 at Fri Sep 17 10:53:19 2021.
