 Gaussian 16, Revision C.01,
 Gaussian 16:  ES64L-G16RevC.01  3-Jul-2019

 ---------------------------------------
 #P wB97XD/6-311+G* NoSymm #P Field=Z-19
 ---------------------------------------

 -------
 TitleMe
 -------
 Symbolic Z-matrix:
 Charge =  1 Multiplicity = 1

                          Input orientation:
 ---------------------------------------------------------------------
 Center     Atomic      Atomic             Coordinates (Angstroms)
 Number     Number       Type             X           Y           Z
 ---------------------------------------------------------------------
      1          6           0        0.029500    1.339700    0.068200
      2          6           0        1.434800    1.286700    0.006400
      3          6           0        2.111800    0.051100   -0.005400
      4          6           0        1.445100   -1.137200    0.031200
      5          6           0       -0.687900    0.168200    0.110000
      6          1           0       -0.471300    2.298400    0.078100
      7          1           0        2.027300    2.196500   -0.032200
      8          1           0        1.989700   -2.076400    0.023200
      9          1           0       -1.771600    0.180400    0.158200
     10          7           0        3.586400    0.051000   -0.067500
     11          8           0        4.147100   -1.059700   -0.088100
     12          8           0        4.145000    1.163900   -0.090100
     13          6           0       -0.023600   -1.145800    0.083500
     14          1           0       -0.436700   -1.872500    0.788900
     15         35           0       -0.535900   -1.869700   -1.740800
 ---------------------------------------------------------------------

 SCF Done:  E(RwB97XD) =  -3010.53545107     A.U. after   18 cycles

 Alpha  occ. eigenvalues -- -483.31372 -62.86403 -56.66088 -56.65527 -56.65525
 Alpha  occ. eigenvalues --  -19.45740 -19.45666 -14.85243 -10.58245 -10.57402
 Alpha  occ. eigenvalues --  -10.57058 -10.56867 -10.56608 -10.52806  -9.02214
 Alpha  occ. eigenvalues --   -6.84868  -6.83032  -6.83017  -2.94779  -2.94290
 Alpha  occ. eigenvalues --   -2.94277  -2.92808  -2.92808  -1.49503  -1.32478
 Alpha  occ. eigenvalues --   -1.22523  -1.13988  -1.11627  -1.04450  -1.00899
 Alpha  occ. eigenvalues --   -0.95340  -0.90813  -0.85131  -0.80610  -0.80504
 Alpha  occ. eigenvalues --   -0.79848  -0.78149  -0.75955  -0.75774  -0.72223
 Alpha  occ. eigenvalues --   -0.69210  -0.67412  -0.63614  -0.60096  -0.57059
 Alpha  occ. eigenvalues --   -0.56535  -0.56015  -0.55490  -0.55281
 Alpha virt. eigenvalues --   -0.29535  -0.21165  -0.15619  -0.13272  -0.08551
 Alpha virt. eigenvalues --   -0.05942  -0.05604  -0.04920  -0.04340  -0.03101
 Alpha virt. eigenvalues --   -0.02508  -0.02251  -0.01573  -0.01147  -0.00042

 Mulliken charges:
               1
     1  C   -0.581018
     2  C    0.523614
     3  C   -0.718706
     4  C    0.289650
     5  C    0.010082
     6  H    0.334539
     7  H    0.366431
     8  H    0.374264
     9  H    0.351537
    10  N   -0.106759
    11  O    0.031134
    12  O    0.027887
    13  C   -0.470801
    14  H    0.410581
    15  Br   0.157565
 Sum of Mulliken charges =   1.00000

 Dipole moment (field-independent basis, Debye):
    X=             -0.7825    Y=             -0.5151    Z=              0.3088  Tot=              0.9864
 Quadrupole moment (field-independent basis, Debye-Ang):
   XX=            -71.1843   YY=            -52.0882   ZZ=            -62.9762
   XY=              1.2475   XZ=              1.2625   YZ=              1.3810

 Normal termination of Gaussian 16 at Wed May  1 15:24:43 2024.
