 Gaussian 16, Revision C.01,
 Gaussian 16:  ES64L-G16RevC.01  3-Jul-2019

 ----------------------------------------
 #P wB97XD/6-311+G* NoSymm #P Field=X-116
 ----------------------------------------

 -------
 TitleMe
 -------
 Symbolic Z-matrix:
 Charge =  1 Multiplicity = 1

                          Input orientation:
 ---------------------------------------------------------------------
 Center     Atomic      Atomic             Coordinates (Angstroms)
 Number     Number       Type             X           Y           Z
 ---------------------------------------------------------------------
      1          6           0        0.519300    1.233000   -0.031900
      2          6           0        1.944500    1.269200   -0.036700
      3          6           0        2.620400    0.092800   -0.025000
      4          6           0       -0.196000    0.030100    0.001000
      5          1           0       -0.020700    2.174200   -0.043400
      6          1           0        2.482800    2.208900   -0.036100
      7          1           0       -1.277700    0.039900    0.011700
      8          7           0        4.092100    0.095900    0.036600
      9          8           0        4.639300   -1.021700    0.144600
     10          8           0        4.664900    1.198400   -0.023300
     11          6           0        0.494300   -1.167100    0.021000
     12          1           0       -0.032500   -2.114900    0.054500
     13          6           0        1.962900   -1.216500   -0.021100
     14          1           0        2.443600   -1.963100    0.615100
     15         35           0        2.173000   -1.949100   -1.906200
 ---------------------------------------------------------------------

 SCF Done:  E(RwB97XD) =  -3010.55216278     A.U. after   24 cycles

 Alpha  occ. eigenvalues -- -483.27118 -62.82125 -56.61829 -56.61249 -56.61233
 Alpha  occ. eigenvalues --  -19.39032 -19.38967 -14.78587 -10.55054 -10.54035
 Alpha  occ. eigenvalues --  -10.53849 -10.53754 -10.50158 -10.48957  -8.97919
 Alpha  occ. eigenvalues --   -6.80625  -6.78723  -6.78674  -2.90522  -2.90027
 Alpha  occ. eigenvalues --   -2.89987  -2.88466  -2.88465  -1.42738  -1.25612
 Alpha  occ. eigenvalues --   -1.18558  -1.09134  -1.08261  -1.00678  -0.95689
 Alpha  occ. eigenvalues --   -0.91676  -0.86594  -0.80451  -0.76336  -0.75070
 Alpha  occ. eigenvalues --   -0.74538  -0.73350  -0.71632  -0.69213  -0.67996
 Alpha  occ. eigenvalues --   -0.65296  -0.63796  -0.59854  -0.55726  -0.52021
 Alpha  occ. eigenvalues --   -0.51249  -0.49906  -0.48535  -0.48297
 Alpha virt. eigenvalues --   -0.26223  -0.15426  -0.11502  -0.09671  -0.08175
 Alpha virt. eigenvalues --   -0.06353  -0.04510  -0.03085  -0.02074  -0.00798
 Alpha virt. eigenvalues --    0.00190   0.00862   0.01827   0.02803   0.04109

 Mulliken charges:
               1
     1  C   -0.099837
     2  C    0.166798
     3  C   -0.007059
     4  C   -0.321664
     5  H    0.314866
     6  H    0.364948
     7  H    0.272354
     8  N   -0.242741
     9  O    0.133324
    10  O    0.125604
    11  C   -0.262012
    12  H    0.327505
    13  C   -0.408579
    14  H    0.425776
    15  Br   0.210716
 Sum of Mulliken charges =   1.00000

 Dipole moment (field-independent basis, Debye):
    X=              6.1074    Y=             -1.0776    Z=             -0.9207  Tot=              6.2697
 Quadrupole moment (field-independent basis, Debye-Ang):
   XX=            -55.0824   YY=            -50.9577   ZZ=            -61.8357
   XY=             -3.7547   XZ=             -3.4862   YZ=              2.8623

 Normal termination of Gaussian 16 at Thu May  2 14:23:39 2024.
