 Gaussian 16, Revision C.01,
 Gaussian 16:  ES64L-G16RevC.01  3-Jul-2019

 ----------------------------------------
 #P wB97XD/6-311+G* NoSymm #P Field=Z-165
 ----------------------------------------

 -------
 TitleMe
 -------
 Symbolic Z-matrix:
 Charge =  1 Multiplicity = 1

                          Input orientation:
 ---------------------------------------------------------------------
 Center     Atomic      Atomic             Coordinates (Angstroms)
 Number     Number       Type             X           Y           Z
 ---------------------------------------------------------------------
      1          6           0        0.519300    1.233000   -0.031900
      2          6           0        1.944500    1.269200   -0.036700
      3          6           0        2.620400    0.092800   -0.025000
      4          6           0       -0.196000    0.030100    0.001000
      5          1           0       -0.020700    2.174200   -0.043400
      6          1           0        2.482800    2.208900   -0.036100
      7          1           0       -1.277700    0.039900    0.011700
      8          7           0        4.092100    0.095900    0.036600
      9          8           0        4.639300   -1.021700    0.144600
     10          8           0        4.664900    1.198400   -0.023300
     11          6           0        0.494300   -1.167100    0.021000
     12          1           0       -0.032500   -2.114900    0.054500
     13          6           0        1.962900   -1.216500   -0.021100
     14          1           0        2.443600   -1.963100    0.615100
     15         35           0        2.173000   -1.949100   -1.906200
 ---------------------------------------------------------------------

 SCF Done:  E(RwB97XD) =  -3010.53663288     A.U. after   20 cycles

 Alpha  occ. eigenvalues -- -483.33954 -62.89012 -56.68657 -56.68153 -56.68147
 Alpha  occ. eigenvalues --  -19.46674 -19.46622 -14.86114 -10.60153 -10.59604
 Alpha  occ. eigenvalues --  -10.58275 -10.58103 -10.54300 -10.53614  -9.04842
 Alpha  occ. eigenvalues --   -6.87393  -6.85720  -6.85705  -2.97327  -2.96880
 Alpha  occ. eigenvalues --   -2.96868  -2.95528  -2.95528  -1.50339  -1.33287
 Alpha  occ. eigenvalues --   -1.23557  -1.14335  -1.13427  -1.06739  -1.01365
 Alpha  occ. eigenvalues --   -0.96386  -0.91484  -0.85592  -0.81629  -0.80946
 Alpha  occ. eigenvalues --   -0.80648  -0.78754  -0.76777  -0.76468  -0.73475
 Alpha  occ. eigenvalues --   -0.69506  -0.68520  -0.64883  -0.61782  -0.59549
 Alpha  occ. eigenvalues --   -0.57890  -0.57514  -0.56401  -0.56058
 Alpha virt. eigenvalues --   -0.31448  -0.21113  -0.18179  -0.14504  -0.13897
 Alpha virt. eigenvalues --   -0.11011  -0.09665  -0.08130  -0.07013  -0.05955
 Alpha virt. eigenvalues --   -0.04866  -0.04208  -0.02506  -0.01723  -0.01438

 Mulliken charges:
               1
     1  C   -0.067149
     2  C    0.113718
     3  C   -0.095206
     4  C   -0.352315
     5  H    0.350441
     6  H    0.355511
     7  H    0.337842
     8  N   -0.208888
     9  O    0.091012
    10  O    0.073986
    11  C   -0.154272
    12  H    0.363763
    13  C   -0.292131
    14  H    0.464291
    15  Br   0.019397
 Sum of Mulliken charges =   1.00000

 Dipole moment (field-independent basis, Debye):
    X=              2.5612    Y=             -0.2602    Z=              2.2100  Tot=              3.3929
 Quadrupole moment (field-independent basis, Debye-Ang):
   XX=            -67.7942   YY=            -52.2002   ZZ=            -66.2151
   XY=             -1.6881   XZ=              3.5399   YZ=             -0.4409

 Normal termination of Gaussian 16 at Thu May  2 14:19:42 2024.
