 Gaussian 16, Revision A.03,
 Gaussian 16:  ES64L-G16RevA.03 25-Dec-2016

 --------------------------------------------------------------------
 #p B3LYP/6-311+G** #p TD=(singlets,nstates=30)IOp(6/8=3) IOp(9/40=4)
 --------------------------------------------------------------------

 -------------------------------
 Scan Step 37, Bond Length 0.685
 -------------------------------
 Symbolic Z-matrix:
 Charge =  0 Multiplicity = 1

                         Standard orientation:
 ---------------------------------------------------------------------
 Center     Atomic      Atomic             Coordinates (Angstroms)
 Number     Number       Type             X           Y           Z
 ---------------------------------------------------------------------
      1          6           0        0.000000    0.000000   -0.268581
      2          1           0        0.000000    0.937260   -0.859931
      3          1           0       -0.000000   -0.937260   -0.859931
      4          8           0        0.000000   -0.000000    0.416419
 ---------------------------------------------------------------------

 SCF Done:  E(RB3LYP) =  -112.886144022     A.U. after   10 cycles

 Excitation energies and oscillator strengths:

 Excited State   1:      Singlet-B2     4.8844 eV  253.84 nm  f=0.1220  <S**2>=0.000
       3 -> 11         0.00075
       3 -> 16         0.00060
       3 -> 19         0.00076
       3 -> 22         0.00042
       3 -> 24        -0.00100
       3 -> 29         0.00020
       3 -> 32        -0.00017
       3 -> 40        -0.00021
       3 -> 43         0.00021
       3 -> 50        -0.00011
       3 -> 53         0.00015
       4 ->  9        -0.00288
       4 -> 12         0.00314
       4 -> 13         0.00359
       4 -> 15         0.00153
       4 -> 18         0.00287
       4 -> 20         0.00202
       4 -> 21         0.00174
       4 -> 25         0.00148
       4 -> 26        -0.00077
       4 -> 30         0.00051
       4 -> 31         0.00161
       4 -> 33         0.00030
       4 -> 38        -0.00068
       4 -> 42        -0.00049
       4 -> 44        -0.00031
       4 -> 46        -0.00077
       4 -> 49         0.00017
       4 -> 51        -0.00010
       5 -> 28         0.00177
       5 -> 35         0.00078
       5 -> 45         0.00080
       6 -> 11        -0.00542
       6 -> 16         0.00340
       6 -> 19         0.00062
       6 -> 22        -0.00096
       6 -> 24        -0.00469
       6 -> 29         0.00073
       6 -> 32        -0.00078
       6 -> 37         0.00026
       6 -> 43         0.00017
       6 -> 47         0.00032
       7 -> 11         0.00784
       7 -> 16         0.00355
       7 -> 19         0.00289
       7 -> 24        -0.00065
       7 -> 29        -0.00104
       7 -> 32         0.00082
       7 -> 37        -0.00071
       7 -> 43        -0.00043
       7 -> 47         0.00041
       7 -> 50         0.00044
       7 -> 53        -0.00011
       8 ->  9         0.70537
       8 -> 12        -0.00021
       8 -> 13         0.04673
       8 -> 15        -0.00681
       8 -> 18        -0.02197
       8 -> 20         0.00551
       8 -> 21         0.01014
       8 -> 25        -0.00022
       8 -> 26        -0.00031
       8 -> 30        -0.00296
       8 -> 31        -0.00218
       8 -> 33        -0.00106
       8 -> 38        -0.00112
       8 -> 39         0.00013
       8 -> 42        -0.00074
       8 -> 44         0.00031
       8 -> 46         0.00079
       8 -> 49        -0.00028
       8 -> 51         0.00011
       3 <- 11         0.00031
       3 <- 16         0.00026
       3 <- 19         0.00050
       3 <- 22         0.00033
       3 <- 24        -0.00075
       3 <- 29         0.00017
       3 <- 32        -0.00019
       3 <- 40        -0.00021
       3 <- 43         0.00020
       3 <- 53         0.00015
       4 <-  9        -0.00132
       4 <- 12        -0.00023
       4 <- 13         0.00295
       4 <- 15         0.00181
       4 <- 18         0.00060
       4 <- 20         0.00114
       4 <- 21         0.00134
       4 <- 25         0.00124
       4 <- 26        -0.00132
       4 <- 30         0.00043
       4 <- 31         0.00067
       4 <- 33         0.00024
       4 <- 38        -0.00043
       4 <- 39         0.00016
       4 <- 42        -0.00041
       4 <- 44        -0.00025
       4 <- 46        -0.00069
       4 <- 49         0.00011
       5 <- 28         0.00147
       5 <- 35         0.00063
       5 <- 45         0.00068
       6 <- 11        -0.00088
       6 <- 16         0.00302
       6 <- 19         0.00091
       6 <- 22        -0.00021
       6 <- 24        -0.00344
       6 <- 29         0.00027
       6 <- 32        -0.00067
       6 <- 37         0.00030
       6 <- 43         0.00011
       6 <- 47         0.00029
       6 <- 50         0.00017
       7 <- 11         0.00163
       7 <- 16         0.00155
       7 <- 19         0.00024
       7 <- 29        -0.00154
       7 <- 32         0.00065
       7 <- 37        -0.00043
       7 <- 43        -0.00029
       7 <- 47         0.00044
       7 <- 50         0.00050
       8 <-  9        -0.00821
       8 <- 12        -0.00521
       8 <- 13         0.01977
       8 <- 15         0.00599
       8 <- 18         0.00143
       8 <- 20         0.00048
       8 <- 21         0.00516
       8 <- 25         0.00310
       8 <- 30        -0.00194
       8 <- 31        -0.00142
       8 <- 33        -0.00140
       8 <- 38        -0.00107
       8 <- 42        -0.00062
       8 <- 46         0.00067
       8 <- 49        -0.00020
 This state for optimization and/or second-order correction.
 Total Energy, E(TD-HF/TD-DFT) =  -112.706646321
 Copying the excited state density for this state as the 1-particle RhoCI density.

 Excited State   2:      Singlet-A2     5.1973 eV  238.56 nm  f=0.0000  <S**2>=0.000
       3 -> 28        -0.00188
       3 -> 35        -0.00119
       3 -> 45        -0.00044
       4 -> 10        -0.00096
       4 -> 14         0.00118
       4 -> 17        -0.00379
       4 -> 23         0.00175
       4 -> 27        -0.00224
       4 -> 36        -0.00156
       4 -> 41        -0.00017
       4 -> 48        -0.00013
       4 -> 52        -0.00029
       5 -> 11         0.00030
       5 -> 16        -0.00013
       5 -> 19         0.00036
       5 -> 22        -0.00095
       5 -> 24        -0.00022
       5 -> 29         0.00020
       5 -> 32        -0.00012
       5 -> 37        -0.00034
       5 -> 43        -0.00039
       5 -> 47        -0.00037
       5 -> 50         0.00019
       5 -> 53        -0.00010
       6 -> 28        -0.00333
       6 -> 35         0.00048
       7 -> 28         0.00133
       7 -> 35        -0.00030
       7 -> 45        -0.00048
       8 -> 10         0.70592
       8 -> 14        -0.03039
       8 -> 17         0.02823
       8 -> 23         0.00279
       8 -> 27         0.00173
       8 -> 34         0.00320
       8 -> 36        -0.00196
       8 -> 41         0.00023
       8 -> 48         0.00013
       8 -> 52         0.00039
       3 <- 28        -0.00154
       3 <- 35        -0.00103
       3 <- 45        -0.00042
       4 <- 10        -0.00018
       4 <- 14         0.00073
       4 <- 17        -0.00074
       4 <- 23         0.00011
       4 <- 27        -0.00035
       4 <- 34         0.00077
       4 <- 36        -0.00085
       4 <- 41        -0.00024
       5 <- 11         0.00063
       5 <- 16        -0.00059
       5 <- 19         0.00157
       5 <- 22        -0.00144
       5 <- 24        -0.00122
       5 <- 29         0.00133
       5 <- 32         0.00024
       5 <- 37        -0.00078
       5 <- 43        -0.00044
       5 <- 47        -0.00037
       5 <- 53        -0.00027
       6 <- 28        -0.00326
       6 <- 35         0.00062
       7 <- 28         0.00141
       7 <- 35        -0.00038
       7 <- 45        -0.00047
       8 <- 10         0.00112
       8 <- 14         0.00552
       8 <- 17        -0.00602
       8 <- 23         0.00019
       8 <- 27        -0.00050
       8 <- 34         0.00307
       8 <- 36        -0.00157
       8 <- 41         0.00017
       8 <- 52         0.00013

 Excited State   3:      Singlet-B2     5.8096 eV  213.41 nm  f=0.0332  <S**2>=0.000
       3 -> 11        -0.00014
       3 -> 16         0.00047
       3 -> 19        -0.00027
       3 -> 22         0.00029
       3 -> 24        -0.00035
       3 -> 29        -0.00042
       3 -> 32         0.00013
       3 -> 37        -0.00022
       3 -> 43        -0.00022
       3 -> 47         0.00015
       3 -> 50         0.00011
       3 -> 53        -0.00017
       4 ->  9         0.00194
       4 -> 12         0.00033
       4 -> 13         0.00132
       4 -> 15         0.00258
       4 -> 18        -0.00145
       4 -> 20        -0.00046
       4 -> 21         0.00125
       4 -> 25         0.00084
       4 -> 26         0.00063
       4 -> 30        -0.00216
       4 -> 31        -0.00067
       4 -> 38         0.00023
       4 -> 39        -0.00096
       4 -> 42         0.00032
       4 -> 46         0.00054
       4 -> 49        -0.00011
       5 -> 28        -0.00099
       5 -> 35        -0.00124
       5 -> 45        -0.00071
       6 -> 11        -0.00036
       6 -> 16         0.00390
       6 -> 19        -0.00157
       6 -> 24        -0.00220
       6 -> 29         0.00181
       6 -> 32         0.00041
       6 -> 37         0.00059
       6 -> 40         0.00042
       6 -> 43         0.00029
       6 -> 47        -0.00028
       6 -> 50        -0.00023
       6 -> 53         0.00013
       7 -> 11        -0.00231
       7 -> 16        -0.00404
       7 -> 19        -0.00138
       7 -> 22         0.00079
       7 -> 24         0.00303
       7 -> 29        -0.00087
       7 -> 32        -0.00044
       7 -> 37         0.00061
       7 -> 43         0.00020
       7 -> 47        -0.00058
       7 -> 50        -0.00033
       7 -> 53         0.00015
       8 ->  9        -0.00103
       8 -> 12         0.70575
       8 -> 13         0.03054
       8 -> 15         0.02704
       8 -> 18         0.00886
       8 -> 20         0.01580
       8 -> 21         0.00525
       8 -> 25        -0.00087
       8 -> 26         0.00170
       8 -> 30        -0.00251
       8 -> 31         0.00039
       8 -> 33        -0.00026
       8 -> 38        -0.00032
       8 -> 39         0.00141
       8 -> 42        -0.00087
       8 -> 46        -0.00047
       8 -> 49         0.00012
       8 -> 54        -0.00015
       3 <- 16         0.00046
       3 <- 22         0.00014
       3 <- 24        -0.00040
       3 <- 29        -0.00026
       3 <- 32         0.00013
       3 <- 37        -0.00023
       3 <- 43        -0.00020
       3 <- 47         0.00011
       3 <- 53        -0.00022
       4 <-  9        -0.00122
       4 <- 12        -0.00014
       4 <- 13         0.00132
       4 <- 15         0.00070
       4 <- 18         0.00062
       4 <- 20        -0.00043
       4 <- 21         0.00085
       4 <- 25         0.00097
       4 <- 26         0.00067
       4 <- 30        -0.00144
       4 <- 31        -0.00010
       4 <- 33        -0.00060
       4 <- 38         0.00015
       4 <- 39        -0.00072
       4 <- 42         0.00034
       4 <- 46         0.00050
       5 <- 28        -0.00058
       5 <- 35        -0.00106
       5 <- 45        -0.00063
       6 <- 11        -0.00039
       6 <- 16         0.00083
       6 <- 19         0.00041
       6 <- 22        -0.00063
       6 <- 24        -0.00171
       6 <- 29         0.00132
       6 <- 32         0.00058
       6 <- 37         0.00058
       6 <- 40         0.00037
       6 <- 43         0.00020
       6 <- 47        -0.00024
       6 <- 50        -0.00016
       7 <- 16        -0.00135
       7 <- 19        -0.00057
       7 <- 22         0.00048
       7 <- 24         0.00166
       7 <- 29        -0.00011
       7 <- 32        -0.00034
       7 <- 37         0.00024
       7 <- 43         0.00013
       7 <- 47        -0.00052
       7 <- 50        -0.00040
       8 <-  9        -0.00479
       8 <- 12         0.00114
       8 <- 13         0.01075
       8 <- 15         0.00410
       8 <- 18        -0.00118
       8 <- 20        -0.00297
       8 <- 21         0.00331
       8 <- 25         0.00065
       8 <- 26        -0.00012
       8 <- 30        -0.00218
       8 <- 31         0.00032
       8 <- 33        -0.00010
       8 <- 38        -0.00015
       8 <- 39         0.00121
       8 <- 42        -0.00076
       8 <- 46        -0.00038

 Excited State   4:      Singlet-A1     5.9738 eV  207.55 nm  f=0.0107  <S**2>=0.000
       3 ->  9         0.00125
       3 -> 12        -0.00051
       3 -> 13         0.00019
       3 -> 15        -0.00069
       3 -> 18        -0.00147
       3 -> 21         0.00074
       3 -> 25        -0.00058
       3 -> 26        -0.00028
       3 -> 30         0.00074
       3 -> 31        -0.00071
       3 -> 33         0.00038
       3 -> 38         0.00034
       3 -> 39         0.00033
       3 -> 46        -0.00012
       3 -> 51         0.00019
       3 -> 54        -0.00014
       4 -> 11        -0.00623
       4 -> 16        -0.00659
       4 -> 19        -0.00464
       4 -> 22        -0.00230
       4 -> 24         0.00329
       4 -> 29         0.00035
       4 -> 37        -0.00103
       4 -> 40        -0.00011
       4 -> 43         0.00027
       4 -> 50         0.00021
       5 -> 10        -0.00372
       5 -> 14        -0.00334
       5 -> 17        -0.00318
       5 -> 23        -0.00340
       5 -> 27        -0.00096
       5 -> 34        -0.00090
       5 -> 36        -0.00059
       5 -> 41        -0.00014
       5 -> 48         0.00024
       6 ->  9         0.01117
       6 -> 12         0.00676
       6 -> 13        -0.00442
       6 -> 15        -0.00416
       6 -> 18        -0.00684
       6 -> 20         0.00508
       6 -> 21         0.00095
       6 -> 25        -0.00591
       6 -> 26         0.00091
       6 -> 30        -0.00034
       6 -> 31         0.00141
       6 -> 33         0.00192
       6 -> 38         0.00115
       6 -> 39        -0.00117
       6 -> 42         0.00012
       6 -> 44         0.00057
       6 -> 49         0.00046
       7 ->  9         0.00744
       7 -> 12        -0.01179
       7 -> 13         0.00131
       7 -> 15         0.00454
       7 -> 18        -0.00716
       7 -> 20        -0.00346
       7 -> 21        -0.00036
       7 -> 25         0.00169
       7 -> 26        -0.00262
       7 -> 30        -0.00051
       7 -> 31        -0.00176
       7 -> 33         0.00019
       7 -> 38        -0.00054
       7 -> 39         0.00051
       7 -> 42        -0.00011
       7 -> 44        -0.00031
       7 -> 51        -0.00017
       8 -> 11         0.70480
       8 -> 16         0.05167
       8 -> 19        -0.01842
       8 -> 22        -0.00041
       8 -> 24        -0.00599
       8 -> 29        -0.00401
       8 -> 32         0.00190
       8 -> 37        -0.00319
       8 -> 40        -0.00035
       8 -> 43         0.00182
       8 -> 47        -0.00085
       8 -> 50         0.00017
       3 <-  9         0.00066
       3 <- 12        -0.00025
       3 <- 13         0.00015
       3 <- 15        -0.00042
       3 <- 18        -0.00093
       3 <- 21         0.00048
       3 <- 25        -0.00046
       3 <- 26        -0.00022
       3 <- 30         0.00055
       3 <- 31        -0.00046
       3 <- 33         0.00034
       3 <- 38         0.00025
       3 <- 39         0.00027
       3 <- 46        -0.00016
       3 <- 51         0.00016
       3 <- 54        -0.00012
       4 <- 11        -0.00249
       4 <- 16        -0.00265
       4 <- 19        -0.00263
       4 <- 22        -0.00167
       4 <- 24         0.00177
       4 <- 29         0.00016
       4 <- 32         0.00016
       4 <- 37        -0.00087
       4 <- 43         0.00024
       4 <- 50         0.00019
       5 <- 10        -0.00199
       5 <- 14        -0.00187
       5 <- 17        -0.00189
       5 <- 23        -0.00233
       5 <- 27        -0.00069
       5 <- 34        -0.00074
       5 <- 36        -0.00050
       5 <- 41        -0.00012
       5 <- 48         0.00022
       6 <-  9         0.00807
       6 <- 12         0.00333
       6 <- 13        -0.00346
       6 <- 15        -0.00342
       6 <- 18        -0.00372
       6 <- 20         0.00287
       6 <- 21         0.00146
       6 <- 25        -0.00394
       6 <- 26         0.00055
       6 <- 30         0.00013
       6 <- 31         0.00105
       6 <- 33         0.00138
       6 <- 38         0.00116
       6 <- 39        -0.00092
       6 <- 42         0.00011
       6 <- 44         0.00056
       6 <- 49         0.00038
       7 <-  9         0.00041
       7 <- 12        -0.00472
       7 <- 13         0.00164
       7 <- 15         0.00318
       7 <- 18        -0.00334
       7 <- 20        -0.00166
       7 <- 21        -0.00059
       7 <- 25         0.00117
       7 <- 26        -0.00167
       7 <- 30        -0.00057
       7 <- 31        -0.00135
       7 <- 33         0.00013
       7 <- 38        -0.00050
       7 <- 39         0.00029
       7 <- 44        -0.00032
       7 <- 46         0.00010
       7 <- 51        -0.00016
       8 <- 11        -0.00891
       8 <- 16         0.00502
       8 <- 19        -0.01514
       8 <- 22        -0.00386
       8 <- 24        -0.00207
       8 <- 29        -0.00277
       8 <- 32         0.00170
       8 <- 37        -0.00251
       8 <- 40        -0.00012
       8 <- 43         0.00146
       8 <- 47        -0.00084
       8 <- 50         0.00017

 Excited State   5:      Singlet-A2     8.0779 eV  153.49 nm  f=0.0000  <S**2>=0.000
       3 -> 28         0.00265
       3 -> 35         0.00178
       3 -> 45         0.00062
       4 -> 10         0.00091
       4 -> 14        -0.00796
       4 -> 17         0.00147
       4 -> 23        -0.00347
       4 -> 27         0.00073
       4 -> 34         0.00114
       4 -> 36         0.00276
       4 -> 52         0.00038
       5 -> 16        -0.00066
       5 -> 19        -0.00046
       5 -> 22         0.00151
       5 -> 24         0.00064
       5 -> 32         0.00011
       5 -> 37         0.00048
       5 -> 40        -0.00012
       5 -> 43         0.00063
       5 -> 47         0.00049
       5 -> 50        -0.00013
       5 -> 53         0.00015
       6 -> 28         0.00289
       6 -> 35        -0.00070
       6 -> 45         0.00014
       7 -> 28        -0.00116
       7 -> 35         0.00042
       7 -> 45         0.00060
       8 -> 10         0.03241
       8 -> 14         0.70389
       8 -> 17        -0.05496
       8 -> 23         0.02089
       8 -> 27        -0.00281
       8 -> 34        -0.00281
       8 -> 36         0.00283
       8 -> 52        -0.00044
       3 <- 28         0.00182
       3 <- 35         0.00146
       3 <- 45         0.00069
       4 <- 10         0.00033
       4 <- 14        -0.00078
       4 <- 17         0.00042
       4 <- 23        -0.00018
       4 <- 27         0.00022
       4 <- 34        -0.00065
       4 <- 36         0.00105
       4 <- 41         0.00032
       4 <- 52         0.00013
       5 <- 11         0.00033
       5 <- 16        -0.00025
       5 <- 19        -0.00065
       5 <- 22         0.00200
       5 <- 24         0.00163
       5 <- 29        -0.00043
       5 <- 32        -0.00062
       5 <- 37         0.00127
       5 <- 43         0.00077
       5 <- 47         0.00021
       5 <- 53         0.00033
       6 <- 28         0.00310
       6 <- 35        -0.00053
       6 <- 45        -0.00010
       7 <- 28        -0.00121
       7 <- 45         0.00039
       8 <- 10         0.00571
       8 <- 14        -0.00371
       8 <- 17         0.00394
       8 <- 23        -0.00077
       8 <- 27         0.00048
       8 <- 34        -0.00305
       8 <- 36         0.00169
       8 <- 41        -0.00020

 The electronic state is 1-A1.
 Alpha  occ. eigenvalues --  -19.18812 -10.30780  -1.32184  -0.77581  -0.74428
 Alpha  occ. eigenvalues --   -0.57958  -0.54654  -0.20650
 Alpha virt. eigenvalues --    0.00860   0.02801   0.04432   0.04654   0.14401
 Alpha virt. eigenvalues --    0.14417   0.17755   0.18648   0.21685   0.23560
 Alpha virt. eigenvalues --    0.26826   0.36567   0.50697   0.57261   0.57798

 Mulliken charges:
               1
     1  C    0.322015
     2  H   -0.093112
     3  H   -0.093112
     4  O   -0.135792
 Sum of Mulliken charges =   0.00000

 Dipole moment (field-independent basis, Debye):
    X=              0.0000    Y=             -0.0000    Z=              1.0517  Tot=              1.0517
 Quadrupole moment (field-independent basis, Debye-Ang):
   XX=            -10.2498   YY=            -13.5508   ZZ=            -13.6201
   XY=             -0.0000   XZ=             -0.0000   YZ=             -0.0000

 Normal termination of Gaussian 16 at Fri Sep 17 10:52:24 2021.
