 Gaussian 16, Revision C.01,
 Gaussian 16:  ES64L-G16RevC.01  3-Jul-2019

 ----------------------------------------
 #P wB97XD/6-311+G* NoSymm #P Field=Z+165
 ----------------------------------------

 -------
 TitleMe
 -------
 Symbolic Z-matrix:
 Charge =  1 Multiplicity = 1

                          Input orientation:
 ---------------------------------------------------------------------
 Center     Atomic      Atomic             Coordinates (Angstroms)
 Number     Number       Type             X           Y           Z
 ---------------------------------------------------------------------
      1          6           0        0.519300    1.233000   -0.031900
      2          6           0        1.944500    1.269200   -0.036700
      3          6           0        2.620400    0.092800   -0.025000
      4          6           0       -0.196000    0.030100    0.001000
      5          1           0       -0.020700    2.174200   -0.043400
      6          1           0        2.482800    2.208900   -0.036100
      7          1           0       -1.277700    0.039900    0.011700
      8          7           0        4.092100    0.095900    0.036600
      9          8           0        4.639300   -1.021700    0.144600
     10          8           0        4.664900    1.198400   -0.023300
     11          6           0        0.494300   -1.167100    0.021000
     12          1           0       -0.032500   -2.114900    0.054500
     13          6           0        1.962900   -1.216500   -0.021100
     14          1           0        2.443600   -1.963100    0.615100
     15         35           0        2.173000   -1.949100   -1.906200
 ---------------------------------------------------------------------

 SCF Done:  E(RwB97XD) =  -3010.54644751     A.U. after   20 cycles

 Alpha  occ. eigenvalues -- -483.28543 -62.83515 -56.63259 -56.62626 -56.62606
 Alpha  occ. eigenvalues --  -19.45825 -19.45819 -14.85202 -10.58213 -10.56494
 Alpha  occ. eigenvalues --  -10.56229 -10.55712 -10.52417 -10.51829  -8.99284
 Alpha  occ. eigenvalues --   -6.82097  -6.80033  -6.79971  -2.91968  -2.91435
 Alpha  occ. eigenvalues --   -2.91386  -2.89736  -2.89735  -1.49493  -1.32467
 Alpha  occ. eigenvalues --   -1.21279  -1.11836  -1.11036  -1.02906  -0.99011
 Alpha  occ. eigenvalues --   -0.94207  -0.89603  -0.84296  -0.80204  -0.79482
 Alpha  occ. eigenvalues --   -0.79266  -0.77012  -0.75616  -0.74587  -0.70543
 Alpha  occ. eigenvalues --   -0.67501  -0.66564  -0.61675  -0.58375  -0.56963
 Alpha  occ. eigenvalues --   -0.56193  -0.55504  -0.52977  -0.52012
 Alpha virt. eigenvalues --   -0.28728  -0.19741  -0.13983  -0.12446  -0.10885
 Alpha virt. eigenvalues --   -0.08075  -0.07787  -0.05813  -0.04218  -0.03702
 Alpha virt. eigenvalues --   -0.02177  -0.00966   0.00425   0.00876   0.01316

 Mulliken charges:
               1
     1  C   -0.153634
     2  C    0.234934
     3  C   -0.037168
     4  C   -0.335772
     5  H    0.343859
     6  H    0.348921
     7  H    0.327637
     8  N   -0.275977
     9  O    0.088452
    10  O    0.069965
    11  C   -0.242976
    12  H    0.352452
    13  C   -0.423287
    14  H    0.357919
    15  Br   0.344676
 Sum of Mulliken charges =   1.00000

 Dipole moment (field-independent basis, Debye):
    X=              3.0384    Y=             -1.5879    Z=             -3.7424  Tot=              5.0753
 Quadrupole moment (field-independent basis, Debye-Ang):
   XX=            -67.8890   YY=            -50.0965   ZZ=            -58.5873
   XY=             -4.3594   XZ=             -8.7255   YZ=              5.3685

 Normal termination of Gaussian 16 at Thu May  2 14:19:48 2024.
