 Gaussian 16, Revision A.03,
 Gaussian 16:  ES64L-G16RevA.03 25-Dec-2016

 --------------------------------------------------------------------
 #p B3LYP/6-311+G** #p TD=(singlets,nstates=30)IOp(6/8=3) IOp(9/40=4)
 --------------------------------------------------------------------

 ------------------------------
 Scan Step 50, Bond Length 0.75
 ------------------------------
 Symbolic Z-matrix:
 Charge =  0 Multiplicity = 1

                         Standard orientation:
 ---------------------------------------------------------------------
 Center     Atomic      Atomic             Coordinates (Angstroms)
 Number     Number       Type             X           Y           Z
 ---------------------------------------------------------------------
      1          6           0        0.000000    0.000000   -0.301081
      2          1           0        0.000000    0.937260   -0.892431
      3          1           0       -0.000000   -0.937260   -0.892431
      4          8           0        0.000000   -0.000000    0.448919
 ---------------------------------------------------------------------

 SCF Done:  E(RB3LYP) =  -113.509580988     A.U. after    9 cycles

 Excitation energies and oscillator strengths:

 Excited State   1:      Singlet-B2     5.2066 eV  238.13 nm  f=0.1102  <S**2>=0.000
       3 -> 11         0.00077
       3 -> 16         0.00047
       3 -> 19         0.00081
       3 -> 23         0.00026
       3 -> 24        -0.00101
       3 -> 29        -0.00022
       3 -> 32        -0.00012
       3 -> 40         0.00014
       3 -> 43         0.00019
       3 -> 50        -0.00013
       3 -> 53         0.00013
       4 ->  9        -0.00283
       4 -> 12         0.00416
       4 -> 14         0.00407
       4 -> 15         0.00161
       4 -> 18         0.00332
       4 -> 20         0.00183
       4 -> 21         0.00199
       4 -> 25         0.00151
       4 -> 26        -0.00082
       4 -> 30        -0.00084
       4 -> 31         0.00152
       4 -> 34         0.00043
       4 -> 38         0.00076
       4 -> 41        -0.00052
       4 -> 44        -0.00036
       4 -> 46        -0.00073
       4 -> 49         0.00027
       5 -> 28         0.00153
       5 -> 35         0.00063
       5 -> 45         0.00085
       6 -> 11        -0.00686
       6 -> 16         0.00224
       6 -> 19         0.00050
       6 -> 23        -0.00157
       6 -> 24        -0.00449
       6 -> 29        -0.00088
       6 -> 32        -0.00102
       6 -> 36         0.00062
       6 -> 43         0.00032
       6 -> 47         0.00015
       7 -> 11         0.00503
       7 -> 16         0.00400
       7 -> 19         0.00288
       7 -> 23        -0.00078
       7 -> 24        -0.00188
       7 -> 29         0.00061
       7 -> 32         0.00042
       7 -> 36        -0.00055
       7 -> 43        -0.00041
       7 -> 47         0.00046
       7 -> 50         0.00046
       7 -> 53        -0.00012
       8 ->  9         0.70580
       8 -> 12        -0.00049
       8 -> 14         0.03792
       8 -> 15        -0.00897
       8 -> 18        -0.02154
       8 -> 20         0.00605
       8 -> 21         0.00948
       8 -> 25        -0.00033
       8 -> 30        -0.00152
       8 -> 31        -0.00310
       8 -> 34        -0.00122
       8 -> 38         0.00109
       8 -> 39         0.00030
       8 -> 41        -0.00068
       8 -> 44         0.00020
       8 -> 46         0.00090
       8 -> 49        -0.00032
       8 -> 51         0.00011
       3 <- 11         0.00029
       3 <- 16         0.00014
       3 <- 19         0.00053
       3 <- 23         0.00017
       3 <- 24        -0.00076
       3 <- 29        -0.00019
       3 <- 32        -0.00013
       3 <- 40         0.00014
       3 <- 43         0.00018
       3 <- 53         0.00014
       4 <-  9        -0.00156
       4 <- 12        -0.00023
       4 <- 14         0.00332
       4 <- 15         0.00188
       4 <- 18         0.00078
       4 <- 20         0.00093
       4 <- 21         0.00143
       4 <- 25         0.00145
       4 <- 26        -0.00128
       4 <- 30        -0.00025
       4 <- 31         0.00058
       4 <- 34         0.00027
       4 <- 38         0.00048
       4 <- 39         0.00016
       4 <- 41        -0.00044
       4 <- 44        -0.00027
       4 <- 46        -0.00066
       4 <- 49         0.00021
       5 <- 28         0.00124
       5 <- 35         0.00050
       5 <- 45         0.00072
       6 <- 11        -0.00076
       6 <- 16         0.00227
       6 <- 19         0.00145
       6 <- 23        -0.00069
       6 <- 24        -0.00342
       6 <- 29        -0.00060
       6 <- 32        -0.00083
       6 <- 36         0.00053
       6 <- 43         0.00018
       6 <- 47         0.00012
       7 <- 11         0.00103
       7 <- 16         0.00219
       7 <- 19         0.00047
       7 <- 23        -0.00028
       7 <- 24        -0.00074
       7 <- 29         0.00120
       7 <- 32         0.00029
       7 <- 36        -0.00026
       7 <- 43        -0.00030
       7 <- 47         0.00047
       7 <- 50         0.00053
       8 <-  9        -0.00656
       8 <- 12        -0.00404
       8 <- 14         0.01725
       8 <- 15         0.00465
       8 <- 18         0.00145
       8 <- 20         0.00013
       8 <- 21         0.00482
       8 <- 25         0.00316
       8 <- 26         0.00042
       8 <- 30        -0.00108
       8 <- 31        -0.00185
       8 <- 34        -0.00147
       8 <- 38         0.00104
       8 <- 39         0.00025
       8 <- 41        -0.00053
       8 <- 46         0.00073
       8 <- 49        -0.00026
 This state for optimization and/or second-order correction.
 Total Energy, E(TD-HF/TD-DFT) =  -113.318240526
 Copying the excited state density for this state as the 1-particle RhoCI density.

 Excited State   2:      Singlet-A2     5.4217 eV  228.68 nm  f=0.0000  <S**2>=0.000
       3 -> 28        -0.00209
       3 -> 35        -0.00144
       3 -> 45        -0.00059
       4 -> 10        -0.00165
       4 -> 13        -0.00326
       4 -> 17        -0.00469
       4 -> 22         0.00249
       4 -> 27        -0.00244
       4 -> 33        -0.00040
       4 -> 37        -0.00206
       4 -> 42        -0.00026
       4 -> 48        -0.00012
       4 -> 52        -0.00039
       5 -> 11         0.00038
       5 -> 19         0.00038
       5 -> 23        -0.00119
       5 -> 24        -0.00011
       5 -> 32        -0.00015
       5 -> 36        -0.00038
       5 -> 43        -0.00042
       5 -> 47        -0.00046
       5 -> 50         0.00019
       5 -> 53        -0.00014
       6 -> 28        -0.00367
       6 -> 35         0.00055
       6 -> 45         0.00024
       7 -> 45        -0.00063
       8 -> 10         0.70425
       8 -> 13         0.05643
       8 -> 17         0.02959
       8 -> 22         0.00077
       8 -> 27         0.00276
       8 -> 33         0.00317
       8 -> 37        -0.00220
       8 -> 48         0.00011
       8 -> 52         0.00050
       3 <- 28        -0.00166
       3 <- 35        -0.00124
       3 <- 45        -0.00059
       4 <- 10        -0.00018
       4 <- 13        -0.00094
       4 <- 17        -0.00061
       4 <- 27        -0.00024
       4 <- 33         0.00086
       4 <- 37        -0.00105
       4 <- 42        -0.00032
       5 <- 11         0.00074
       5 <- 16        -0.00074
       5 <- 19         0.00203
       5 <- 23        -0.00213
       5 <- 24        -0.00151
       5 <- 29        -0.00140
       5 <- 32         0.00039
       5 <- 36        -0.00104
       5 <- 43        -0.00053
       5 <- 47        -0.00041
       5 <- 53        -0.00037
       6 <- 28        -0.00372
       6 <- 35         0.00065
       6 <- 45         0.00025
       7 <- 28         0.00011
       7 <- 45        -0.00058
       8 <- 10        -0.00086
       8 <- 13        -0.00706
       8 <- 17        -0.00524
       8 <- 22         0.00023
       8 <- 27        -0.00041
       8 <- 33         0.00302
       8 <- 37        -0.00181
       8 <- 42         0.00012
       8 <- 52         0.00016

 Excited State   3:      Singlet-B2     6.0647 eV  204.44 nm  f=0.0293  <S**2>=0.000
       3 -> 11        -0.00011
       3 -> 16         0.00052
       3 -> 19        -0.00022
       3 -> 23         0.00025
       3 -> 24        -0.00042
       3 -> 29         0.00059
       3 -> 32         0.00013
       3 -> 36        -0.00025
       3 -> 43        -0.00025
       3 -> 47         0.00017
       3 -> 50         0.00015
       3 -> 53        -0.00015
       4 ->  9         0.00281
       4 -> 12         0.00034
       4 -> 14         0.00171
       4 -> 15         0.00319
       4 -> 18        -0.00201
       4 -> 20        -0.00024
       4 -> 21         0.00138
       4 -> 25         0.00082
       4 -> 26         0.00086
       4 -> 30        -0.00157
       4 -> 31        -0.00172
       4 -> 34        -0.00017
       4 -> 38        -0.00013
       4 -> 39        -0.00094
       4 -> 41         0.00040
       4 -> 46         0.00060
       4 -> 49        -0.00021
       4 -> 51        -0.00012
       5 -> 28        -0.00097
       5 -> 35        -0.00130
       5 -> 45        -0.00081
       6 -> 11         0.00098
       6 -> 16         0.00492
       6 -> 19        -0.00052
       6 -> 23        -0.00056
       6 -> 24        -0.00337
       6 -> 29        -0.00170
       6 -> 32         0.00051
       6 -> 36         0.00032
       6 -> 40        -0.00036
       6 -> 43         0.00020
       7 -> 11        -0.00274
       7 -> 16        -0.00219
       7 -> 19        -0.00209
       7 -> 23         0.00108
       7 -> 24         0.00190
       7 -> 29         0.00015
       7 -> 32        -0.00029
       7 -> 36         0.00089
       7 -> 40        -0.00022
       7 -> 43         0.00040
       7 -> 47        -0.00065
       7 -> 50        -0.00045
       7 -> 53         0.00018
       8 -> 12         0.70591
       8 -> 14         0.02527
       8 -> 15         0.02644
       8 -> 18         0.01167
       8 -> 20         0.01580
       8 -> 21         0.00466
       8 -> 25        -0.00071
       8 -> 26         0.00135
       8 -> 30        -0.00219
       8 -> 31        -0.00045
       8 -> 34        -0.00031
       8 -> 39         0.00128
       8 -> 41        -0.00092
       8 -> 46        -0.00060
       8 -> 49         0.00025
       8 -> 54        -0.00015
       3 <- 11         0.00013
       3 <- 16         0.00053
       3 <- 24        -0.00046
       3 <- 29         0.00039
       3 <- 32         0.00014
       3 <- 36        -0.00026
       3 <- 43        -0.00022
       3 <- 47         0.00013
       3 <- 53        -0.00022
       4 <-  9        -0.00131
       4 <- 14         0.00151
       4 <- 15         0.00069
       4 <- 18         0.00064
       4 <- 20        -0.00042
       4 <- 21         0.00095
       4 <- 25         0.00095
       4 <- 26         0.00083
       4 <- 30        -0.00123
       4 <- 31        -0.00070
       4 <- 34        -0.00069
       4 <- 39        -0.00072
       4 <- 41         0.00040
       4 <- 46         0.00058
       4 <- 49        -0.00011
       4 <- 51        -0.00011
       5 <- 28        -0.00054
       5 <- 35        -0.00110
       5 <- 45        -0.00071
       6 <- 11        -0.00012
       6 <- 16         0.00114
       6 <- 19         0.00076
       6 <- 23        -0.00094
       6 <- 24        -0.00211
       6 <- 29        -0.00101
       6 <- 32         0.00062
       6 <- 36         0.00046
       6 <- 40        -0.00034
       6 <- 43         0.00011
       7 <- 11        -0.00030
       7 <- 16        -0.00087
       7 <- 19        -0.00039
       7 <- 23         0.00039
       7 <- 24         0.00081
       7 <- 29        -0.00036
       7 <- 32        -0.00013
       7 <- 36         0.00052
       7 <- 40        -0.00016
       7 <- 43         0.00028
       7 <- 47        -0.00058
       7 <- 50        -0.00048
       8 <-  9        -0.00372
       8 <- 12         0.00134
       8 <- 14         0.00939
       8 <- 15         0.00320
       8 <- 18        -0.00132
       8 <- 20        -0.00267
       8 <- 21         0.00320
       8 <- 25         0.00063
       8 <- 26        -0.00031
       8 <- 30        -0.00191
       8 <- 31        -0.00062
       8 <- 39         0.00105
       8 <- 41        -0.00080
       8 <- 46        -0.00049
       8 <- 49         0.00011

 Excited State   4:      Singlet-A1     6.2138 eV  199.53 nm  f=0.0209  <S**2>=0.000
       3 ->  9         0.00121
       3 -> 12        -0.00060
       3 -> 14         0.00012
       3 -> 15        -0.00064
       3 -> 18        -0.00139
       3 -> 21         0.00060
       3 -> 25        -0.00044
       3 -> 26        -0.00020
       3 -> 30         0.00097
       3 -> 31        -0.00024
       3 -> 34         0.00031
       3 -> 38        -0.00031
       3 -> 39         0.00031
       3 -> 46        -0.00011
       3 -> 51         0.00022
       3 -> 54        -0.00017
       4 -> 11        -0.00663
       4 -> 16        -0.00746
       4 -> 19        -0.00480
       4 -> 23        -0.00192
       4 -> 24         0.00346
       4 -> 29        -0.00064
       4 -> 32         0.00012
       4 -> 36        -0.00103
       4 -> 43         0.00028
       4 -> 50         0.00028
       5 -> 10        -0.00480
       5 -> 13         0.00279
       5 -> 17        -0.00421
       5 -> 22        -0.00343
       5 -> 27        -0.00102
       5 -> 33        -0.00093
       5 -> 37        -0.00057
       5 -> 42        -0.00026
       5 -> 48         0.00031
       6 ->  9         0.00838
       6 -> 12         0.00995
       6 -> 14        -0.00557
       6 -> 15        -0.00410
       6 -> 18        -0.00397
       6 -> 20         0.00660
       6 -> 21        -0.00023
       6 -> 25        -0.00659
       6 -> 26         0.00122
       6 -> 30        -0.00072
       6 -> 31         0.00130
       6 -> 34         0.00158
       6 -> 38        -0.00088
       6 -> 39        -0.00123
       6 -> 44         0.00047
       6 -> 46         0.00011
       6 -> 49         0.00043
       7 ->  9         0.01067
       7 -> 12        -0.00852
       7 -> 14        -0.00017
       7 -> 15         0.00220
       7 -> 18        -0.00855
       7 -> 20        -0.00086
       7 -> 21         0.00012
       7 -> 25        -0.00015
       7 -> 26        -0.00146
       7 -> 30         0.00018
       7 -> 31        -0.00128
       7 -> 34         0.00072
       7 -> 44        -0.00012
       7 -> 49         0.00015
       7 -> 51        -0.00025
       8 -> 11         0.70507
       8 -> 16         0.04814
       8 -> 19        -0.01485
       8 -> 23         0.00072
       8 -> 24        -0.00380
       8 -> 29         0.00415
       8 -> 32         0.00175
       8 -> 36        -0.00296
       8 -> 40         0.00026
       8 -> 43         0.00172
       8 -> 47        -0.00069
       3 <-  9         0.00060
       3 <- 12        -0.00028
       3 <- 15        -0.00037
       3 <- 18        -0.00085
       3 <- 21         0.00035
       3 <- 25        -0.00038
       3 <- 26        -0.00018
       3 <- 30         0.00065
       3 <- 31        -0.00011
       3 <- 34         0.00028
       3 <- 38        -0.00022
       3 <- 39         0.00027
       3 <- 46        -0.00015
       3 <- 51         0.00018
       3 <- 54        -0.00015
       4 <- 11        -0.00250
       4 <- 16        -0.00281
       4 <- 19        -0.00263
       4 <- 23        -0.00145
       4 <- 24         0.00184
       4 <- 29        -0.00030
       4 <- 32         0.00021
       4 <- 36        -0.00087
       4 <- 43         0.00025
       4 <- 50         0.00024
       5 <- 10        -0.00232
       5 <- 13         0.00141
       5 <- 17        -0.00233
       5 <- 22        -0.00225
       5 <- 27        -0.00071
       5 <- 33        -0.00074
       5 <- 37        -0.00048
       5 <- 42        -0.00022
       5 <- 48         0.00028
       6 <-  9         0.00732
       6 <- 12         0.00435
       6 <- 14        -0.00434
       6 <- 15        -0.00343
       6 <- 18        -0.00230
       6 <- 20         0.00372
       6 <- 21         0.00070
       6 <- 25        -0.00427
       6 <- 26         0.00067
       6 <- 31         0.00118
       6 <- 34         0.00115
       6 <- 38        -0.00094
       6 <- 39        -0.00097
       6 <- 44         0.00049
       6 <- 46         0.00013
       6 <- 49         0.00035
       7 <-  9         0.00301
       7 <- 12        -0.00301
       7 <- 14         0.00038
       7 <- 15         0.00141
       7 <- 18        -0.00400
       7 <- 20        -0.00026
       7 <- 26        -0.00087
       7 <- 30         0.00011
       7 <- 31        -0.00100
       7 <- 34         0.00049
       7 <- 44        -0.00013
       7 <- 46         0.00012
       7 <- 51        -0.00023
       8 <- 11        -0.00670
       8 <- 16         0.00475
       8 <- 19        -0.01390
       8 <- 23        -0.00298
       8 <- 24        -0.00018
       8 <- 29         0.00265
       8 <- 32         0.00151
       8 <- 36        -0.00228
       8 <- 43         0.00137
       8 <- 47        -0.00071

 Excited State   5:      Singlet-A2     7.8217 eV  158.51 nm  f=0.0000  <S**2>=0.000
       3 -> 28        -0.00262
       3 -> 35        -0.00190
       3 -> 45        -0.00075
       4 -> 10        -0.00289
       4 -> 13        -0.00963
       4 -> 17        -0.00072
       4 -> 22         0.00336
       4 -> 27        -0.00077
       4 -> 33        -0.00168
       4 -> 37        -0.00307
       4 -> 42        -0.00020
       4 -> 52        -0.00047
       5 -> 16         0.00117
       5 -> 19         0.00039
       5 -> 23        -0.00170
       5 -> 24        -0.00038
       5 -> 29         0.00025
       5 -> 32        -0.00012
       5 -> 36        -0.00051
       5 -> 43        -0.00061
       5 -> 47        -0.00054
       5 -> 50         0.00010
       5 -> 53        -0.00019
       6 -> 28        -0.00273
       6 -> 35         0.00084
       7 -> 35        -0.00016
       7 -> 45        -0.00080
       8 -> 10        -0.05787
       8 -> 13         0.70338
       8 -> 17         0.03632
       8 -> 22        -0.02294
       8 -> 27         0.00307
       8 -> 33         0.00257
       8 -> 37        -0.00255
       8 -> 52         0.00051
       3 <- 28        -0.00176
       3 <- 35        -0.00157
       3 <- 45        -0.00083
       4 <- 10        -0.00034
       4 <- 13        -0.00081
       4 <- 27        -0.00011
       4 <- 33         0.00062
       4 <- 37        -0.00113
       4 <- 42        -0.00036
       4 <- 52        -0.00015
       5 <- 11        -0.00029
       5 <- 16         0.00035
       5 <- 19         0.00091
       5 <- 23        -0.00259
       5 <- 24        -0.00156
       5 <- 29        -0.00040
       5 <- 32         0.00074
       5 <- 36        -0.00147
       5 <- 43        -0.00084
       5 <- 47        -0.00025
       5 <- 53        -0.00041
       6 <- 28        -0.00314
       6 <- 35         0.00042
       6 <- 45         0.00023
       7 <- 35         0.00014
       7 <- 45        -0.00048
       8 <- 10        -0.00679
       8 <- 13        -0.00422
       8 <- 17        -0.00293
       8 <- 22         0.00073
       8 <- 27        -0.00044
       8 <- 33         0.00266
       8 <- 37        -0.00172
       8 <- 42         0.00015
       8 <- 52         0.00020

 Excited State   6:      Singlet-B2     9.3198 eV  133.03 nm  f=0.1001  <S**2>=0.000
       3 -> 11         0.00037
       3 -> 16        -0.00074
       3 -> 19         0.00077
       3 -> 23        -0.00038
       3 -> 24         0.00025
       3 -> 29        -0.00065
       3 -> 32         0.00054
       3 -> 36         0.00010
       3 -> 40        -0.00039
       3 -> 43        -0.00029
       3 -> 47        -0.00021
       4 ->  9         0.00399
       4 -> 12        -0.00469
       4 -> 14        -0.00984
       4 -> 15         0.00015

 The electronic state is 1-A1.
 Alpha  occ. eigenvalues --  -19.15819 -10.26164  -1.32758  -0.71183  -0.67576
 Alpha  occ. eigenvalues --   -0.57810  -0.54786  -0.21667
 Alpha virt. eigenvalues --    0.01155   0.02757   0.04438   0.04575   0.12666
 Alpha virt. eigenvalues --    0.14431   0.17655   0.19318   0.21695   0.24523
 Alpha virt. eigenvalues --    0.25599   0.36550   0.50611   0.55670   0.56480

 Mulliken charges:
               1
     1  C    0.334637
     2  H   -0.063431
     3  H   -0.063431
     4  O   -0.207776
 Sum of Mulliken charges =   0.00000

 Dipole moment (field-independent basis, Debye):
    X=              0.0000    Y=              0.0000    Z=              0.5658  Tot=              0.5658
 Quadrupole moment (field-independent basis, Debye-Ang):
   XX=            -10.4056   YY=            -13.0984   ZZ=            -13.5125
   XY=             -0.0000   XZ=             -0.0000   YZ=              0.0000

 Normal termination of Gaussian 16 at Fri Sep 17 10:52:23 2021.
