 Gaussian 16, Revision A.03,
 Gaussian 16:  ES64L-G16RevA.03 25-Dec-2016

 --------------------------------------------------------------------
 #p B3LYP/6-311+G** #p TD=(singlets,nstates=30)IOp(6/8=3) IOp(9/40=4)
 --------------------------------------------------------------------

 -------------------------------
 Scan Step 284, Bond Length 1.92
 -------------------------------
 Symbolic Z-matrix:
 Charge =  0 Multiplicity = 1

                         Standard orientation:
 ---------------------------------------------------------------------
 Center     Atomic      Atomic             Coordinates (Angstroms)
 Number     Number       Type             X           Y           Z
 ---------------------------------------------------------------------
      1          6           0        0.000000    0.000000   -0.886081
      2          1           0        0.000000    0.937260   -1.477431
      3          1           0       -0.000000   -0.937260   -1.477431
      4          8           0        0.000000   -0.000000    1.033919
 ---------------------------------------------------------------------

 SCF Done:  E(RB3LYP) =  -114.318974523     A.U. after   13 cycles

 Excitation energies and oscillator strengths:

 Excited State   1:      Singlet-A2     1.1087 eV 1118.31 nm  f=0.0000  <S**2>=0.000
       3 -> 27         0.00060
       3 -> 38         0.00035
       3 -> 47         0.00329
       4 -> 27         0.00030
       4 -> 47        -0.00083
       5 ->  9         0.00041
       5 -> 13         0.00106
       5 -> 18         0.00139
       5 -> 23         0.00122
       5 -> 28         0.00102
       5 -> 37         0.00060
       5 -> 44         0.00017
       5 -> 52         0.00014
       6 -> 27        -0.00053
       6 -> 38        -0.00049
       6 -> 47         0.00082
       7 -> 12        -0.00141
       7 -> 16         0.00539
       7 -> 19        -0.00490
       7 -> 22        -0.00114
       7 -> 25        -0.00046
       7 -> 30        -0.00202
       7 -> 33         0.00025
       7 -> 49         0.00013
       7 -> 53         0.00036
       8 ->  9         0.71180
       8 -> 13        -0.00534
       8 -> 18         0.02039
       8 -> 23        -0.00044
       8 -> 28         0.00987
       8 -> 31         0.00159
       8 -> 37         0.00046
       8 -> 46        -0.00027
       8 -> 52         0.00180
       3 <- 27         0.00012
       3 <- 38         0.00015
       3 <- 47         0.00331
       4 <- 27         0.00059
       4 <- 38         0.00016
       4 <- 47        -0.00063
       5 <-  9         0.00056
       5 <- 13        -0.00028
       5 <- 18        -0.00030
       5 <- 23         0.00014
       5 <- 28        -0.00023
       5 <- 31         0.00019
       5 <- 37         0.00035
       6 <- 38        -0.00036
       6 <- 47         0.00058
       7 <- 12         0.00217
       7 <- 16        -0.01049
       7 <- 19         0.00613
       7 <- 22         0.00520
       7 <- 25        -0.00063
       7 <- 30         0.00566
       7 <- 33        -0.00033
       7 <- 49        -0.00047
       7 <- 53         0.00143
       8 <-  9        -0.08363
       8 <- 13        -0.00068
       8 <- 18        -0.00799
       8 <- 23        -0.00045
       8 <- 28        -0.00281
       8 <- 31        -0.00085
       8 <- 37        -0.00015
       8 <- 46         0.00013
       8 <- 52         0.00041
 This state for optimization and/or second-order correction.
 Total Energy, E(TD-HF/TD-DFT) =  -114.278231450
 Copying the excited state density for this state as the 1-particle RhoCI density.

 Excited State   2:      Singlet-A1     2.9036 eV  427.00 nm  f=0.0220  <S**2>=0.000
       3 -> 10        -0.01211
       3 -> 11        -0.00211
       3 -> 14         0.00021
       3 -> 17        -0.00287
       3 -> 20        -0.00319
       3 -> 21         0.00067
       3 -> 24         0.00012
       3 -> 26         0.00075
       3 -> 32         0.00260
       3 -> 34         0.00093
       3 -> 36        -0.00088
       3 -> 39        -0.00030
       3 -> 43         0.00045
       3 -> 45        -0.00124
       3 -> 48         0.00231
       3 -> 50         0.00165
       3 -> 54        -0.00013
       4 -> 10        -0.00015
       4 -> 11         0.00908
       4 -> 14         0.00132
       4 -> 15        -0.00697
       4 -> 17         0.00192
       4 -> 20         0.00148
       4 -> 21         0.00019
       4 -> 24        -0.00356
       4 -> 26         0.00271
       4 -> 32        -0.00103
       4 -> 34        -0.00064
       4 -> 39        -0.00028
       4 -> 43        -0.00040
       4 -> 45         0.00074
       4 -> 48        -0.00066
       4 -> 50        -0.00023
       4 -> 54         0.00013
       5 -> 12         0.00786
       5 -> 16         0.00124
       5 -> 19         0.00097
       5 -> 22         0.00621
       5 -> 25        -0.00364
       5 -> 30         0.00032
       5 -> 33        -0.00223
       5 -> 35         0.00269
       5 -> 40        -0.00087
       5 -> 42        -0.00099
       5 -> 51        -0.00090
       6 -> 10         0.26344
       6 -> 11         0.02856
       6 -> 14        -0.03076
       6 -> 15        -0.01835
       6 -> 17        -0.01436
       6 -> 20        -0.00016
       6 -> 21         0.00378
       6 -> 24        -0.00651
       6 -> 26        -0.00234
       6 -> 29        -0.00218
       6 -> 32         0.00476
       6 -> 34         0.00136
       6 -> 36         0.00074
       6 -> 39        -0.00152
       6 -> 43         0.00077
       6 -> 45        -0.00097
       6 -> 48         0.00068
       6 -> 50         0.00044
       6 -> 54        -0.00099
       7 ->  9         0.67322
       7 -> 13        -0.00803
       7 -> 18        -0.00841
       7 -> 23        -0.00305
       7 -> 28         0.00172
       7 -> 31        -0.00330
       7 -> 37         0.00136
       7 -> 44        -0.00095
       7 -> 52         0.00105
       8 -> 12        -0.00698
       8 -> 16         0.02961
       8 -> 19        -0.01665
       8 -> 22        -0.00958
       8 -> 30        -0.00692
       8 -> 33         0.00077
       8 -> 35        -0.00043
       8 -> 40         0.00013
       8 -> 42         0.00016
       8 -> 51         0.00012
       8 -> 53        -0.00047
       3 <- 10        -0.01001
       3 <- 11        -0.00207
       3 <- 14         0.00014
       3 <- 15        -0.00035
       3 <- 17        -0.00171
       3 <- 20        -0.00290
       3 <- 21         0.00025
       3 <- 24        -0.00031
       3 <- 29         0.00035
       3 <- 32         0.00220
       3 <- 34         0.00047
       3 <- 36        -0.00095
       3 <- 39        -0.00023
       3 <- 43         0.00047
       3 <- 45        -0.00134
       3 <- 48         0.00231
       3 <- 50         0.00166
       4 <- 10         0.00104
       4 <- 11         0.00701
       4 <- 14         0.00121
       4 <- 15        -0.00501
       4 <- 17         0.00122
       4 <- 20         0.00210
       4 <- 24        -0.00281
       4 <- 26         0.00248
       4 <- 29        -0.00042
       4 <- 32        -0.00099
       4 <- 34        -0.00054
       4 <- 36         0.00025
       4 <- 39        -0.00032
       4 <- 43        -0.00036
       4 <- 45         0.00065
       4 <- 48        -0.00039
       4 <- 50        -0.00010
       4 <- 54         0.00011
       5 <- 12         0.00512
       5 <- 16         0.00092
       5 <- 19         0.00083
       5 <- 22         0.00467
       5 <- 25        -0.00296
       5 <- 30         0.00033
       5 <- 33        -0.00191
       5 <- 35         0.00237
       5 <- 40        -0.00080
       5 <- 42        -0.00089
       5 <- 51        -0.00085
       6 <- 10         0.09292
       6 <- 11         0.01296
       6 <- 14        -0.01605
       6 <- 15        -0.01052
       6 <- 17        -0.00923
       6 <- 20        -0.00143
       6 <- 21         0.00285
       6 <- 24        -0.00443
       6 <- 26        -0.00103
       6 <- 29        -0.00106
       6 <- 32         0.00444
       6 <- 34         0.00151
       6 <- 36         0.00026
       6 <- 39        -0.00136
       6 <- 43         0.00065
       6 <- 45        -0.00070
       6 <- 48         0.00038
       6 <- 50         0.00031
       6 <- 54        -0.00092
       7 <-  9        -0.12968
       7 <- 13         0.00222
       7 <- 18        -0.01040
       7 <- 23         0.00010
       7 <- 28        -0.00116
       7 <- 31        -0.00157
       7 <- 37         0.00066
       7 <- 44        -0.00085
       7 <- 46        -0.00046
       7 <- 52         0.00098
       8 <- 12        -0.00331
       8 <- 16         0.01636
       8 <- 19        -0.01043
       8 <- 22        -0.00672
       8 <- 25         0.00013
       8 <- 30        -0.00572
       8 <- 33         0.00062
       8 <- 35        -0.00033
       8 <- 42         0.00012
       8 <- 49        -0.00016
       8 <- 51         0.00010
       8 <- 53        -0.00045

 Excited State   3:      Singlet-B2     2.9847 eV  415.40 nm  f=0.0015  <S**2>=0.000
       3 -> 12        -0.00107
       3 -> 16         0.00095
       3 -> 19        -0.00349
       3 -> 22         0.00112
       3 -> 25        -0.00088
       3 -> 30        -0.00227
       3 -> 33         0.00032
       3 -> 35         0.00111
       3 -> 40        -0.00110
       3 -> 42        -0.00035
       3 -> 49        -0.00403
       3 -> 51         0.00015
       3 -> 53         0.00024
       4 -> 12         0.00033
       4 -> 16        -0.00120
       4 -> 19         0.00029
       4 -> 22         0.00149
       4 -> 25         0.00046
       4 -> 30         0.00070
       4 -> 33        -0.00028
       4 -> 35         0.00039
       4 -> 40         0.00021
       4 -> 49         0.00073
       5 -> 10         0.00905
       5 -> 11         0.00091
       5 -> 14        -0.00235
       5 -> 15         0.00260
       5 -> 17        -0.00053
       5 -> 20         0.00183
       5 -> 21         0.00244
       5 -> 24         0.00127
       5 -> 26        -0.00028
       5 -> 29        -0.00207
       5 -> 32        -0.00073
       5 -> 34        -0.00013
       5 -> 39         0.00054
       5 -> 41         0.00035
       5 -> 48        -0.00030
       5 -> 50         0.00020
       5 -> 54        -0.00016
       6 -> 12         0.00237
       6 -> 16        -0.00287
       6 -> 19         0.00430
       6 -> 22        -0.00069
       6 -> 25         0.00115
       6 -> 30         0.00039
       6 -> 33        -0.00021
       6 -> 35        -0.00103
       6 -> 40         0.00063
       6 -> 42         0.00055
       6 -> 49         0.00101
       6 -> 53        -0.00045
       7 -> 27        -0.00046
       7 -> 38         0.00026
       7 -> 47         0.00271
       8 -> 10         0.70598
       8 -> 11         0.04470
       8 -> 14        -0.04257
       8 -> 15        -0.01819
       8 -> 17        -0.01645
       8 -> 20         0.00655
       8 -> 21         0.00493
       8 -> 24        -0.00511
       8 -> 26        -0.00379
       8 -> 29        -0.01357
       8 -> 32         0.00111
       8 -> 34        -0.00095
       8 -> 36         0.00176
       8 -> 39         0.00030
       8 -> 41        -0.00017
       8 -> 45        -0.00075
       8 -> 48        -0.00333
       8 -> 50         0.00115
       8 -> 54        -0.00250
       3 <- 12        -0.00037
       3 <- 16         0.00035
       3 <- 19        -0.00176
       3 <- 22         0.00088
       3 <- 25        -0.00079
       3 <- 30        -0.00093
       3 <- 33         0.00031
       3 <- 35         0.00069
       3 <- 40        -0.00095
       3 <- 42        -0.00020
       3 <- 49        -0.00408
       3 <- 51         0.00014
       3 <- 53         0.00066
       4 <- 12         0.00012
       4 <- 16        -0.00153
       4 <- 19         0.00019
       4 <- 22         0.00188
       4 <- 25         0.00022
       4 <- 30         0.00099
       4 <- 33        -0.00029
       4 <- 35         0.00056
       4 <- 49         0.00051
       5 <- 10        -0.00095
       5 <- 11        -0.00047
       5 <- 14        -0.00037
       5 <- 15         0.00211
       5 <- 17         0.00019
       5 <- 20         0.00076
       5 <- 21         0.00144
       5 <- 24         0.00140
       5 <- 29        -0.00046
       5 <- 32        -0.00022
       5 <- 39         0.00027
       5 <- 41         0.00037
       5 <- 45        -0.00018
       5 <- 48        -0.00032
       5 <- 50         0.00010
       6 <- 12        -0.00106
       6 <- 16         0.00823
       6 <- 19        -0.00472
       6 <- 22        -0.00521
       6 <- 25         0.00136
       6 <- 30        -0.00625
       6 <- 33         0.00015
       6 <- 35        -0.00082
       6 <- 40         0.00061
       6 <- 42         0.00053
       6 <- 49         0.00154
       6 <- 53        -0.00145
       7 <- 27        -0.00047
       7 <- 38         0.00021
       7 <- 47         0.00237
       8 <- 10        -0.05450
       8 <- 11        -0.00698
       8 <- 14         0.00682
       8 <- 15         0.00221
       8 <- 17         0.00262
       8 <- 20        -0.00357
       8 <- 21        -0.00102
       8 <- 24         0.00140
       8 <- 26         0.00094
       8 <- 29         0.00273
       8 <- 32         0.00218
       8 <- 34         0.00076
       8 <- 36        -0.00091
       8 <- 39        -0.00084
       8 <- 41         0.00015
       8 <- 43         0.00031
       8 <- 45        -0.00143
       8 <- 48        -0.00280
       8 <- 50         0.00108
       8 <- 54        -0.00066

 Excited State   4:      Singlet-B1     3.2553 eV  380.86 nm  f=0.0000  <S**2>=0.000
       3 ->  9        -0.01915
       3 -> 13         0.00058
       3 -> 18        -0.00350
       3 -> 23         0.00110
       3 -> 28        -0.00138
       3 -> 31        -0.00108
       3 -> 37         0.00018
       3 -> 44         0.00024
       3 -> 46        -0.00104
       3 -> 52         0.00052
       4 ->  9        -0.00220
       4 -> 13         0.00019
       4 -> 18         0.00025
       4 -> 28         0.00067
       4 -> 31        -0.00087
       4 -> 52        -0.00016
       5 -> 27        -0.00172
       5 -> 38         0.00029
       5 -> 47         0.00033
       6 ->  9         0.50959
       6 -> 13        -0.01337
       6 -> 18         0.01208
       6 -> 23        -0.00820
       6 -> 28         0.00381
       6 -> 31         0.00069
       6 -> 37        -0.00045
       6 -> 44        -0.00104
       6 -> 46         0.00246
       6 -> 52         0.00046
       7 -> 10         0.49518
       7 -> 11         0.03265
       7 -> 14        -0.03232
       7 -> 15        -0.01490
       7 -> 17        -0.01249
       7 -> 20         0.00437
       7 -> 21         0.00250
       7 -> 24        -0.00557
       7 -> 26        -0.00428
       7 -> 29        -0.00766
       7 -> 32         0.00138
       7 -> 34        -0.00056
       7 -> 36         0.00103
       7 -> 41        -0.00014
       7 -> 43         0.00047
       7 -> 45        -0.00102
       7 -> 48         0.00308
       7 -> 50         0.00100
       7 -> 54        -0.00098
       8 -> 27         0.00013
       8 -> 47         0.00375
       3 <-  9        -0.00636
       3 <- 13        -0.00055
       3 <- 18        -0.00225
       3 <- 23        -0.00022
       3 <- 28        -0.00086
       3 <- 31        -0.00070
       3 <- 46        -0.00098
       3 <- 52         0.00064
       4 <-  9        -0.00034
       4 <- 13         0.00053
       4 <- 18         0.00115
       4 <- 23         0.00030
       4 <- 28         0.00141
       4 <- 31        -0.00066
       4 <- 44        -0.00033
       5 <- 27        -0.00173
       5 <- 38         0.00031
       5 <- 47         0.00031
       6 <-  9        -0.05911
       6 <- 13         0.00233
       6 <- 18        -0.00652
       6 <- 23         0.00074
       6 <- 28        -0.00420
       6 <- 31        -0.00183
       6 <- 37        -0.00015
       6 <- 44         0.00023
       6 <- 46         0.00238
       6 <- 52        -0.00062
       7 <- 10        -0.06647
       7 <- 11        -0.00864
       7 <- 14         0.01149
       7 <- 15         0.00590
       7 <- 17         0.00373
       7 <- 20         0.00017
       7 <- 21        -0.00290
       7 <- 24         0.00297
       7 <- 26         0.00169
       7 <- 29         0.00240
       7 <- 34         0.00019
       7 <- 39        -0.00044
       7 <- 41         0.00024
       7 <- 43         0.00026
       7 <- 45        -0.00072
       7 <- 48         0.00284
       7 <- 50         0.00124
       7 <- 54         0.00035
       8 <- 27         0.00045
       8 <- 47         0.00343

 Excited State   5:      Singlet-B1     3.7864 eV  327.45 nm  f=0.0057  <S**2>=0.000
       3 ->  9         0.00480
       3 -> 13        -0.00024
       3 -> 18        -0.00045
       3 -> 28        -0.00178
       3 -> 31        -0.00092
       3 -> 44        -0.00028
       3 -> 46        -0.00325
       3 -> 52        -0.00041
       4 ->  9        -0.02896
       4 -> 13         0.00586
       4 -> 18         0.00061
       4 -> 23         0.00467
       4 -> 28         0.00045
       4 -> 31         0.00078
       4 -> 37         0.00036
       4 -> 44        -0.00038
       4 -> 46         0.00094
       4 -> 52         0.00021
       5 -> 27        -0.00565
       5 -> 38        -0.00376
       6 ->  9        -0.49302
       6 -> 13         0.00882
       6 -> 18        -0.00411
       6 -> 23         0.00581
       6 -> 28         0.00148
       6 -> 31        -0.00438
       6 -> 37         0.00280
       6 -> 44         0.00133
       6 -> 46        -0.00166
       6 -> 52        -0.00106
       7 -> 10         0.50450
       7 -> 11         0.02569
       7 -> 14        -0.02667
       7 -> 15        -0.01972
       7 -> 17        -0.00488
       7 -> 20        -0.00223
       7 -> 21         0.00158
       7 -> 24        -0.00661
       7 -> 26        -0.00343
       7 -> 29        -0.00578
       7 -> 32        -0.00018
       7 -> 34        -0.00323
       7 -> 36        -0.00146
       7 -> 39         0.00061
       7 -> 43         0.00028
       7 -> 45        -0.00057
       7 -> 48        -0.00064
       7 -> 50        -0.00034
       7 -> 54        -0.00152
       8 -> 27         0.00043
       8 -> 38         0.00017
       8 -> 47        -0.00074
       3 <-  9         0.00177
       3 <- 13         0.00093
       3 <- 18         0.00019
       3 <- 23         0.00068
       3 <- 28        -0.00135
       3 <- 31         0.00019
       3 <- 37        -0.00032
       3 <- 44        -0.00031
       3 <- 46        -0.00335
       4 <-  9        -0.01522
       4 <- 13         0.00297
       4 <- 18        -0.00027
       4 <- 23         0.00302
       4 <- 28         0.00026
       4 <- 31         0.00056
       4 <- 37         0.00033
       4 <- 44        -0.00047
       4 <- 46         0.00058
       4 <- 52         0.00015
       5 <- 27        -0.00414
       5 <- 38        -0.00321
       6 <-  9        -0.01319
       6 <- 13        -0.00122
       6 <- 18        -0.00140
       6 <- 23         0.00046
       6 <- 28         0.00132
       6 <- 31        -0.00466
       6 <- 37         0.00266
       6 <- 44         0.00093
       6 <- 46        -0.00093
       6 <- 52        -0.00119
       7 <- 10         0.00284
       7 <- 11         0.00106
       7 <- 14        -0.00302
       7 <- 15        -0.00718
       7 <- 17        -0.00053
       7 <- 20        -0.00503
       7 <- 24        -0.00363
       7 <- 26        -0.00085
       7 <- 29        -0.00072
       7 <- 32         0.00115
       7 <- 34        -0.00216
       7 <- 36        -0.00240
       7 <- 39         0.00022
       7 <- 43         0.00036
       7 <- 45        -0.00065
       7 <- 48        -0.00075
       7 <- 50        -0.00061
       7 <- 54        -0.00110
       8 <- 47        -0.00096

 Excited State   6:      Singlet-A2     6.7494 eV  183.70 nm  f=0.0000  <S**2>=0.000

 The electronic state is 1-A1.
 Alpha  occ. eigenvalues --  -19.17811 -10.34262  -0.88351  -0.71924  -0.49429
 Alpha  occ. eigenvalues --   -0.37891  -0.30062  -0.28577
 Alpha virt. eigenvalues --   -0.17934  -0.09683  -0.00256   0.04030   0.06084
 Alpha virt. eigenvalues --    0.06139   0.11540   0.12975   0.18612   0.20873
 Alpha virt. eigenvalues --    0.23889   0.30422   0.38474   0.39185   0.50446

 Mulliken charges:
               1
     1  C   -0.107993
     2  H    0.194534
     3  H    0.194534
     4  O   -0.281075
 Sum of Mulliken charges =   0.00000

 Dipole moment (field-independent basis, Debye):
    X=             -0.0000    Y=              0.0000    Z=             -4.3243  Tot=              4.3243
 Quadrupole moment (field-independent basis, Debye-Ang):
   XX=            -13.1090   YY=            -12.0956   ZZ=            -10.3731
   XY=              0.0000   XZ=              0.0000   YZ=             -0.0000

 Normal termination of Gaussian 16 at Fri Sep 17 10:53:14 2021.
