 Gaussian 16, Revision A.03,
 Gaussian 16:  ES64L-G16RevA.03 25-Dec-2016

 --------------------------------------------------------------------
 #p B3LYP/6-311+G** #p TD=(singlets,nstates=30)IOp(6/8=3) IOp(9/40=4)
 --------------------------------------------------------------------

 ------------------------------
 Scan Step 260, Bond Length 1.8
 ------------------------------
 Symbolic Z-matrix:
 Charge =  0 Multiplicity = 1

                         Standard orientation:
 ---------------------------------------------------------------------
 Center     Atomic      Atomic             Coordinates (Angstroms)
 Number     Number       Type             X           Y           Z
 ---------------------------------------------------------------------
      1          6           0        0.000000   -0.000000   -0.826081
      2          1           0        0.000000    0.937260   -1.417431
      3          1           0       -0.000000   -0.937260   -1.417431
      4          8           0        0.000000    0.000000    0.973919
 ---------------------------------------------------------------------

 SCF Done:  E(RB3LYP) =  -114.356586504     A.U. after   12 cycles

 Excitation energies and oscillator strengths:

 Excited State   1:      Singlet-A2     1.3672 eV  906.83 nm  f=0.0000  <S**2>=0.000
       3 -> 27         0.00077
       3 -> 38         0.00049
       3 -> 46         0.00335
       4 -> 27         0.00042
       4 -> 46        -0.00102
       5 ->  9         0.00232
       5 -> 13         0.00111
       5 -> 18         0.00184
       5 -> 23         0.00142
       5 -> 28         0.00145
       5 -> 37         0.00081
       5 -> 44         0.00022
       5 -> 52         0.00020
       6 -> 27        -0.00059
       6 -> 38        -0.00059
       6 -> 46         0.00100
       7 -> 12        -0.00122
       7 -> 16         0.00525
       7 -> 19        -0.00459
       7 -> 22        -0.00109
       7 -> 25        -0.00062
       7 -> 29        -0.00186
       7 -> 33         0.00029
       7 -> 49         0.00013
       7 -> 53         0.00039
       8 ->  9         0.71046
       8 -> 13        -0.00751
       8 -> 18         0.02095
       8 -> 23        -0.00123
       8 -> 28         0.01044
       8 -> 31         0.00158
       8 -> 37         0.00051
       8 -> 48        -0.00030
       8 -> 52         0.00187
       3 <- 27         0.00023
       3 <- 38         0.00026
       3 <- 46         0.00338
       4 <- 27         0.00078
       4 <- 38         0.00020
       4 <- 46        -0.00079
       5 <-  9         0.00027
       5 <- 13        -0.00036
       5 <- 18        -0.00042
       5 <- 23         0.00018
       5 <- 28        -0.00030
       5 <- 31         0.00024
       5 <- 37         0.00047
       6 <- 38        -0.00046
       6 <- 46         0.00074
       7 <- 12         0.00164
       7 <- 16        -0.01053
       7 <- 19         0.00534
       7 <- 22         0.00592
       7 <- 25        -0.00063
       7 <- 29         0.00559
       7 <- 33        -0.00036
       7 <- 35         0.00023
       7 <- 40        -0.00015
       7 <- 42        -0.00013
       7 <- 49        -0.00048
       7 <- 53         0.00146
       8 <-  9        -0.07181
       8 <- 13        -0.00032
       8 <- 18        -0.00759
       8 <- 23        -0.00027
       8 <- 28        -0.00272
       8 <- 31        -0.00079
       8 <- 37        -0.00023
       8 <- 48         0.00013
       8 <- 52         0.00045
 This state for optimization and/or second-order correction.
 Total Energy, E(TD-HF/TD-DFT) =  -114.306341670
 Copying the excited state density for this state as the 1-particle RhoCI density.

 Excited State   2:      Singlet-A1     3.5949 eV  344.89 nm  f=0.0357  <S**2>=0.000
       3 -> 10        -0.01570
       3 -> 11        -0.00381
       3 -> 14         0.00223
       3 -> 15         0.00072
       3 -> 17        -0.00315
       3 -> 20        -0.00367
       3 -> 21         0.00031
       3 -> 24         0.00075
       3 -> 26         0.00164
       3 -> 30        -0.00085
       3 -> 32         0.00277
       3 -> 34        -0.00118
       3 -> 36        -0.00105
       3 -> 39         0.00047
       3 -> 43         0.00053
       3 -> 45        -0.00087
       3 -> 47         0.00231
       3 -> 50         0.00149
       4 -> 10        -0.00243
       4 -> 11         0.01108
       4 -> 14         0.00220
       4 -> 15        -0.00813
       4 -> 17         0.00237
       4 -> 20         0.00250
       4 -> 21         0.00030
       4 -> 24        -0.00394
       4 -> 26         0.00358
       4 -> 30         0.00049
       4 -> 32        -0.00128
       4 -> 34         0.00088
       4 -> 36         0.00019
       4 -> 39         0.00016
       4 -> 43        -0.00049
       4 -> 45         0.00079
       4 -> 47        -0.00083
       4 -> 50        -0.00029
       4 -> 54         0.00015
       5 -> 12         0.01059
       5 -> 16         0.00357
       5 -> 19         0.00122
       5 -> 22         0.00705
       5 -> 25        -0.00510
       5 -> 29         0.00032
       5 -> 33        -0.00251
       5 -> 35         0.00275
       5 -> 40        -0.00107
       5 -> 42        -0.00095
       5 -> 49         0.00019
       5 -> 51        -0.00083
       6 -> 10         0.24248
       6 -> 11         0.04350
       6 -> 14        -0.04929
       6 -> 15        -0.02626
       6 -> 17        -0.01644
       6 -> 20        -0.00251
       6 -> 21         0.00644
       6 -> 24        -0.00871
       6 -> 26        -0.00365
       6 -> 30        -0.00494
       6 -> 32         0.00347
       6 -> 34        -0.00139
       6 -> 36         0.00036
       6 -> 39         0.00127
       6 -> 41        -0.00015
       6 -> 43         0.00084
       6 -> 45        -0.00085
       6 -> 47         0.00084
       6 -> 50         0.00061
       6 -> 54        -0.00094
       7 ->  9         0.67725
       7 -> 13        -0.00618
       7 -> 18        -0.01145
       7 -> 23        -0.00236
       7 -> 28         0.00094
       7 -> 31        -0.00327
       7 -> 37         0.00129
       7 -> 44        -0.00097
       7 -> 48         0.00012
       7 -> 52         0.00106
       8 -> 12        -0.00769
       8 -> 16         0.04051
       8 -> 19        -0.01939
       8 -> 22        -0.01430
       8 -> 29        -0.00855
       8 -> 33         0.00109
       8 -> 35        -0.00091
       8 -> 40         0.00037
       8 -> 42         0.00029
       8 -> 49         0.00019
       8 -> 51         0.00016
       8 -> 53        -0.00053
       3 <- 10        -0.01210
       3 <- 11        -0.00329
       3 <- 14         0.00185
       3 <- 15         0.00017
       3 <- 17        -0.00178
       3 <- 20        -0.00309
       3 <- 21        -0.00015
       3 <- 24         0.00020
       3 <- 26         0.00065
       3 <- 30        -0.00038
       3 <- 32         0.00244
       3 <- 34        -0.00063
       3 <- 36        -0.00102
       3 <- 39         0.00044
       3 <- 43         0.00059
       3 <- 45        -0.00101
       3 <- 47         0.00232
       3 <- 50         0.00149
       4 <- 10        -0.00043
       4 <- 11         0.00793
       4 <- 14         0.00159
       4 <- 15        -0.00547
       4 <- 17         0.00140
       4 <- 20         0.00285
       4 <- 21         0.00014
       4 <- 24        -0.00296
       4 <- 26         0.00311
       4 <- 30        -0.00013
       4 <- 32        -0.00140
       4 <- 34         0.00074
       4 <- 36         0.00048
       4 <- 39         0.00017
       4 <- 43        -0.00044
       4 <- 45         0.00075
       4 <- 47        -0.00051
       4 <- 50        -0.00016
       4 <- 54         0.00012
       5 <- 12         0.00614
       5 <- 16         0.00228
       5 <- 19         0.00096
       5 <- 22         0.00498
       5 <- 25        -0.00391
       5 <- 29         0.00034
       5 <- 33        -0.00207
       5 <- 35         0.00236
       5 <- 40        -0.00097
       5 <- 42        -0.00083
       5 <- 49         0.00018
       5 <- 51        -0.00078
       6 <- 10         0.08181
       6 <- 11         0.01746
       6 <- 14        -0.02321
       6 <- 15        -0.01362
       6 <- 17        -0.00966
       6 <- 20        -0.00283
       6 <- 21         0.00437
       6 <- 24        -0.00572
       6 <- 26        -0.00193
       6 <- 30        -0.00337
       6 <- 32         0.00349
       6 <- 34        -0.00157
       6 <- 36        -0.00015
       6 <- 39         0.00117
       6 <- 41        -0.00013
       6 <- 43         0.00069
       6 <- 45        -0.00064
       6 <- 47         0.00048
       6 <- 50         0.00047
       6 <- 54        -0.00085
       7 <-  9        -0.13085
       7 <- 13         0.00393
       7 <- 18        -0.01175
       7 <- 23         0.00114
       7 <- 28        -0.00199
       7 <- 31        -0.00159
       7 <- 37         0.00060
       7 <- 44        -0.00076
       7 <- 48        -0.00039
       7 <- 52         0.00097
       8 <- 12        -0.00297
       8 <- 16         0.01947
       8 <- 19        -0.01081
       8 <- 22        -0.00924
       8 <- 25         0.00012
       8 <- 29        -0.00677
       8 <- 33         0.00086
       8 <- 35        -0.00071
       8 <- 40         0.00030
       8 <- 42         0.00023
       8 <- 51         0.00013
       8 <- 53        -0.00050

 Excited State   3:      Singlet-B2     4.0280 eV  307.81 nm  f=0.0032  <S**2>=0.000
       3 -> 12        -0.00129
       3 -> 16         0.00146
       3 -> 19        -0.00414
       3 -> 22         0.00101
       3 -> 25        -0.00085
       3 -> 29        -0.00278
       3 -> 33         0.00016
       3 -> 35         0.00159
       3 -> 40        -0.00143
       3 -> 42        -0.00052
       3 -> 49        -0.00373
       3 -> 51         0.00018
       3 -> 53         0.00029
       4 -> 12         0.00042
       4 -> 16        -0.00167
       4 -> 19         0.00041
       4 -> 22         0.00197
       4 -> 25         0.00078
       4 -> 29         0.00103
       4 -> 33        -0.00036
       4 -> 35         0.00045
       4 -> 40         0.00033
       4 -> 42         0.00012
       4 -> 49         0.00071
       4 -> 51        -0.00011
       5 -> 10         0.01060
       5 -> 11         0.00169
       5 -> 14        -0.00435
       5 -> 15         0.00355
       5 -> 17        -0.00046
       5 -> 20         0.00204
       5 -> 21         0.00356
       5 -> 24         0.00152
       5 -> 26        -0.00071
       5 -> 30        -0.00205
       5 -> 32        -0.00159
       5 -> 34         0.00038
       5 -> 39        -0.00075
       5 -> 41         0.00047
       5 -> 47        -0.00048
       5 -> 50         0.00030
       5 -> 54        -0.00021
       6 -> 12         0.00256
       6 -> 16        -0.00264
       6 -> 19         0.00403
       6 -> 22        -0.00058
       6 -> 25         0.00110
       6 -> 35        -0.00141
       6 -> 40         0.00100
       6 -> 42         0.00068
       6 -> 49         0.00135
       6 -> 53        -0.00045
       7 -> 27        -0.00058
       7 -> 38         0.00041
       7 -> 46         0.00326
       8 -> 10         0.70028
       8 -> 11         0.07420
       8 -> 14        -0.06613
       8 -> 15        -0.02611
       8 -> 17        -0.01646
       8 -> 20         0.00383
       8 -> 21         0.00659
       8 -> 24        -0.00621
       8 -> 26        -0.00479
       8 -> 30        -0.01255
       8 -> 32        -0.00260
       8 -> 34         0.00138
       8 -> 36         0.00117
       8 -> 39        -0.00063
       8 -> 41        -0.00013
       8 -> 45        -0.00091
       8 -> 47        -0.00404
       8 -> 50         0.00164
       8 -> 54        -0.00237
       3 <- 12        -0.00046
       3 <- 16         0.00049
       3 <- 19        -0.00202
       3 <- 22         0.00095
       3 <- 25        -0.00076
       3 <- 29        -0.00112
       3 <- 33         0.00017
       3 <- 35         0.00110
       3 <- 40        -0.00124
       3 <- 42        -0.00039
       3 <- 49        -0.00380
       3 <- 51         0.00017
       3 <- 53         0.00078
       4 <- 16        -0.00182
       4 <- 19         0.00017
       4 <- 22         0.00223
       4 <- 25         0.00046
       4 <- 29         0.00120
       4 <- 33        -0.00039
       4 <- 35         0.00066
       4 <- 40         0.00013
       4 <- 49         0.00050
       5 <- 10        -0.00088
       5 <- 11        -0.00080
       5 <- 14        -0.00055
       5 <- 15         0.00276
       5 <- 17         0.00020
       5 <- 20         0.00077
       5 <- 21         0.00176
       5 <- 24         0.00177
       5 <- 26        -0.00018
       5 <- 30        -0.00043
       5 <- 32        -0.00032
       5 <- 39        -0.00032
       5 <- 41         0.00050
       5 <- 45        -0.00025
       5 <- 47        -0.00047
       5 <- 50         0.00016
       6 <- 12        -0.00061
       6 <- 16         0.00742
       6 <- 19        -0.00383
       6 <- 22        -0.00508
       6 <- 25         0.00111
       6 <- 29        -0.00594
       6 <- 33         0.00027
       6 <- 35        -0.00128
       6 <- 40         0.00101
       6 <- 42         0.00072
       6 <- 49         0.00179
       6 <- 53        -0.00138
       7 <- 27        -0.00058
       7 <- 38         0.00033
       7 <- 46         0.00279
       8 <- 10        -0.03788
       8 <- 11        -0.00794
       8 <- 14         0.00839
       8 <- 15         0.00235
       8 <- 17         0.00161
       8 <- 20        -0.00309
       8 <- 21        -0.00154
       8 <- 24         0.00158
       8 <- 26         0.00138
       8 <- 30         0.00096
       8 <- 32         0.00303
       8 <- 34        -0.00092
       8 <- 36        -0.00071
       8 <- 39         0.00123
       8 <- 41         0.00027
       8 <- 43         0.00047
       8 <- 45        -0.00168
       8 <- 47        -0.00329
       8 <- 50         0.00125
       8 <- 54        -0.00064

 Excited State   4:      Singlet-B1     4.0672 eV  304.84 nm  f=0.0005  <S**2>=0.000
       3 ->  9        -0.02397
       3 -> 13         0.00096
       3 -> 18        -0.00380
       3 -> 23         0.00128
       3 -> 28        -0.00087
       3 -> 31        -0.00068
       3 -> 37         0.00013
       3 -> 44         0.00032
       3 -> 48         0.00055
       3 -> 52         0.00076
       4 ->  9         0.00823
       4 -> 13        -0.00188
       4 -> 18         0.00014
       4 -> 23        -0.00169
       4 -> 28         0.00049
       4 -> 31        -0.00124
       4 -> 37        -0.00028
       4 -> 48        -0.00059
       4 -> 52        -0.00034
       5 -> 27        -0.00011
       5 -> 38         0.00164
       5 -> 46         0.00049
       6 ->  9         0.67429
       6 -> 13        -0.01706
       6 -> 18         0.01432
       6 -> 23        -0.01016
       6 -> 28         0.00360
       6 -> 31         0.00228
       6 -> 37        -0.00154
       6 -> 44        -0.00191
       6 -> 48         0.00344
       6 -> 52         0.00102
       7 -> 10         0.21556
       7 -> 11         0.02677
       7 -> 14        -0.02526
       7 -> 15        -0.00829
       7 -> 17        -0.00979
       7 -> 20         0.00371
       7 -> 21         0.00161
       7 -> 24        -0.00266
       7 -> 26        -0.00284
       7 -> 30        -0.00472
       7 -> 34        -0.00060
       7 -> 36         0.00144
       7 -> 39         0.00018
       7 -> 41        -0.00021
       7 -> 43         0.00048
       7 -> 45        -0.00055
       7 -> 47         0.00363
       7 -> 50         0.00122
       7 -> 54        -0.00012
       8 -> 27         0.00013
       8 -> 46         0.00446
       3 <-  9        -0.00805
       3 <- 13        -0.00083
       3 <- 18        -0.00254
       3 <- 23        -0.00054
       3 <- 28        -0.00049
       3 <- 31        -0.00076
       3 <- 37         0.00016
       3 <- 48         0.00065
       3 <- 52         0.00070
       4 <-  9         0.00520
       4 <- 13        -0.00033
       4 <- 18         0.00147
       4 <- 23        -0.00064
       4 <- 28         0.00143
       4 <- 31        -0.00087
       4 <- 37        -0.00017
       4 <- 44        -0.00012
       4 <- 48        -0.00053
       4 <- 52        -0.00018
       5 <- 27        -0.00055
       5 <- 38         0.00142
       5 <- 46         0.00044
       6 <-  9        -0.03855
       6 <- 13         0.00208
       6 <- 18        -0.00466
       6 <- 23         0.00012
       6 <- 28        -0.00396
       6 <- 31         0.00012
       6 <- 37        -0.00125
       6 <- 44        -0.00059
       6 <- 48         0.00310
       7 <- 10        -0.04449
       7 <- 11        -0.00935
       7 <- 14         0.01349
       7 <- 15         0.00857
       7 <- 17         0.00290
       7 <- 20         0.00302
       7 <- 21        -0.00342
       7 <- 24         0.00412
       7 <- 26         0.00177
       7 <- 30         0.00198
       7 <- 32         0.00034
       7 <- 34        -0.00097
       7 <- 36         0.00145
       7 <- 39         0.00058
       7 <- 41         0.00015
       7 <- 43         0.00027
       7 <- 45        -0.00030
       7 <- 47         0.00337
       7 <- 50         0.00132
       7 <- 54         0.00084
       8 <- 27         0.00059
       8 <- 38         0.00012
       8 <- 46         0.00417

 Excited State   5:      Singlet-B1     4.8406 eV  256.14 nm  f=0.0071  <S**2>=0.000
       3 ->  9        -0.00633
       3 -> 13         0.00026
       3 -> 18        -0.00222
       3 -> 23         0.00050
       3 -> 28        -0.00269
       3 -> 31        -0.00147
       3 -> 37         0.00011
       3 -> 44         0.00022
       3 -> 48        -0.00299
       3 -> 52        -0.00017
       4 ->  9        -0.03077
       4 -> 13         0.00603
       4 -> 18         0.00098
       4 -> 23         0.00463
       4 -> 28         0.00121
       4 -> 31         0.00025
       4 -> 37         0.00033
       4 -> 44        -0.00044
       4 -> 48         0.00082
       4 -> 52         0.00016
       5 -> 27        -0.00652
       5 -> 38        -0.00338
       5 -> 46         0.00024
       6 ->  9        -0.21556
       6 -> 13         0.00136
       6 -> 18         0.00058
       6 -> 23         0.00135
       6 -> 28         0.00293
       6 -> 31        -0.00384
       6 -> 37         0.00231
       6 -> 44         0.00068
       6 -> 48        -0.00014
       6 -> 52        -0.00077
       7 -> 10         0.66743
       7 -> 11         0.06126
       7 -> 14        -0.05766
       7 -> 15        -0.03187
       7 -> 17        -0.00916
       7 -> 20        -0.00266
       7 -> 21         0.00342
       7 -> 24        -0.00943
       7 -> 26        -0.00602
       7 -> 30        -0.00727
       7 -> 32        -0.00168
       7 -> 34         0.00373
       7 -> 36        -0.00141
       7 -> 39        -0.00063
       7 -> 43         0.00055
       7 -> 45        -0.00095
       7 -> 47         0.00101
       7 -> 50         0.00047
       7 -> 54        -0.00165
       8 -> 27         0.00068
       8 -> 38         0.00021
       8 -> 46         0.00122
       3 <-  9        -0.00129
       3 <- 13         0.00070
       3 <- 18        -0.00082
       3 <- 23         0.00061
       3 <- 28        -0.00181
       3 <- 31        -0.00019
       3 <- 37        -0.00023
       3 <- 48        -0.00312
       3 <- 52         0.00028
       4 <-  9        -0.01321
       4 <- 13         0.00276
       4 <- 18         0.00025
       4 <- 23         0.00271
       4 <- 28         0.00116
       4 <- 37         0.00037
       4 <- 44        -0.00064
       4 <- 48         0.00041
       4 <- 52         0.00013
       5 <- 27        -0.00465
       5 <- 38        -0.00274
       5 <- 46         0.00025
       6 <-  9        -0.02797
       6 <- 13        -0.00014
       6 <- 18        -0.00354
       6 <- 23         0.00059

 The electronic state is 1-A1.
 Alpha  occ. eigenvalues --  -19.17695 -10.33814  -0.89577  -0.71240  -0.49179
 Alpha  occ. eigenvalues --   -0.39241  -0.30971  -0.28744
 Alpha virt. eigenvalues --   -0.16886  -0.06438   0.00033   0.04050   0.06095
 Alpha virt. eigenvalues --    0.06576   0.11859   0.13447   0.18764   0.21059
 Alpha virt. eigenvalues --    0.23963   0.30388   0.38557   0.39742   0.50677

 Mulliken charges:
               1
     1  C   -0.093622
     2  H    0.191216
     3  H    0.191216
     4  O   -0.288811
 Sum of Mulliken charges =  -0.00000

 Dipole moment (field-independent basis, Debye):
    X=             -0.0000    Y=              0.0000    Z=             -4.1303  Tot=              4.1303
 Quadrupole moment (field-independent basis, Debye-Ang):
   XX=            -13.0104   YY=            -12.0217   ZZ=            -10.7232
   XY=              0.0000   XZ=              0.0000   YZ=              0.0000

 Normal termination of Gaussian 16 at Fri Sep 17 10:53:07 2021.
