 Gaussian 16, Revision C.01,
 Gaussian 16:  ES64L-G16RevC.01  3-Jul-2019

 ----------------------------------------
 #P wB97XD/6-311+G* NoSymm #P Field=Y-291
 ----------------------------------------

 -------
 TitleMe
 -------
 Symbolic Z-matrix:
 Charge =  1 Multiplicity = 1

                          Input orientation:
 ---------------------------------------------------------------------
 Center     Atomic      Atomic             Coordinates (Angstroms)
 Number     Number       Type             X           Y           Z
 ---------------------------------------------------------------------
      1          6           0        0.519300    1.233000   -0.031900
      2          6           0        1.944500    1.269200   -0.036700
      3          6           0        2.620400    0.092800   -0.025000
      4          6           0       -0.196000    0.030100    0.001000
      5          1           0       -0.020700    2.174200   -0.043400
      6          1           0        2.482800    2.208900   -0.036100
      7          1           0       -1.277700    0.039900    0.011700
      8          7           0        4.092100    0.095900    0.036600
      9          8           0        4.639300   -1.021700    0.144600
     10          8           0        4.664900    1.198400   -0.023300
     11          6           0        0.494300   -1.167100    0.021000
     12          1           0       -0.032500   -2.114900    0.054500
     13          6           0        1.962900   -1.216500   -0.021100
     14          1           0        2.443600   -1.963100    0.615100
     15         35           0        2.173000   -1.949100   -1.906200
 ---------------------------------------------------------------------

 SCF Done:  E(RwB97XD) =  -3010.57065099     A.U. after   23 cycles

 Alpha  occ. eigenvalues -- -483.36168 -62.91231 -56.70857 -56.70386 -56.70372
 Alpha  occ. eigenvalues --  -19.47131 -19.46563 -14.86074 -10.62426 -10.60057
 Alpha  occ. eigenvalues --  -10.59613 -10.57661 -10.54577 -10.53155  -9.07067
 Alpha  occ. eigenvalues --   -6.89557  -6.87994  -6.87946  -2.99505  -2.99095
 Alpha  occ. eigenvalues --   -2.99057  -2.97805  -2.97804  -1.50415  -1.33375
 Alpha  occ. eigenvalues --   -1.24626  -1.15386  -1.13943  -1.08045  -1.01991
 Alpha  occ. eigenvalues --   -0.97158  -0.91982  -0.86578  -0.82073  -0.81808
 Alpha  occ. eigenvalues --   -0.80882  -0.79662  -0.77302  -0.76484  -0.74369
 Alpha  occ. eigenvalues --   -0.69705  -0.67913  -0.65265  -0.63396  -0.61935
 Alpha  occ. eigenvalues --   -0.58788  -0.58074  -0.56479  -0.55956
 Alpha virt. eigenvalues --   -0.32293  -0.23918  -0.21647  -0.20129  -0.18707
 Alpha virt. eigenvalues --   -0.17061  -0.13936  -0.12576  -0.12101  -0.10284
 Alpha virt. eigenvalues --   -0.08122  -0.07308  -0.06016  -0.05072  -0.03525

 Mulliken charges:
               1
     1  C   -0.123856
     2  C    0.260731
     3  C   -0.016607
     4  C   -0.274648
     5  H    0.455675
     6  H    0.450018
     7  H    0.341418
     8  N   -0.234033
     9  O   -0.063553
    10  O    0.237736
    11  C   -0.170221
    12  H    0.243483
    13  C   -0.413254
    14  H    0.338985
    15  Br  -0.031874
 Sum of Mulliken charges =   1.00000

 Dipole moment (field-independent basis, Debye):
    X=              2.3369    Y=              7.7281    Z=              0.3807  Tot=              8.0827
 Quadrupole moment (field-independent basis, Debye-Ang):
   XX=            -68.3353   YY=            -57.0748   ZZ=            -65.5036
   XY=             14.9691   XZ=             -0.1122   YZ=             -2.1725

 Normal termination of Gaussian 16 at Thu May  2 14:22:30 2024.
