 Gaussian 16, Revision C.01,
 Gaussian 16:  ES64L-G16RevC.01  3-Jul-2019

 ---------------------------------------
 #P wB97XD/6-311+G* NoSymm #P Field=Z+38
 ---------------------------------------

 -------
 TitleMe
 -------
 Symbolic Z-matrix:
 Charge =  1 Multiplicity = 1

                          Input orientation:
 ---------------------------------------------------------------------
 Center     Atomic      Atomic             Coordinates (Angstroms)
 Number     Number       Type             X           Y           Z
 ---------------------------------------------------------------------
      1          6           0        0.519300    1.233000   -0.031900
      2          6           0        1.944500    1.269200   -0.036700
      3          6           0        2.620400    0.092800   -0.025000
      4          6           0       -0.196000    0.030100    0.001000
      5          1           0       -0.020700    2.174200   -0.043400
      6          1           0        2.482800    2.208900   -0.036100
      7          1           0       -1.277700    0.039900    0.011700
      8          7           0        4.092100    0.095900    0.036600
      9          8           0        4.639300   -1.021700    0.144600
     10          8           0        4.664900    1.198400   -0.023300
     11          6           0        0.494300   -1.167100    0.021000
     12          1           0       -0.032500   -2.114900    0.054500
     13          6           0        1.962900   -1.216500   -0.021100
     14          1           0        2.443600   -1.963100    0.615100
     15         35           0        2.173000   -1.949100   -1.906200
 ---------------------------------------------------------------------

 SCF Done:  E(RwB97XD) =  -3010.53353780     A.U. after   20 cycles

 Alpha  occ. eigenvalues -- -483.30414 -62.85424 -56.65131 -56.64544 -56.64532
 Alpha  occ. eigenvalues --  -19.46079 -19.46070 -14.85494 -10.58901 -10.57561
 Alpha  occ. eigenvalues --  -10.56962 -10.56584 -10.53068 -10.52443  -9.01221
 Alpha  occ. eigenvalues --   -6.83937  -6.82015  -6.81977  -2.93832  -2.93329
 Alpha  occ. eigenvalues --   -2.93298  -2.91760  -2.91760  -1.49763  -1.32726
 Alpha  occ. eigenvalues --   -1.22067  -1.12503  -1.12037  -1.04218  -0.99934
 Alpha  occ. eigenvalues --   -0.94995  -0.90264  -0.84724  -0.80665  -0.79891
 Alpha  occ. eigenvalues --   -0.79830  -0.77619  -0.76002  -0.75268  -0.71539
 Alpha  occ. eigenvalues --   -0.68202  -0.67248  -0.62864  -0.59348  -0.57243
 Alpha  occ. eigenvalues --   -0.56513  -0.55782  -0.55332  -0.53928
 Alpha virt. eigenvalues --   -0.29668  -0.20152  -0.15063  -0.12784  -0.08619
 Alpha virt. eigenvalues --   -0.06149  -0.05639  -0.04718  -0.03211  -0.03049
 Alpha virt. eigenvalues --   -0.02389  -0.01445  -0.00459   0.00202   0.01001

 Mulliken charges:
               1
     1  C   -0.119525
     2  C    0.196855
     3  C   -0.067672
     4  C   -0.331872
     5  H    0.344711
     6  H    0.349585
     7  H    0.329545
     8  N   -0.247973
     9  O    0.088149
    10  O    0.069460
    11  C   -0.212821
    12  H    0.355420
    13  C   -0.373318
    14  H    0.398959
    15  Br   0.220497
 Sum of Mulliken charges =   1.00000

 Dipole moment (field-independent basis, Debye):
    X=              2.8375    Y=             -1.0586    Z=             -1.4338  Tot=              3.3508
 Quadrupole moment (field-independent basis, Debye-Ang):
   XX=            -67.8630   YY=            -50.8997   ZZ=            -61.3021
   XY=             -3.2788   XZ=             -3.9697   YZ=              3.1250

 Normal termination of Gaussian 16 at Thu May  2 14:19:46 2024.
