 Gaussian 16, Revision C.01,
 Gaussian 16:  ES64L-G16RevC.01  3-Jul-2019

 ----------------------------------------
 #P wB97XD/6-311+G* NoSymm #P Field=X+126
 ----------------------------------------

 -------
 TitleMe
 -------
 Symbolic Z-matrix:
 Charge =  1 Multiplicity = 1

                          Input orientation:
 ---------------------------------------------------------------------
 Center     Atomic      Atomic             Coordinates (Angstroms)
 Number     Number       Type             X           Y           Z
 ---------------------------------------------------------------------
      1          6           0        0.519300    1.233000   -0.031900
      2          6           0        1.944500    1.269200   -0.036700
      3          6           0        2.620400    0.092800   -0.025000
      4          6           0       -0.196000    0.030100    0.001000
      5          1           0       -0.020700    2.174200   -0.043400
      6          1           0        2.482800    2.208900   -0.036100
      7          1           0       -1.277700    0.039900    0.011700
      8          7           0        4.092100    0.095900    0.036600
      9          8           0        4.639300   -1.021700    0.144600
     10          8           0        4.664900    1.198400   -0.023300
     11          6           0        0.494300   -1.167100    0.021000
     12          1           0       -0.032500   -2.114900    0.054500
     13          6           0        1.962900   -1.216500   -0.021100
     14          1           0        2.443600   -1.963100    0.615100
     15         35           0        2.173000   -1.949100   -1.906200
 ---------------------------------------------------------------------

 SCF Done:  E(RwB97XD) =  -3010.52699117     A.U. after   18 cycles

 Alpha  occ. eigenvalues -- -483.35454 -62.90484 -56.70170 -56.69611 -56.69602
 Alpha  occ. eigenvalues --  -19.54103 -19.54023 -14.93295 -10.63699 -10.62459
 Alpha  occ. eigenvalues --  -10.60738 -10.60175 -10.58279 -10.55502  -9.06297
 Alpha  occ. eigenvalues --   -6.88956  -6.87117  -6.87092  -2.98864  -2.98379
 Alpha  occ. eigenvalues --   -2.98358  -2.96887  -2.96886  -1.57703  -1.40745
 Alpha  occ. eigenvalues --   -1.26722  -1.17211  -1.16710  -1.09162  -1.05186
 Alpha  occ. eigenvalues --   -0.99246  -0.95057  -0.91181  -0.87830  -0.86237
 Alpha  occ. eigenvalues --   -0.84991  -0.82462  -0.81367  -0.79854  -0.75993
 Alpha  occ. eigenvalues --   -0.71599  -0.71267  -0.67212  -0.65436  -0.64802
 Alpha  occ. eigenvalues --   -0.63946  -0.63749  -0.60715  -0.59109
 Alpha virt. eigenvalues --   -0.34328  -0.26533  -0.20059  -0.17622  -0.13391
 Alpha virt. eigenvalues --   -0.10597  -0.10100  -0.09499  -0.08188  -0.06733
 Alpha virt. eigenvalues --   -0.06260  -0.05612  -0.05442  -0.04722  -0.03988

 Mulliken charges:
               1
     1  C   -0.126029
     2  C    0.182730
     3  C   -0.139484
     4  C   -0.320975
     5  H    0.376954
     6  H    0.335018
     7  H    0.388005
     8  N   -0.236711
     9  O    0.039225
    10  O    0.008993
    11  C   -0.161246
    12  H    0.387584
    13  C   -0.288577
    14  H    0.395863
    15  Br   0.158650
 Sum of Mulliken charges =   1.00000

 Dipole moment (field-independent basis, Debye):
    X=             -0.8051    Y=             -0.7239    Z=             -0.5775  Tot=              1.2271
 Quadrupole moment (field-independent basis, Debye-Ang):
   XX=            -82.1492   YY=            -51.4030   ZZ=            -62.5705
   XY=             -2.0604   XZ=             -1.5712   YZ=              2.0454

 Normal termination of Gaussian 16 at Thu May  2 14:16:52 2024.
