 Gaussian 16, Revision C.01,
 Gaussian 16:  ES64L-G16RevC.01  3-Jul-2019

 ---------------------------------------
 #P wB97XD/6-311+G* NoSymm #P Field=X-58
 ---------------------------------------

 -------
 TitleMe
 -------
 Symbolic Z-matrix:
 Charge =  1 Multiplicity = 1

                          Input orientation:
 ---------------------------------------------------------------------
 Center     Atomic      Atomic             Coordinates (Angstroms)
 Number     Number       Type             X           Y           Z
 ---------------------------------------------------------------------
      1          6           0        0.029500    1.339700    0.068200
      2          6           0        1.434800    1.286700    0.006400
      3          6           0        2.111800    0.051100   -0.005400
      4          6           0        1.445100   -1.137200    0.031200
      5          6           0       -0.687900    0.168200    0.110000
      6          1           0       -0.471300    2.298400    0.078100
      7          1           0        2.027300    2.196500   -0.032200
      8          1           0        1.989700   -2.076400    0.023200
      9          1           0       -1.771600    0.180400    0.158200
     10          7           0        3.586400    0.051000   -0.067500
     11          8           0        4.147100   -1.059700   -0.088100
     12          8           0        4.145000    1.163900   -0.090100
     13          6           0       -0.023600   -1.145800    0.083500
     14          1           0       -0.436700   -1.872500    0.788900
     15         35           0       -0.535900   -1.869700   -1.740800
 ---------------------------------------------------------------------

 SCF Done:  E(RwB97XD) =  -3010.53542562     A.U. after   21 cycles

 Alpha  occ. eigenvalues -- -483.30733 -62.85768 -56.65448 -56.64893 -56.64891
 Alpha  occ. eigenvalues --  -19.42701 -19.42630 -14.82272 -10.57648 -10.56308
 Alpha  occ. eigenvalues --  -10.55936 -10.55634 -10.55529 -10.52212  -9.01581
 Alpha  occ. eigenvalues --   -6.84223  -6.82405  -6.82392  -2.94137  -2.93652
 Alpha  occ. eigenvalues --   -2.93641  -2.92186  -2.92186  -1.46473  -1.29412
 Alpha  occ. eigenvalues --   -1.21508  -1.12867  -1.10647  -1.03644  -0.99237
 Alpha  occ. eigenvalues --   -0.94398  -0.89610  -0.83633  -0.79333  -0.78456
 Alpha  occ. eigenvalues --   -0.77636  -0.76711  -0.74890  -0.73017  -0.71218
 Alpha  occ. eigenvalues --   -0.68414  -0.66466  -0.62591  -0.59231  -0.56101
 Alpha  occ. eigenvalues --   -0.54647  -0.53748  -0.52712  -0.52321
 Alpha virt. eigenvalues --   -0.28682  -0.19092  -0.14905  -0.11723  -0.09283
 Alpha virt. eigenvalues --   -0.06511  -0.05480  -0.04937  -0.03731  -0.02284
 Alpha virt. eigenvalues --   -0.01888  -0.01305  -0.01217  -0.00611   0.00360

 Mulliken charges:
               1
     1  C   -0.561022
     2  C    0.492377
     3  C   -0.695990
     4  C    0.308823
     5  C   -0.011786
     6  H    0.321771
     7  H    0.376552
     8  H    0.382229
     9  H    0.324212
    10  N   -0.109962
    11  O    0.057353
    12  O    0.054384
    13  C   -0.477613
    14  H    0.394479
    15  Br   0.144194
 Sum of Mulliken charges =   1.00000

 Dipole moment (field-independent basis, Debye):
    X=              0.9018    Y=             -0.3931    Z=              0.1198  Tot=              0.9910
 Quadrupole moment (field-independent basis, Debye-Ang):
   XX=            -67.2514   YY=            -52.1824   ZZ=            -63.0504
   XY=              1.0132   XZ=              0.6659   YZ=              1.2650

 Normal termination of Gaussian 16 at Wed May  1 14:48:41 2024.
