 Gaussian 16, Revision C.01,
 Gaussian 16:  ES64L-G16RevC.01  3-Jul-2019

 ----------------------------------------
 #P wB97XD/6-311+G* NoSymm #P Field=Z-184
 ----------------------------------------

 -------
 TitleMe
 -------
 Symbolic Z-matrix:
 Charge =  1 Multiplicity = 1

                          Input orientation:
 ---------------------------------------------------------------------
 Center     Atomic      Atomic             Coordinates (Angstroms)
 Number     Number       Type             X           Y           Z
 ---------------------------------------------------------------------
      1          6           0        0.029500    1.339700    0.068200
      2          6           0        1.434800    1.286700    0.006400
      3          6           0        2.111800    0.051100   -0.005400
      4          6           0        1.445100   -1.137200    0.031200
      5          6           0       -0.687900    0.168200    0.110000
      6          1           0       -0.471300    2.298400    0.078100
      7          1           0        2.027300    2.196500   -0.032200
      8          1           0        1.989700   -2.076400    0.023200
      9          1           0       -1.771600    0.180400    0.158200
     10          7           0        3.586400    0.051000   -0.067500
     11          8           0        4.147100   -1.059700   -0.088100
     12          8           0        4.145000    1.163900   -0.090100
     13          6           0       -0.023600   -1.145800    0.083500
     14          1           0       -0.436700   -1.872500    0.788900
     15         35           0       -0.535900   -1.869700   -1.740800
 ---------------------------------------------------------------------

 SCF Done:  E(RwB97XD) =  -3010.54672504     A.U. after   18 cycles

 Alpha  occ. eigenvalues -- -483.34149 -62.89214 -56.68850 -56.68357 -56.68356
 Alpha  occ. eigenvalues --  -19.46495 -19.46404 -14.85986 -10.59692 -10.58412
 Alpha  occ. eigenvalues --  -10.57946 -10.57767 -10.57457 -10.53596  -9.05048
 Alpha  occ. eigenvalues --   -6.87571  -6.85939  -6.85929  -2.97512  -2.97075
 Alpha  occ. eigenvalues --   -2.97065  -2.95758  -2.95758  -1.50233  -1.33204
 Alpha  occ. eigenvalues --   -1.23556  -1.15419  -1.12575  -1.06607  -1.01711
 Alpha  occ. eigenvalues --   -0.96351  -0.91683  -0.85877  -0.81457  -0.81274
 Alpha  occ. eigenvalues --   -0.80610  -0.78919  -0.76732  -0.76616  -0.73741
 Alpha  occ. eigenvalues --   -0.70102  -0.68305  -0.65012  -0.62090  -0.59844
 Alpha  occ. eigenvalues --   -0.57713  -0.57360  -0.56657  -0.56184
 Alpha virt. eigenvalues --   -0.30848  -0.21957  -0.18113  -0.15320  -0.14381
 Alpha virt. eigenvalues --   -0.11384  -0.10192  -0.08307  -0.06860  -0.06369
 Alpha virt. eigenvalues --   -0.04690  -0.03987  -0.03205  -0.02303  -0.01876

 Mulliken charges:
               1
     1  C   -0.615140
     2  C    0.572933
     3  C   -0.731323
     4  C    0.306425
     5  C    0.058672
     6  H    0.342303
     7  H    0.369677
     8  H    0.380605
     9  H    0.359745
    10  N   -0.107717
    11  O    0.034257
    12  O    0.030050
    13  C   -0.471010
    14  H    0.467241
    15  Br   0.003283
 Sum of Mulliken charges =   1.00000

 Dipole moment (field-independent basis, Debye):
    X=             -0.3818    Y=              0.0919    Z=              3.1690  Tot=              3.1932
 Quadrupole moment (field-independent basis, Debye-Ang):
   XX=            -70.6460   YY=            -52.9669   ZZ=            -66.3571
   XY=              0.8105   XZ=              2.5724   YZ=             -1.0675

 Normal termination of Gaussian 16 at Wed May  1 15:17:31 2024.
