 Gaussian 16, Revision C.01,
 Gaussian 16:  ES64L-G16RevC.01  3-Jul-2019

 ----------------------------------------
 #P wB97XD/6-311+G* NoSymm #P Field=Y-223
 ----------------------------------------

 -------
 TitleMe
 -------
 Symbolic Z-matrix:
 Charge =  1 Multiplicity = 1

                          Input orientation:
 ---------------------------------------------------------------------
 Center     Atomic      Atomic             Coordinates (Angstroms)
 Number     Number       Type             X           Y           Z
 ---------------------------------------------------------------------
      1          6           0        0.029500    1.339700    0.068200
      2          6           0        1.434800    1.286700    0.006400
      3          6           0        2.111800    0.051100   -0.005400
      4          6           0        1.445100   -1.137200    0.031200
      5          6           0       -0.687900    0.168200    0.110000
      6          1           0       -0.471300    2.298400    0.078100
      7          1           0        2.027300    2.196500   -0.032200
      8          1           0        1.989700   -2.076400    0.023200
      9          1           0       -1.771600    0.180400    0.158200
     10          7           0        3.586400    0.051000   -0.067500
     11          8           0        4.147100   -1.059700   -0.088100
     12          8           0        4.145000    1.163900   -0.090100
     13          6           0       -0.023600   -1.145800    0.083500
     14          1           0       -0.436700   -1.872500    0.788900
     15         35           0       -0.535900   -1.869700   -1.740800
 ---------------------------------------------------------------------

 SCF Done:  E(RwB97XD) =  -3010.55833829     A.U. after   21 cycles

 Alpha  occ. eigenvalues -- -483.34969 -62.90029 -56.69667 -56.69173 -56.69169
 Alpha  occ. eigenvalues --  -19.46794 -19.46288 -14.85908 -10.61376 -10.58411
 Alpha  occ. eigenvalues --  -10.58328 -10.57267 -10.56764 -10.51991  -9.05861
 Alpha  occ. eigenvalues --   -6.88385  -6.86753  -6.86738  -2.98326  -2.97889
 Alpha  occ. eigenvalues --   -2.97877  -2.96570  -2.96570  -1.50239  -1.33206
 Alpha  occ. eigenvalues --   -1.23856  -1.15881  -1.12079  -1.07190  -1.01615
 Alpha  occ. eigenvalues --   -0.96536  -0.91663  -0.85957  -0.81631  -0.81206
 Alpha  occ. eigenvalues --   -0.80663  -0.79675  -0.76614  -0.76134  -0.74007
 Alpha  occ. eigenvalues --   -0.69506  -0.67331  -0.64562  -0.62533  -0.60794
 Alpha  occ. eigenvalues --   -0.57847  -0.57436  -0.56687  -0.55981
 Alpha virt. eigenvalues --   -0.30962  -0.22002  -0.19300  -0.18390  -0.14640
 Alpha virt. eigenvalues --   -0.13822  -0.13292  -0.09661  -0.08470  -0.08147
 Alpha virt. eigenvalues --   -0.06503  -0.05316  -0.04138  -0.03282  -0.01991

 Mulliken charges:
               1
     1  C   -0.524525
     2  C    0.423727
     3  C   -0.619511
     4  C    0.276764
     5  C    0.056379
     6  H    0.419762
     7  H    0.441795
     8  H    0.294777
     9  H    0.358055
    10  N   -0.109943
    11  O   -0.079202
    12  O    0.157908
    13  C   -0.470836
    14  H    0.346225
    15  Br   0.028625
 Sum of Mulliken charges =   1.00000

 Dipole moment (field-independent basis, Debye):
    X=             -0.0104    Y=              5.8448    Z=              0.7926  Tot=              5.8983
 Quadrupole moment (field-independent basis, Debye-Ang):
   XX=            -69.8899   YY=            -55.6096   ZZ=            -64.5937
   XY=              8.4773   XZ=              0.4015   YZ=             -1.3006

 Normal termination of Gaussian 16 at Wed May  1 14:49:30 2024.
