 Gaussian 16, Revision A.03,
 Gaussian 16:  ES64L-G16RevA.03 25-Dec-2016

 --------------------------------------------------------------------
 #p B3LYP/6-311+G** #p TD=(singlets,nstates=30)IOp(6/8=3) IOp(9/40=4)
 --------------------------------------------------------------------

 --------------------------------
 Scan Step 191, Bond Length 1.455
 --------------------------------
 Symbolic Z-matrix:
 Charge =  0 Multiplicity = 1

                         Standard orientation:
 ---------------------------------------------------------------------
 Center     Atomic      Atomic             Coordinates (Angstroms)
 Number     Number       Type             X           Y           Z
 ---------------------------------------------------------------------
      1          6           0        0.000000   -0.000000   -0.653581
      2          1           0        0.000000    0.937260   -1.244931
      3          1           0       -0.000000   -0.937260   -1.244931
      4          8           0        0.000000    0.000000    0.801419
 ---------------------------------------------------------------------

 SCF Done:  E(RB3LYP) =  -114.481791981     A.U. after    9 cycles

 Excitation energies and oscillator strengths:

 Excited State   1:      Singlet-A2     2.5939 eV  477.98 nm  f=0.0000  <S**2>=0.000
       3 -> 27         0.00161
       3 -> 38         0.00128
       3 -> 46         0.00310
       4 -> 27         0.00103
       4 -> 38        -0.00025
       4 -> 46        -0.00140
       5 ->  9         0.01282
       5 -> 13         0.00027
       5 -> 18         0.00389
       5 -> 23         0.00143
       5 -> 28         0.00347
       5 -> 31        -0.00056
       5 -> 37         0.00203
       5 -> 44         0.00043
       5 -> 52         0.00049
       6 -> 27        -0.00056
       6 -> 38        -0.00086
       6 -> 46         0.00158
       7 -> 12        -0.00073
       7 -> 15         0.00418
       7 -> 19        -0.00363
       7 -> 22        -0.00036
       7 -> 25         0.00119
       7 -> 30        -0.00129
       7 -> 33         0.00042
       7 -> 42        -0.00011
       7 -> 49         0.00015
       7 -> 50         0.00023
       7 -> 53         0.00047
       8 ->  9         0.70745
       8 -> 13        -0.02007
       8 -> 18         0.02204
       8 -> 23        -0.00575
       8 -> 28         0.01095
       8 -> 31         0.00011
       8 -> 37         0.00062
       8 -> 48        -0.00030
       8 -> 52         0.00191
       3 <- 27         0.00088
       3 <- 38         0.00098
       3 <- 46         0.00317
       4 <- 27         0.00168
       4 <- 38         0.00021
       4 <- 46        -0.00115
       5 <-  9        -0.00051
       5 <- 13        -0.00065
       5 <- 18        -0.00088
       5 <- 23         0.00037
       5 <- 28        -0.00062
       5 <- 31         0.00049
       5 <- 37         0.00108
       5 <- 44         0.00015
       5 <- 52         0.00013
       6 <- 38        -0.00073
       6 <- 46         0.00123
       7 <- 15        -0.00929
       7 <- 19         0.00248
       7 <- 22         0.00735
       7 <- 25         0.00038
       7 <- 30         0.00479
       7 <- 33        -0.00081
       7 <- 35         0.00144
       7 <- 40         0.00071
       7 <- 49        -0.00024
       7 <- 50         0.00015
       7 <- 53         0.00143
       8 <-  9        -0.03942
       8 <- 13         0.00121
       8 <- 18        -0.00575
       8 <- 23         0.00049
       8 <- 28        -0.00194
       8 <- 31        -0.00054
       8 <- 37        -0.00073
       8 <- 52         0.00053
 This state for optimization and/or second-order correction.
 Total Energy, E(TD-HF/TD-DFT) =  -114.386467142
 Copying the excited state density for this state as the 1-particle RhoCI density.

 Excited State   2:      Singlet-A1     6.4870 eV  191.13 nm  f=0.1158  <S**2>=0.000
       3 -> 10         0.00786
       3 -> 11        -0.01631
       3 -> 14         0.01036
       3 -> 16         0.02056
       3 -> 17        -0.00511
       3 -> 20        -0.00215
       3 -> 21        -0.00369
       3 -> 24         0.00468
       3 -> 26         0.00664
       3 -> 32         0.00287
       3 -> 34         0.00371
       3 -> 36         0.00079
       3 -> 39         0.00118
       3 -> 41         0.00012
       3 -> 43         0.00049
       3 -> 45         0.00146
       3 -> 47         0.00153
       3 -> 51         0.00053
       3 -> 54         0.00029
       4 -> 10         0.02163
       4 -> 11         0.01036
       4 -> 14         0.01317
       4 -> 16        -0.00653
       4 -> 17         0.00358
       4 -> 20         0.00833
       4 -> 21         0.00023
       4 -> 24        -0.00661
       4 -> 26         0.00597
       4 -> 29         0.00112
       4 -> 32        -0.00121
       4 -> 34        -0.00268
       4 -> 36        -0.00036
       4 -> 39        -0.00020
       4 -> 41         0.00013
       4 -> 43        -0.00022
       4 -> 45        -0.00019
       4 -> 47        -0.00168
       4 -> 51        -0.00021
       5 -> 12         0.02543
       5 -> 15         0.02228
       5 -> 19         0.00180
       5 -> 22         0.00511
       5 -> 25         0.01149
       5 -> 30        -0.00174
       5 -> 33        -0.00336
       5 -> 35         0.00230
       5 -> 40         0.00163
       5 -> 42         0.00065
       5 -> 49         0.00061
       5 -> 50        -0.00053
       5 -> 53        -0.00025
       6 -> 10        -0.05442
       6 -> 11         0.08576
       6 -> 14        -0.04858
       6 -> 16        -0.12133
       6 -> 17        -0.01384
       6 -> 20        -0.02545
       6 -> 21         0.02330
       6 -> 24        -0.02088
       6 -> 26        -0.01072
       6 -> 29        -0.01004
       6 -> 34         0.00239
       6 -> 36        -0.00169
       6 -> 39         0.00039
       6 -> 41        -0.00075
       6 -> 43         0.00058
       6 -> 45         0.00016
       6 -> 47         0.00177
       6 -> 51         0.00081
       6 -> 54        -0.00039
       7 ->  9         0.68600
       7 -> 13         0.01313
       7 -> 18        -0.02476
       7 -> 23         0.00393
       7 -> 28        -0.00388
       7 -> 31        -0.00230
       7 -> 37         0.00037
       7 -> 44        -0.00100
       7 -> 48         0.00059
       7 -> 52         0.00102
       8 -> 12        -0.00141
       8 -> 15         0.10756
       8 -> 19        -0.02687
       8 -> 22        -0.04012
       8 -> 25         0.00213
       8 -> 30        -0.01458
       8 -> 33         0.00424
       8 -> 35        -0.00534
       8 -> 40        -0.00229
       8 -> 42        -0.00035
       8 -> 49         0.00070
       8 -> 50         0.00032
       8 -> 53        -0.00091
       3 <- 10         0.00453
       3 <- 11        -0.01018
       3 <- 14         0.00726
       3 <- 16         0.01366
       3 <- 17        -0.00271
       3 <- 20        -0.00125
       3 <- 21        -0.00337
       3 <- 24         0.00316
       3 <- 26         0.00423
       3 <- 32         0.00261
       3 <- 34         0.00245
       3 <- 36         0.00048
       3 <- 39         0.00093
       3 <- 41         0.00013
       3 <- 43         0.00053
       3 <- 45         0.00140
       3 <- 47         0.00178
       3 <- 51         0.00050
       3 <- 54         0.00035
       4 <- 10         0.00959
       4 <- 11         0.00548
       4 <- 14         0.00604
       4 <- 16        -0.00393
       4 <- 17         0.00159
       4 <- 20         0.00561
       4 <- 21         0.00025
       4 <- 24        -0.00410
       4 <- 26         0.00433
       4 <- 29         0.00022
       4 <- 32        -0.00159
       4 <- 34        -0.00226
       4 <- 36        -0.00012
       4 <- 39        -0.00024
       4 <- 43        -0.00022
       4 <- 45         0.00023
       4 <- 47        -0.00142
       5 <- 12         0.00875
       5 <- 15         0.00934
       5 <- 19         0.00112
       5 <- 22         0.00278
       5 <- 25         0.00693
       5 <- 30        -0.00099
       5 <- 33        -0.00246
       5 <- 35         0.00183
       5 <- 40         0.00138
       5 <- 42         0.00051
       5 <- 49         0.00052
       5 <- 50        -0.00048
       5 <- 53        -0.00022
       6 <- 10        -0.01276
       6 <- 11         0.02161
       6 <- 14        -0.01599
       6 <- 16        -0.04567
       6 <- 17        -0.00559
       6 <- 20        -0.01250
       6 <- 21         0.01192
       6 <- 24        -0.01169
       6 <- 26        -0.00628
       6 <- 29        -0.00643
       6 <- 32         0.00041
       6 <- 34         0.00241
       6 <- 36        -0.00119
       6 <- 39         0.00055
       6 <- 41        -0.00050
       6 <- 43         0.00051
       6 <- 45        -0.00016
       6 <- 47         0.00135
       6 <- 51         0.00061
       6 <- 54        -0.00030
       7 <-  9        -0.11054
       7 <- 13         0.01068
       7 <- 18        -0.01478
       7 <- 23         0.00596
       7 <- 28        -0.00538
       7 <- 31        -0.00074
       7 <- 44        -0.00047
       7 <- 52         0.00085
       8 <- 12        -0.00024
       8 <- 15         0.02702
       8 <- 19        -0.00864
       8 <- 22        -0.01824
       8 <- 25         0.00069
       8 <- 30        -0.00958
       8 <- 33         0.00295
       8 <- 35        -0.00384
       8 <- 40        -0.00180
       8 <- 42        -0.00028
       8 <- 49         0.00048
       8 <- 50         0.00025
       8 <- 53        -0.00081

 Excited State   3:      Singlet-B1     6.5563 eV  189.11 nm  f=0.0015  <S**2>=0.000
       3 ->  9        -0.03218
       3 -> 13         0.00279
       3 -> 18        -0.00572
       3 -> 23         0.00257
       3 -> 28        -0.00151
       3 -> 31        -0.00050
       3 -> 44         0.00038
       3 -> 48         0.00068
       3 -> 52         0.00107
       4 ->  9         0.01535
       4 -> 13        -0.00271
       4 -> 18         0.00056
       4 -> 23        -0.00248
       4 -> 28         0.00019
       4 -> 31        -0.00186
       4 -> 37        -0.00045
       4 -> 48        -0.00137
       4 -> 52        -0.00078
       5 -> 27        -0.00087
       5 -> 38         0.00198
       5 -> 46         0.00158
       6 ->  9         0.70597
       6 -> 13        -0.02445
       6 -> 18         0.01916
       6 -> 23        -0.01169
       6 -> 28         0.00553
       6 -> 31         0.00385
       6 -> 37        -0.00247
       6 -> 44        -0.00331
       6 -> 48         0.00478
       6 -> 52         0.00171
       7 -> 10        -0.00536
       7 -> 11         0.00767
       7 -> 14        -0.00512
       7 -> 16        -0.00618
       7 -> 17        -0.01009
       7 -> 20         0.00213
       7 -> 21        -0.00116
       7 -> 24         0.00042
       7 -> 26        -0.00052
       7 -> 29        -0.00442
       7 -> 32        -0.00106
       7 -> 34        -0.00014
       7 -> 36         0.00174
       7 -> 39         0.00012
       7 -> 41        -0.00113
       7 -> 43         0.00074
       7 -> 45         0.00341
       7 -> 47         0.00350
       7 -> 51         0.00114
       7 -> 54         0.00055
       8 -> 27         0.00128
       8 -> 38         0.00040
       8 -> 46         0.00616
       3 <-  9        -0.01047
       3 <- 13        -0.00014
       3 <- 18        -0.00320
       3 <- 23        -0.00021
       3 <- 28        -0.00100
       3 <- 31        -0.00053
       3 <- 44        -0.00024
       3 <- 48         0.00091
       3 <- 52         0.00085
       4 <-  9         0.00639
       4 <- 18         0.00230
       4 <- 23        -0.00036
       4 <- 28         0.00203
       4 <- 31        -0.00142
       4 <- 44         0.00017
       4 <- 48        -0.00119
       4 <- 52        -0.00044
       5 <- 27        -0.00123
       5 <- 38         0.00155
       5 <- 46         0.00141
       6 <-  9        -0.02270
       6 <- 13         0.00198
       6 <- 18        -0.00302
       6 <- 23        -0.00012
       6 <- 28        -0.00295
       6 <- 31         0.00202
       6 <- 37        -0.00228
       6 <- 44        -0.00198
       6 <- 48         0.00425
       6 <- 52         0.00063
       7 <- 10         0.00436
       7 <- 11        -0.00715
       7 <- 14         0.00491
       7 <- 16         0.01661
       7 <- 17        -0.00067
       7 <- 20         0.00623
       7 <- 21        -0.00562
       7 <- 24         0.00513
       7 <- 26         0.00238
       7 <- 29         0.00063
       7 <- 32        -0.00083
       7 <- 34        -0.00098
       7 <- 36         0.00277
       7 <- 39         0.00038
       7 <- 41        -0.00070
       7 <- 43         0.00065
       7 <- 45         0.00319
       7 <- 47         0.00305
       7 <- 51         0.00088
       7 <- 54         0.00109
       8 <- 27         0.00155
       8 <- 38         0.00054
       8 <- 46         0.00560

 Excited State   4:      Singlet-B2     6.8962 eV  179.79 nm  f=0.0136  <S**2>=0.000
       3 -> 12         0.00188
       3 -> 19         0.00216
       3 -> 22        -0.00031
       3 -> 25         0.00082
       3 -> 30         0.00086
       3 -> 33         0.00035
       3 -> 35        -0.00105
       3 -> 40        -0.00070
       3 -> 42        -0.00011
       3 -> 49         0.00078
       3 -> 50        -0.00012
       3 -> 53        -0.00016
       4 -> 12        -0.00137
       4 -> 15         0.00250
       4 -> 19         0.00132
       4 -> 22        -0.00329
       4 -> 25         0.00287
       4 -> 30        -0.00014
       4 -> 33         0.00010
       4 -> 40         0.00043
       4 -> 42        -0.00011
       4 -> 49        -0.00013
       5 -> 10        -0.00727
       5 -> 11         0.00094
       5 -> 14         0.01047
       5 -> 16         0.00527
       5 -> 17        -0.00166
       5 -> 20         0.00044
       5 -> 21        -0.00574
       5 -> 24        -0.00147
       5 -> 26         0.00186
       5 -> 29         0.00121
       5 -> 32        -0.00066
       5 -> 34         0.00108
       5 -> 36         0.00040
       5 -> 39         0.00016
       5 -> 41        -0.00071
       5 -> 43        -0.00025
       5 -> 45         0.00014
       5 -> 47         0.00027
       5 -> 51        -0.00018
       5 -> 54         0.00015
       6 -> 12        -0.00266
       6 -> 15         0.00099
       6 -> 19        -0.00053
       6 -> 22        -0.00134
       6 -> 25         0.00070
       6 -> 30        -0.00013
       6 -> 33        -0.00042
       6 -> 35         0.00137
       6 -> 40         0.00067
       6 -> 49        -0.00016
       6 -> 53         0.00010
       7 -> 27         0.00010
       7 -> 38        -0.00090
       7 -> 46        -0.00102
       8 -> 10         0.70428
       8 -> 11        -0.01976
       8 -> 14         0.04352
       8 -> 16         0.03619
       8 -> 17        -0.00157
       8 -> 20         0.01345
       8 -> 21         0.00040
       8 -> 24         0.00134
       8 -> 26         0.00421
       8 -> 29         0.00338
       8 -> 32         0.00097
       8 -> 34         0.00011
       8 -> 36         0.00015
       8 -> 39         0.00030
       8 -> 41        -0.00043
       8 -> 43         0.00064
       8 -> 45         0.00098
       8 -> 47         0.00070
       8 -> 51        -0.00076
       8 -> 54         0.00048
       3 <- 12         0.00045
       3 <- 15         0.00026
       3 <- 19         0.00092
       3 <- 22        -0.00067
       3 <- 25         0.00038
       3 <- 30         0.00025
       3 <- 33         0.00031
       3 <- 35        -0.00088
       3 <- 40        -0.00065
       3 <- 49         0.00083
       3 <- 50        -0.00010
       3 <- 53        -0.00029
       4 <- 12         0.00072
       4 <- 15         0.00219
       4 <- 19         0.00127
       4 <- 22        -0.00230
       4 <- 25         0.00184
       4 <- 30        -0.00013
       4 <- 33         0.00021
       4 <- 35        -0.00019
       4 <- 42        -0.00021
       4 <- 49        -0.00010
       4 <- 50        -0.00011
       5 <- 10         0.00203
       5 <- 11         0.00048
       5 <- 14         0.00434
       5 <- 16        -0.00078
       5 <- 17        -0.00029
       5 <- 20         0.00017
       5 <- 21        -0.00142
       5 <- 24        -0.00255
       5 <- 26         0.00113
       5 <- 29         0.00024
       5 <- 32        -0.00080
       5 <- 34         0.00070
       5 <- 36         0.00015
       5 <- 41        -0.00057
       5 <- 43        -0.00026
       5 <- 45         0.00022
       6 <- 12        -0.00026
       6 <- 15        -0.00156
       6 <- 19         0.00101
       6 <- 22         0.00078
       6 <- 25         0.00024
       6 <- 30         0.00139
       6 <- 33        -0.00051
       6 <- 35         0.00132
       6 <- 40         0.00062
       6 <- 49        -0.00021
       6 <- 50        -0.00013
       6 <- 53         0.00036
       7 <- 27         0.00017
       7 <- 38        -0.00068
       7 <- 46        -0.00080
       8 <- 10        -0.00218
       8 <- 11         0.00304
       8 <- 14        -0.00458
       8 <- 16        -0.00338
       8 <- 17        -0.00028
       8 <- 21         0.00159
       8 <- 24         0.00056
       8 <- 26        -0.00128
       8 <- 34        -0.00020
       8 <- 36        -0.00040
       8 <- 39        -0.00031
       8 <- 41        -0.00027
       8 <- 43         0.00023
       8 <- 45         0.00105
       8 <- 47         0.00021
       8 <- 51        -0.00036
       8 <- 54         0.00013

 Excited State   5:      Singlet-B2     7.3984 eV  167.58 nm  f=0.0220  <S**2>=0.000
       3 -> 12         0.00051
       3 -> 15         0.00188
       3 -> 19        -0.00217
       3 -> 22        -0.00051
       3 -> 25         0.00056
       3 -> 30        -0.00356
       3 -> 33        -0.00018
       3 -> 35         0.00123
       3 -> 40         0.00099
       3 -> 49        -0.00124
       3 -> 50         0.00015
       4 -> 12        -0.00172
       4 -> 15        -0.00092
       4 -> 19        -0.00015
       4 -> 22         0.00121
       4 -> 25        -0.00160
       4 -> 30         0.00186
       4 -> 33        -0.00047
       4 -> 35         0.00066
       4 -> 40        -0.00013
       4 -> 50        -0.00012
       5 -> 10        -0.00300
       5 -> 11         0.00168
       5 -> 14        -0.01026
       5 -> 16         0.00322
       5 -> 17         0.00383
       5 -> 20         0.00346
       5 -> 21         0.00392
       5 -> 24         0.00056
       5 -> 26        -0.00184
       5 -> 29        -0.00143
       5 -> 32        -0.00105
       5 -> 34        -0.00045
       5 -> 36        -0.00078
       5 -> 39        -0.00084
       5 -> 41         0.00045
       5 -> 43        -0.00033
       5 -> 45        -0.00085
       5 -> 47        -0.00050
       5 -> 51         0.00052
       6 -> 12         0.00163
       6 -> 15         0.00020
       6 -> 19         0.00112
       6 -> 22        -0.00091
       6 -> 25        -0.00012
       6 -> 30        -0.00132
       6 -> 33         0.00041
       6 -> 35        -0.00144
       6 -> 40        -0.00144
       6 -> 42        -0.00020
       6 -> 49         0.00176
       6 -> 50        -0.00015
       6 -> 53        -0.00018
       7 -> 27        -0.00073
       7 -> 38         0.00053
       7 -> 46         0.00296
       8 -> 10         0.02468
       8 -> 11         0.70256
       8 -> 14        -0.02492
       8 -> 16        -0.07023
       8 -> 17        -0.00168
       8 -> 20         0.01235
       8 -> 21         0.00210
       8 -> 24        -0.00396
       8 -> 26        -0.00090
       8 -> 29        -0.00516
       8 -> 32        -0.00047
       8 -> 34        -0.00062
       8 -> 36        -0.00097
       8 -> 39         0.00016
       8 -> 41         0.00062
       8 -> 43        -0.00031
       8 -> 45        -0.00350
       8 -> 47        -0.00143
       8 -> 51         0.00171

 The electronic state is 1-A1.
 Alpha  occ. eigenvalues --  -19.16598 -10.31318  -0.96808  -0.68066  -0.48880
 Alpha  occ. eigenvalues --   -0.43333  -0.35310  -0.28998
 Alpha virt. eigenvalues --   -0.12134  -0.00094   0.02806   0.04135   0.06182
 Alpha virt. eigenvalues --    0.11437   0.15449   0.17305   0.18953   0.21659
 Alpha virt. eigenvalues --    0.23829   0.30064   0.40235   0.42650   0.50977

 Mulliken charges:
               1
     1  C   -0.033117
     2  H    0.162434
     3  H    0.162434
     4  O   -0.291752
 Sum of Mulliken charges =  -0.00000

 Dipole moment (field-independent basis, Debye):
    X=             -0.0000    Y=              0.0000    Z=             -3.4016  Tot=              3.4016
 Quadrupole moment (field-independent basis, Debye-Ang):
   XX=            -12.4342   YY=            -11.7940   ZZ=            -11.7381
   XY=              0.0000   XZ=              0.0000   YZ=             -0.0000

 Normal termination of Gaussian 16 at Fri Sep 17 10:52:52 2021.
