 Gaussian 16, Revision C.01,
 Gaussian 16:  ES64L-G16RevC.01  3-Jul-2019

 ----------------------------------------
 #P wB97XD/6-311+G* NoSymm #P Field=Y-155
 ----------------------------------------

 -------
 TitleMe
 -------
 Symbolic Z-matrix:
 Charge =  1 Multiplicity = 1

                          Input orientation:
 ---------------------------------------------------------------------
 Center     Atomic      Atomic             Coordinates (Angstroms)
 Number     Number       Type             X           Y           Z
 ---------------------------------------------------------------------
      1          6           0        0.519300    1.233000   -0.031900
      2          6           0        1.944500    1.269200   -0.036700
      3          6           0        2.620400    0.092800   -0.025000
      4          6           0       -0.196000    0.030100    0.001000
      5          1           0       -0.020700    2.174200   -0.043400
      6          1           0        2.482800    2.208900   -0.036100
      7          1           0       -1.277700    0.039900    0.011700
      8          7           0        4.092100    0.095900    0.036600
      9          8           0        4.639300   -1.021700    0.144600
     10          8           0        4.664900    1.198400   -0.023300
     11          6           0        0.494300   -1.167100    0.021000
     12          1           0       -0.032500   -2.114900    0.054500
     13          6           0        1.962900   -1.216500   -0.021100
     14          1           0        2.443600   -1.963100    0.615100
     15         35           0        2.173000   -1.949100   -1.906200
 ---------------------------------------------------------------------

 SCF Done:  E(RwB97XD) =  -3010.54026146     A.U. after   23 cycles

 Alpha  occ. eigenvalues -- -483.33574 -62.88622 -56.68282 -56.67755 -56.67755
 Alpha  occ. eigenvalues --  -19.46571 -19.46267 -14.85807 -10.60210 -10.59581
 Alpha  occ. eigenvalues --  -10.58425 -10.57201 -10.53505 -10.53130  -9.04447
 Alpha  occ. eigenvalues --   -6.87034  -6.85299  -6.85293  -2.96960  -2.96496
 Alpha  occ. eigenvalues --   -2.96489  -2.95101  -2.95101  -1.50081  -1.33037
 Alpha  occ. eigenvalues --   -1.23393  -1.13926  -1.13174  -1.06327  -1.01120
 Alpha  occ. eigenvalues --   -0.96163  -0.91175  -0.85569  -0.81354  -0.80881
 Alpha  occ. eigenvalues --   -0.80342  -0.78692  -0.76449  -0.76196  -0.73076
 Alpha  occ. eigenvalues --   -0.69135  -0.67802  -0.64142  -0.61393  -0.59180
 Alpha  occ. eigenvalues --   -0.57820  -0.57274  -0.56051  -0.55668
 Alpha virt. eigenvalues --   -0.31099  -0.20669  -0.17627  -0.15216  -0.13339
 Alpha virt. eigenvalues --   -0.11058  -0.10214  -0.07508  -0.06261  -0.05529
 Alpha virt. eigenvalues --   -0.04719  -0.03961  -0.03341  -0.02847  -0.01306

 Mulliken charges:
               1
     1  C   -0.118597
     2  C    0.209571
     3  C   -0.049006
     4  C   -0.296019
     5  H    0.406816
     6  H    0.406117
     7  H    0.335603
     8  N   -0.234878
     9  O    0.004511
    10  O    0.159392
    11  C   -0.206719
    12  H    0.298270
    13  C   -0.357721
    14  H    0.373026
    15  Br   0.069634
 Sum of Mulliken charges =   1.00000

 Dipole moment (field-independent basis, Debye):
    X=              2.5498    Y=              3.6524    Z=             -0.1426  Tot=              4.4566
 Quadrupole moment (field-independent basis, Debye-Ang):
   XX=            -68.0916   YY=            -53.8453   ZZ=            -63.8836
   XY=              6.5196   XZ=             -1.2371   YZ=              0.0438

 Normal termination of Gaussian 16 at Thu May  2 14:22:27 2024.
