 Gaussian 16, Revision C.01,
 Gaussian 16:  ES64L-G16RevC.01  3-Jul-2019

 ----------------------------------------
 #P wB97XD/6-311+G* NoSymm #P Field=Z+194
 ----------------------------------------

 -------
 TitleMe
 -------
 Symbolic Z-matrix:
 Charge =  1 Multiplicity = 1

                          Input orientation:
 ---------------------------------------------------------------------
 Center     Atomic      Atomic             Coordinates (Angstroms)
 Number     Number       Type             X           Y           Z
 ---------------------------------------------------------------------
      1          6           0        0.029500    1.339700    0.068200
      2          6           0        1.434800    1.286700    0.006400
      3          6           0        2.111800    0.051100   -0.005400
      4          6           0        1.445100   -1.137200    0.031200
      5          6           0       -0.687900    0.168200    0.110000
      6          1           0       -0.471300    2.298400    0.078100
      7          1           0        2.027300    2.196500   -0.032200
      8          1           0        1.989700   -2.076400    0.023200
      9          1           0       -1.771600    0.180400    0.158200
     10          7           0        3.586400    0.051000   -0.067500
     11          8           0        4.147100   -1.059700   -0.088100
     12          8           0        4.145000    1.163900   -0.090100
     13          6           0       -0.023600   -1.145800    0.083500
     14          1           0       -0.436700   -1.872500    0.788900
     15         35           0       -0.535900   -1.869700   -1.740800
 ---------------------------------------------------------------------

 SCF Done:  E(RwB97XD) =  -3010.54838808     A.U. after   18 cycles

 Alpha  occ. eigenvalues -- -483.28348 -62.83321 -56.63067 -56.62421 -56.62420
 Alpha  occ. eigenvalues --  -19.44972 -19.44915 -14.84468 -10.56758 -10.56287
 Alpha  occ. eigenvalues --  -10.56137 -10.55905 -10.55728 -10.52024  -8.99090
 Alpha  occ. eigenvalues --   -6.81908  -6.79811  -6.79801  -2.91778  -2.91223
 Alpha  occ. eigenvalues --   -2.91213  -2.89538  -2.89538  -1.48732  -1.31713
 Alpha  occ. eigenvalues --   -1.21457  -1.12633  -1.10584  -1.01903  -1.00040
 Alpha  occ. eigenvalues --   -0.94207  -0.89894  -0.84349  -0.79848  -0.79580
 Alpha  occ. eigenvalues --   -0.79023  -0.77387  -0.75151  -0.74902  -0.70725
 Alpha  occ. eigenvalues --   -0.68249  -0.66512  -0.61906  -0.58599  -0.56152
 Alpha  occ. eigenvalues --   -0.55253  -0.54710  -0.52848  -0.52200
 Alpha virt. eigenvalues --   -0.28186  -0.20437  -0.14468  -0.13213  -0.11039
 Alpha virt. eigenvalues --   -0.09324  -0.08829  -0.06189  -0.05064  -0.04487
 Alpha virt. eigenvalues --   -0.02568  -0.01337  -0.00469   0.00748   0.01085

 Mulliken charges:
               1
     1  C   -0.544799
     2  C    0.441766
     3  C   -0.691032
     4  C    0.257091
     5  C   -0.062730
     6  H    0.330617
     7  H    0.367534
     8  H    0.370686
     9  H    0.345913
    10  N   -0.113256
    11  O    0.033642
    12  O    0.031240
    13  C   -0.455993
    14  H    0.335407
    15  Br   0.353913
 Sum of Mulliken charges =   1.00000

 Dipole moment (field-independent basis, Debye):
    X=             -1.3063    Y=             -1.3432    Z=             -3.4141  Tot=              3.8945
 Quadrupole moment (field-independent basis, Debye-Ang):
   XX=            -71.9464   YY=            -51.0060   ZZ=            -59.3114
   XY=              1.8595   XZ=             -0.4581   YZ=              4.5317

 Normal termination of Gaussian 16 at Wed May  1 15:27:29 2024.
