 Gaussian 16, Revision C.01,
 Gaussian 16:  ES64L-G16RevC.01  3-Jul-2019

 ----------------------------------------
 #P wB97XD/6-311+G* NoSymm #P Field=Y-243
 ----------------------------------------

 -------
 TitleMe
 -------
 Symbolic Z-matrix:
 Charge =  1 Multiplicity = 1

                          Input orientation:
 ---------------------------------------------------------------------
 Center     Atomic      Atomic             Coordinates (Angstroms)
 Number     Number       Type             X           Y           Z
 ---------------------------------------------------------------------
      1          6           0        0.519300    1.233000   -0.031900
      2          6           0        1.944500    1.269200   -0.036700
      3          6           0        2.620400    0.092800   -0.025000
      4          6           0       -0.196000    0.030100    0.001000
      5          1           0       -0.020700    2.174200   -0.043400
      6          1           0        2.482800    2.208900   -0.036100
      7          1           0       -1.277700    0.039900    0.011700
      8          7           0        4.092100    0.095900    0.036600
      9          8           0        4.639300   -1.021700    0.144600
     10          8           0        4.664900    1.198400   -0.023300
     11          6           0        0.494300   -1.167100    0.021000
     12          1           0       -0.032500   -2.114900    0.054500
     13          6           0        1.962900   -1.216500   -0.021100
     14          1           0        2.443600   -1.963100    0.615100
     15         35           0        2.173000   -1.949100   -1.906200
 ---------------------------------------------------------------------

 SCF Done:  E(RwB97XD) =  -3010.55743297     A.U. after   22 cycles

 Alpha  occ. eigenvalues -- -483.35208 -62.90267 -56.69905 -56.69414 -56.69405
 Alpha  occ. eigenvalues --  -19.46911 -19.46432 -14.85969 -10.61620 -10.59880
 Alpha  occ. eigenvalues --  -10.59176 -10.57480 -10.54162 -10.53126  -9.06100
 Alpha  occ. eigenvalues --   -6.88625  -6.86999  -6.86968  -2.98566  -2.98135
 Alpha  occ. eigenvalues --   -2.98111  -2.96808  -2.96807  -1.50280  -1.33238
 Alpha  occ. eigenvalues --   -1.24155  -1.14830  -1.13654  -1.07413  -1.01672
 Alpha  occ. eigenvalues --   -0.96783  -0.91673  -0.86179  -0.81785  -0.81459
 Alpha  occ. eigenvalues --   -0.80661  -0.79304  -0.76950  -0.76394  -0.73895
 Alpha  occ. eigenvalues --   -0.69507  -0.67885  -0.64809  -0.62637  -0.60958
 Alpha  occ. eigenvalues --   -0.58399  -0.57799  -0.56309  -0.55884
 Alpha virt. eigenvalues --   -0.31840  -0.21154  -0.20583  -0.19134  -0.16106
 Alpha virt. eigenvalues --   -0.14782  -0.13583  -0.10559  -0.09907  -0.08550
 Alpha virt. eigenvalues --   -0.06858  -0.05659  -0.05111  -0.04348  -0.02230

 Mulliken charges:
               1
     1  C   -0.122641
     2  C    0.240197
     3  C   -0.030680
     4  C   -0.280332
     5  H    0.438931
     6  H    0.435029
     7  H    0.339197
     8  N   -0.233665
     9  O   -0.040350
    10  O    0.210170
    11  C   -0.189585
    12  H    0.263121
    13  C   -0.385120
    14  H    0.350985
    15  Br   0.004744
 Sum of Mulliken charges =   1.00000

 Dipole moment (field-independent basis, Debye):
    X=              2.4134    Y=              6.2743    Z=              0.1961  Tot=              6.7253
 Quadrupole moment (field-independent basis, Debye-Ang):
   XX=            -68.2447   YY=            -55.8123   ZZ=            -64.9168
   XY=             11.9599   XZ=             -0.5065   YZ=             -1.3705

 Normal termination of Gaussian 16 at Thu May  2 14:21:13 2024.
