 Gaussian 16, Revision C.01,
 Gaussian 16:  ES64L-G16RevC.01  3-Jul-2019

 ---------------------------------------
 #P wB97XD/6-311+G* NoSymm #P Field=Z+58
 ---------------------------------------

 -------
 TitleMe
 -------
 Symbolic Z-matrix:
 Charge =  1 Multiplicity = 1

                          Input orientation:
 ---------------------------------------------------------------------
 Center     Atomic      Atomic             Coordinates (Angstroms)
 Number     Number       Type             X           Y           Z
 ---------------------------------------------------------------------
      1          6           0        0.519300    1.233000   -0.031900
      2          6           0        1.944500    1.269200   -0.036700
      3          6           0        2.620400    0.092800   -0.025000
      4          6           0       -0.196000    0.030100    0.001000
      5          1           0       -0.020700    2.174200   -0.043400
      6          1           0        2.482800    2.208900   -0.036100
      7          1           0       -1.277700    0.039900    0.011700
      8          7           0        4.092100    0.095900    0.036600
      9          8           0        4.639300   -1.021700    0.144600
     10          8           0        4.664900    1.198400   -0.023300
     11          6           0        0.494300   -1.167100    0.021000
     12          1           0       -0.032500   -2.114900    0.054500
     13          6           0        1.962900   -1.216500   -0.021100
     14          1           0        2.443600   -1.963100    0.615100
     15         35           0        2.173000   -1.949100   -1.906200
 ---------------------------------------------------------------------

 SCF Done:  E(RwB97XD) =  -3010.53480773     A.U. after   20 cycles

 Alpha  occ. eigenvalues -- -483.30101 -62.85106 -56.64818 -56.64224 -56.64210
 Alpha  occ. eigenvalues --  -19.46033 -19.46027 -14.85443 -10.58788 -10.57382
 Alpha  occ. eigenvalues --  -10.56842 -10.56443 -10.52960 -10.52340  -9.00899
 Alpha  occ. eigenvalues --   -6.83630  -6.81685  -6.81643  -2.93521  -2.93013
 Alpha  occ. eigenvalues --   -2.92980  -2.91424  -2.91423  -1.49716  -1.32681
 Alpha  occ. eigenvalues --   -1.21936  -1.12384  -1.11877  -1.03996  -0.99791
 Alpha  occ. eigenvalues --   -0.94867  -0.90155  -0.84651  -0.80586  -0.79817
 Alpha  occ. eigenvalues --   -0.79741  -0.77519  -0.75938  -0.75156  -0.71371
 Alpha  occ. eigenvalues --   -0.68086  -0.67135  -0.62672  -0.59173  -0.57194
 Alpha  occ. eigenvalues --   -0.56448  -0.55732  -0.54956  -0.53638
 Alpha virt. eigenvalues --   -0.29511  -0.20078  -0.14842  -0.12694  -0.08843
 Alpha virt. eigenvalues --   -0.06304  -0.05877  -0.04890  -0.03070  -0.02771
 Alpha virt. eigenvalues --   -0.02290  -0.01597  -0.00338   0.00424   0.01314

 Mulliken charges:
               1
     1  C   -0.124830
     2  C    0.203614
     3  C   -0.063532
     4  C   -0.331594
     5  H    0.344433
     6  H    0.349322
     7  H    0.329069
     8  N   -0.252245
     9  O    0.088096
    10  O    0.069369
    11  C   -0.217947
    12  H    0.354833
    13  C   -0.381141
    14  H    0.392496
    15  Br   0.240056
 Sum of Mulliken charges =   1.00000

 Dipole moment (field-independent basis, Debye):
    X=              2.8675    Y=             -1.1400    Z=             -1.7942  Tot=              3.5695
 Quadrupole moment (field-independent basis, Debye-Ang):
   XX=            -67.8683   YY=            -50.7732   ZZ=            -60.8580
   XY=             -3.4436   XZ=             -4.7130   YZ=              3.4765

 Normal termination of Gaussian 16 at Thu May  2 14:19:41 2024.
