 Gaussian 16, Revision C.01,
 Gaussian 16:  ES64L-G16RevC.01  3-Jul-2019

 ----------------------------------------
 #P wB97XD/6-311+G* NoSymm #P Field=X+243
 ----------------------------------------

 -------
 TitleMe
 -------
 Symbolic Z-matrix:
 Charge =  1 Multiplicity = 1

                          Input orientation:
 ---------------------------------------------------------------------
 Center     Atomic      Atomic             Coordinates (Angstroms)
 Number     Number       Type             X           Y           Z
 ---------------------------------------------------------------------
      1          6           0        0.519300    1.233000   -0.031900
      2          6           0        1.944500    1.269200   -0.036700
      3          6           0        2.620400    0.092800   -0.025000
      4          6           0       -0.196000    0.030100    0.001000
      5          1           0       -0.020700    2.174200   -0.043400
      6          1           0        2.482800    2.208900   -0.036100
      7          1           0       -1.277700    0.039900    0.011700
      8          7           0        4.092100    0.095900    0.036600
      9          8           0        4.639300   -1.021700    0.144600
     10          8           0        4.664900    1.198400   -0.023300
     11          6           0        0.494300   -1.167100    0.021000
     12          1           0       -0.032500   -2.114900    0.054500
     13          6           0        1.962900   -1.216500   -0.021100
     14          1           0        2.443600   -1.963100    0.615100
     15         35           0        2.173000   -1.949100   -1.906200
 ---------------------------------------------------------------------

 SCF Done:  E(RwB97XD) =  -3010.53852833     A.U. after   19 cycles

 Alpha  occ. eigenvalues -- -483.39790 -62.94825 -56.74501 -56.73956 -56.73946
 Alpha  occ. eigenvalues --  -19.61432 -19.61294 -15.00383 -10.68148 -10.66841
 Alpha  occ. eigenvalues --  -10.64218 -10.63277 -10.63208 -10.58399  -9.10641
 Alpha  occ. eigenvalues --   -6.93273  -6.91479  -6.91450  -3.03188  -3.02715
 Alpha  occ. eigenvalues --   -3.02691  -3.01255  -3.01254  -1.64968  -1.48077
 Alpha  occ. eigenvalues --   -1.31150  -1.21899  -1.20728  -1.13532  -1.09878
 Alpha  occ. eigenvalues --   -1.03149  -1.00201  -0.96960  -0.94830  -0.93363
 Alpha  occ. eigenvalues --   -0.89204  -0.86754  -0.84752  -0.84116  -0.80054
 Alpha  occ. eigenvalues --   -0.74840  -0.74484  -0.72718  -0.72568  -0.71395
 Alpha  occ. eigenvalues --   -0.70956  -0.67803  -0.65173  -0.63296
 Alpha virt. eigenvalues --   -0.38886  -0.32520  -0.24356  -0.22004  -0.21685
 Alpha virt. eigenvalues --   -0.18572  -0.17028  -0.16422  -0.14943  -0.12303
 Alpha virt. eigenvalues --   -0.12084  -0.11016  -0.10772  -0.09201  -0.08289

 Mulliken charges:
               1
     1  C   -0.145899
     2  C    0.162542
     3  C   -0.189576
     4  C   -0.289553
     5  H    0.405042
     6  H    0.322160
     7  H    0.436433
     8  N   -0.238450
     9  O   -0.007434
    10  O   -0.048515
    11  C   -0.140543
    12  H    0.415727
    13  C   -0.205988
    14  H    0.382716
    15  Br   0.141339
 Sum of Mulliken charges =   1.00000

 Dipole moment (field-independent basis, Debye):
    X=             -4.2373    Y=             -0.5779    Z=             -0.4372  Tot=              4.2988
 Quadrupole moment (field-independent basis, Debye-Ang):
   XX=            -96.4752   YY=            -51.6868   ZZ=            -62.9648
   XY=             -1.1961   XZ=             -0.6826   YZ=              1.7105

 Normal termination of Gaussian 16 at Thu May  2 14:18:05 2024.
