 Gaussian 16, Revision A.03,
 Gaussian 16:  ES64L-G16RevA.03 25-Dec-2016

 --------------------------------------------------------------------
 #p B3LYP/6-311+G** #p TD=(singlets,nstates=30)IOp(6/8=3) IOp(9/40=4)
 --------------------------------------------------------------------

 -------------------------------
 Scan Step 69, Bond Length 0.845
 -------------------------------
 Symbolic Z-matrix:
 Charge =  0 Multiplicity = 1

                         Standard orientation:
 ---------------------------------------------------------------------
 Center     Atomic      Atomic             Coordinates (Angstroms)
 Number     Number       Type             X           Y           Z
 ---------------------------------------------------------------------
      1          6           0        0.000000   -0.000000   -0.348581
      2          1           0        0.000000    0.937260   -0.939931
      3          1           0       -0.000000   -0.937260   -0.939931
      4          8           0        0.000000    0.000000    0.496419
 ---------------------------------------------------------------------

 SCF Done:  E(RB3LYP) =  -114.055265080     A.U. after    9 cycles

 Excitation energies and oscillator strengths:

 Excited State   1:      Singlet-A2     5.5704 eV  222.57 nm  f=0.0000  <S**2>=0.000
       3 -> 27         0.00262
       3 -> 35         0.00198
       3 -> 46         0.00098
       4 -> 10         0.00510
       4 -> 13         0.00743
       4 -> 17         0.00577
       4 -> 22        -0.00340
       4 -> 28         0.00283
       4 -> 32         0.00133
       4 -> 37         0.00306
       4 -> 43         0.00043
       4 -> 52         0.00061
       5 -> 11        -0.00051
       5 -> 16        -0.00061
       5 -> 18        -0.00041
       5 -> 23         0.00161
       5 -> 24         0.00024
       5 -> 29        -0.00024
       5 -> 33         0.00022
       5 -> 36         0.00049
       5 -> 42         0.00049
       5 -> 47         0.00060
       5 -> 50        -0.00019
       5 -> 53         0.00022
       6 -> 27         0.00361
       6 -> 35        -0.00066
       6 -> 46        -0.00055
       7 -> 27         0.00097
       7 -> 35        -0.00016
       7 -> 46         0.00096
       8 -> 10         0.69807
       8 -> 13         0.10826
       8 -> 17         0.03078
       8 -> 22        -0.00469
       8 -> 28         0.00441
       8 -> 32         0.00333
       8 -> 37        -0.00241
       8 -> 43        -0.00013
       8 -> 52         0.00077
       3 <- 27         0.00199
       3 <- 35         0.00170
       3 <- 46         0.00100
       4 <- 10         0.00023
       4 <- 13         0.00114
       4 <- 17         0.00027
       4 <- 22         0.00013
       4 <- 32        -0.00102
       4 <- 37         0.00144
       4 <- 43         0.00041
       4 <- 52         0.00015
       5 <- 11        -0.00088
       5 <- 16         0.00127
       5 <- 18        -0.00284
       5 <- 23         0.00370
       5 <- 24        -0.00171
       5 <- 29         0.00157
       5 <- 33        -0.00071
       5 <- 36         0.00163
       5 <- 40        -0.00010
       5 <- 42         0.00076
       5 <- 47         0.00048
       5 <- 53         0.00060
       6 <- 27         0.00394
       6 <- 35        -0.00054
       6 <- 46        -0.00055
       7 <- 27         0.00099
       7 <- 35        -0.00023
       7 <- 46         0.00079
       8 <- 10        -0.00565
       8 <- 13        -0.00857
       8 <- 17        -0.00449
       8 <- 22         0.00038
       8 <- 28        -0.00038
       8 <- 32         0.00295
       8 <- 37        -0.00217
       8 <- 52         0.00024
 This state for optimization and/or second-order correction.
 Total Energy, E(TD-HF/TD-DFT) =  -113.850554834
 Copying the excited state density for this state as the 1-particle RhoCI density.

 Excited State   2:      Singlet-B2     5.6871 eV  218.01 nm  f=0.0939  <S**2>=0.000
       3 -> 11         0.00085
       3 -> 16         0.00033
       3 -> 18         0.00095
       3 -> 24         0.00110
       3 -> 29        -0.00020
       3 -> 42         0.00016
       3 -> 50        -0.00015
       4 ->  9         0.00215
       4 -> 12         0.00592
       4 -> 14         0.00492
       4 -> 15         0.00163
       4 -> 19         0.00369
       4 -> 20         0.00141
       4 -> 21         0.00256
       4 -> 25         0.00135
       4 -> 26        -0.00103
       4 -> 30        -0.00196
       4 -> 31         0.00053
       4 -> 34         0.00043
       4 -> 38        -0.00081
       4 -> 39         0.00011
       4 -> 41         0.00048
       4 -> 44         0.00042
       4 -> 45        -0.00060
       4 -> 48         0.00038
       5 -> 27         0.00118
       5 -> 35         0.00036
       5 -> 46         0.00087
       6 -> 11        -0.00670
       6 -> 16         0.00136
       6 -> 18         0.00094
       6 -> 23        -0.00222
       6 -> 24         0.00412
       6 -> 29        -0.00070
       6 -> 33        -0.00105
       6 -> 36         0.00085
       6 -> 40        -0.00013
       6 -> 42         0.00043
       7 -> 11         0.00278
       7 -> 16         0.00361
       7 -> 18         0.00340
       7 -> 23        -0.00189
       7 -> 24         0.00252
       7 -> 29         0.00018
       7 -> 36        -0.00027
       7 -> 42        -0.00037
       7 -> 47         0.00042
       7 -> 50         0.00048
       7 -> 53        -0.00010
       8 ->  9         0.70621
       8 -> 12         0.00860
       8 -> 14        -0.02507
       8 -> 15         0.01115
       8 -> 19         0.02067
       8 -> 20        -0.00734
       8 -> 21        -0.00837
       8 -> 25         0.00059
       8 -> 26        -0.00041
       8 -> 30         0.00016
       8 -> 31         0.00305
       8 -> 34         0.00144
       8 -> 38         0.00094
       8 -> 39        -0.00049
       8 -> 41        -0.00049
       8 -> 44        -0.00011
       8 -> 45        -0.00106
       8 -> 48         0.00036
       8 -> 54        -0.00013
       3 <- 11         0.00029
       3 <- 18         0.00059
       3 <- 24         0.00081
       3 <- 29        -0.00019
       3 <- 42         0.00014
       3 <- 53         0.00011
       4 <-  9         0.00193
       4 <- 12        -0.00015
       4 <- 14         0.00392
       4 <- 15         0.00181
       4 <- 19         0.00092
       4 <- 20         0.00056
       4 <- 21         0.00165
       4 <- 25         0.00162
       4 <- 26        -0.00125
       4 <- 30        -0.00072
       4 <- 34         0.00021
       4 <- 38        -0.00052
       4 <- 39         0.00016
       4 <- 41         0.00045
       4 <- 44         0.00029
       4 <- 45        -0.00054
       4 <- 48         0.00032
       5 <- 27         0.00093
       5 <- 35         0.00028
       5 <- 46         0.00074
       6 <- 11        -0.00029
       6 <- 16         0.00138
       6 <- 18         0.00212
       6 <- 23        -0.00127
       6 <- 24         0.00319
       6 <- 29        -0.00057
       6 <- 33        -0.00080
       6 <- 36         0.00066
       6 <- 40        -0.00017
       6 <- 42         0.00021
       7 <- 11         0.00073
       7 <- 16         0.00222
       7 <- 18         0.00108
       7 <- 23        -0.00077
       7 <- 24         0.00119
       7 <- 29         0.00080
       7 <- 42        -0.00031
       7 <- 47         0.00040
       7 <- 50         0.00054
       8 <-  9        -0.00495
       8 <- 12         0.00261
       8 <- 14        -0.01419
       8 <- 15        -0.00276
       8 <- 19        -0.00122
       8 <- 20         0.00019
       8 <- 21        -0.00440
       8 <- 25        -0.00314
       8 <- 26        -0.00064
       8 <- 30         0.00048
       8 <- 31         0.00168
       8 <- 34         0.00153
       8 <- 38         0.00092
       8 <- 39        -0.00041
       8 <- 41        -0.00034
       8 <- 44        -0.00020
       8 <- 45        -0.00079
       8 <- 48         0.00032

 Excited State   3:      Singlet-B2     6.4896 eV  191.05 nm  f=0.0240  <S**2>=0.000
       3 -> 11         0.00011
       3 -> 16        -0.00061
       3 -> 18         0.00012
       3 -> 23        -0.00020
       3 -> 24        -0.00044
       3 -> 29        -0.00084
       3 -> 33        -0.00014
       3 -> 36         0.00028
       3 -> 42         0.00029
       3 -> 47        -0.00019
       3 -> 50        -0.00019
       3 -> 53         0.00011
       4 ->  9         0.00434
       4 -> 12        -0.00014
       4 -> 14        -0.00251
       4 -> 15        -0.00417
       4 -> 19         0.00291
       4 -> 20        -0.00036
       4 -> 21        -0.00142
       4 -> 25        -0.00088
       4 -> 26        -0.00115
       4 -> 30         0.00077
       4 -> 31         0.00220
       4 -> 34         0.00035
       4 -> 39         0.00084
       4 -> 41         0.00059
       4 -> 45        -0.00062
       4 -> 48         0.00038
       4 -> 51         0.00019
       5 -> 27         0.00091
       5 -> 35         0.00134
       5 -> 46         0.00098
       6 -> 11        -0.00240
       6 -> 16        -0.00475
       6 -> 18        -0.00102
       6 -> 23         0.00124
       6 -> 24        -0.00375
       6 -> 29         0.00132
       6 -> 33        -0.00055
       6 -> 40         0.00027
       6 -> 47        -0.00011
       7 -> 11         0.00287
       7 -> 16         0.00047
       7 -> 18         0.00237
       7 -> 23        -0.00125
       7 -> 24         0.00061
       7 -> 29         0.00012
       7 -> 33         0.00022
       7 -> 36        -0.00113
       7 -> 40         0.00030
       7 -> 42        -0.00060
       7 -> 47         0.00066
       7 -> 50         0.00055
       7 -> 53        -0.00017
       8 ->  9        -0.00878
       8 -> 12         0.70599
       8 -> 14         0.01948
       8 -> 15         0.02455
       8 -> 19         0.01557
       8 -> 20         0.01538
       8 -> 21         0.00346
       8 -> 25        -0.00045
       8 -> 26         0.00069
       8 -> 30        -0.00181
       8 -> 31        -0.00063
       8 -> 34        -0.00036
       8 -> 38         0.00012
       8 -> 39         0.00093
       8 -> 41         0.00115
       8 -> 44        -0.00010
       8 -> 45        -0.00068
       8 -> 48         0.00052
       8 -> 54        -0.00016
       3 <- 11        -0.00020
       3 <- 16        -0.00060
       3 <- 18        -0.00015
       3 <- 24        -0.00049
       3 <- 29        -0.00056
       3 <- 33        -0.00016
       3 <- 36         0.00030
       3 <- 42         0.00025
       3 <- 47        -0.00015
       3 <- 50        -0.00010
       3 <- 53         0.00021
       4 <-  9        -0.00136
       4 <- 12        -0.00015
       4 <- 14        -0.00173
       4 <- 15        -0.00062
       4 <- 19        -0.00064
       4 <- 20         0.00034
       4 <- 21        -0.00102
       4 <- 25        -0.00092
       4 <- 26        -0.00094
       4 <- 30         0.00090
       4 <- 31         0.00092
       4 <- 34         0.00088
       4 <- 39         0.00063
       4 <- 41         0.00060
       4 <- 45        -0.00064
       4 <- 48         0.00026
       4 <- 51         0.00018
       5 <- 27         0.00045
       5 <- 35         0.00112
       5 <- 46         0.00085
       6 <- 11        -0.00019
       6 <- 16        -0.00097
       6 <- 18        -0.00104
       6 <- 23         0.00122
       6 <- 24        -0.00195
       6 <- 29         0.00061
       6 <- 33        -0.00059
       6 <- 36        -0.00024
       6 <- 40         0.00027
       6 <- 50        -0.00017
       7 <- 11         0.00038
       7 <- 16         0.00046
       7 <- 18         0.00020
       7 <- 23        -0.00024
       7 <- 24         0.00011
       7 <- 29         0.00044
       7 <- 36        -0.00077
       7 <- 40         0.00024
       7 <- 42        -0.00042
       7 <- 47         0.00058
       7 <- 50         0.00053
       8 <-  9         0.00243
       8 <- 12         0.00139
       8 <- 14         0.00742
       8 <- 15         0.00196
       8 <- 19        -0.00176
       8 <- 20        -0.00220
       8 <- 21         0.00287
       8 <- 25         0.00050
       8 <- 26        -0.00066
       8 <- 30        -0.00132
       8 <- 31        -0.00112
       8 <- 38         0.00029
       8 <- 39         0.00068
       8 <- 41         0.00098
       8 <- 45        -0.00058
       8 <- 48         0.00032
       8 <- 51         0.00011

 Excited State   4:      Singlet-A1     6.6282 eV  187.06 nm  f=0.0359  <S**2>=0.000
       3 ->  9         0.00127
       3 -> 12         0.00075
       3 -> 15         0.00060
       3 -> 19         0.00134
       3 -> 20        -0.00023
       3 -> 21        -0.00039
       3 -> 25         0.00031
       3 -> 30        -0.00102
       3 -> 31        -0.00019
       3 -> 34        -0.00023
       3 -> 38        -0.00033
       3 -> 39        -0.00028
       3 -> 41        -0.00010
       3 -> 48        -0.00013
       3 -> 51        -0.00026
       3 -> 54         0.00019
       4 -> 11         0.00728
       4 -> 16         0.00817
       4 -> 18         0.00600
       4 -> 23         0.00114
       4 -> 24         0.00390
       4 -> 29         0.00070
       4 -> 33        -0.00015
       4 -> 36         0.00098
       4 -> 42        -0.00025
       4 -> 50        -0.00035
       4 -> 53        -0.00012
       5 -> 10         0.00662
       5 -> 13        -0.00285
       5 -> 17         0.00501
       5 -> 22         0.00383
       5 -> 28         0.00084
       5 -> 32         0.00091
       5 -> 37         0.00054
       5 -> 43         0.00042
       5 -> 49        -0.00036
       6 ->  9         0.00583
       6 -> 12        -0.01087
       6 -> 14         0.00618
       6 -> 15         0.00267
       6 -> 19         0.00145
       6 -> 20        -0.00683
       6 -> 21         0.00165
       6 -> 25         0.00677
       6 -> 26        -0.00098
       6 -> 30         0.00089
       6 -> 31        -0.00087
       6 -> 34        -0.00114
       6 -> 38        -0.00042
       6 -> 39         0.00101
       6 -> 41         0.00010
       6 -> 44         0.00023
       6 -> 45        -0.00029
       6 -> 48        -0.00031
       7 ->  9         0.01283
       7 -> 12         0.00565
       7 -> 14         0.00227
       7 -> 15        -0.00105
       7 -> 19         0.00837
       7 -> 20        -0.00220
       7 -> 21         0.00058
       7 -> 25         0.00176
       7 -> 26         0.00031
       7 -> 30        -0.00035
       7 -> 31         0.00073
       7 -> 34        -0.00097
       7 -> 38        -0.00012
       7 -> 39         0.00023
       7 -> 48        -0.00022
       7 -> 51         0.00039
       8 -> 11         0.70537
       8 -> 16         0.04388
       8 -> 18        -0.00705
       8 -> 23         0.00265
       8 -> 24         0.00193
       8 -> 29         0.00368
       8 -> 33         0.00159
       8 -> 36        -0.00266
       8 -> 40         0.00017
       8 -> 42         0.00152
       8 -> 47        -0.00051
       3 <-  9         0.00057
       3 <- 12         0.00031
       3 <- 15         0.00032
       3 <- 19         0.00077
       3 <- 21        -0.00017
       3 <- 25         0.00032
       3 <- 30        -0.00061
       3 <- 31        -0.00016
       3 <- 34        -0.00020
       3 <- 38        -0.00024
       3 <- 39        -0.00024
       3 <- 41        -0.00012
       3 <- 48        -0.00015
       3 <- 51        -0.00023
       3 <- 54         0.00018
       4 <- 11         0.00260
       4 <- 16         0.00268
       4 <- 18         0.00308
       4 <- 23         0.00101
       4 <- 24         0.00209
       4 <- 29         0.00027
       4 <- 33        -0.00027
       4 <- 36         0.00084
       4 <- 42        -0.00022
       4 <- 50        -0.00028
       4 <- 53        -0.00011
       5 <- 10         0.00265
       5 <- 13        -0.00124
       5 <- 17         0.00245
       5 <- 22         0.00236
       5 <- 28         0.00054
       5 <- 32         0.00071
       5 <- 37         0.00045
       5 <- 43         0.00036
       5 <- 49        -0.00032
       6 <-  9         0.00607
       6 <- 12        -0.00414
       6 <- 14         0.00468
       6 <- 15         0.00243
       6 <- 19         0.00101
       6 <- 20        -0.00385
       6 <- 21         0.00032
       6 <- 25         0.00420
       6 <- 26        -0.00046
       6 <- 30         0.00023
       6 <- 31        -0.00105
       6 <- 34        -0.00090
       6 <- 38        -0.00052
       6 <- 39         0.00081
       6 <- 44         0.00029
       6 <- 45        -0.00026
       6 <- 48        -0.00025
       7 <-  9         0.00453
       7 <- 12         0.00153
       7 <- 14         0.00108
       7 <- 15        -0.00041
       7 <- 19         0.00374
       7 <- 20        -0.00137
       7 <- 21         0.00011
       7 <- 25         0.00108
       7 <- 30        -0.00037
       7 <- 31         0.00047
       7 <- 34        -0.00067
       7 <- 38        -0.00017
       7 <- 39         0.00030
       7 <- 45        -0.00013
       7 <- 48        -0.00012
       7 <- 51         0.00036
       8 <- 11        -0.00441
       8 <- 16         0.00502
       8 <- 18        -0.01188
       8 <- 23        -0.00148
       8 <- 24        -0.00159
       8 <- 29         0.00203
       8 <- 33         0.00127
       8 <- 36        -0.00195
       8 <- 42         0.00122
       8 <- 47        -0.00057
       8 <- 53        -0.00012

 Excited State   5:      Singlet-A2     7.6017 eV  163.10 nm  f=0.0000  <S**2>=0.000
       3 -> 27         0.00211
       3 -> 35         0.00168
       3 -> 46         0.00077
       4 -> 10         0.00675
       4 -> 13         0.00950
       4 -> 17        -0.00116
       4 -> 22        -0.00217
       4 -> 28         0.00051
       4 -> 32         0.00219
       4 -> 37         0.00284
       4 -> 43         0.00032
       4 -> 49        -0.00010
       4 -> 52         0.00047
       5 -> 11         0.00011
       5 -> 16        -0.00182
       5 -> 18        -0.00033
       5 -> 23         0.00153
       5 -> 29        -0.00038
       5 -> 33         0.00011
       5 -> 36         0.00044
       5 -> 42         0.00046
       5 -> 47         0.00045
       5 -> 53         0.00019
       6 -> 27         0.00152
       6 -> 35        -0.00081
       6 -> 46        -0.00026
       7 -> 27         0.00039
       7 -> 35        -0.00016
       7 -> 46         0.00082
       8 -> 10        -0.10911
       8 -> 13         0.69802
       8 -> 17         0.01418
       8 -> 22        -0.02384
       8 -> 28         0.00251
       8 -> 32         0.00193
       8 -> 37        -0.00162
       8 -> 43        -0.00017
       8 -> 49        -0.00013
       8 -> 52         0.00051
       3 <- 27         0.00134
       3 <- 35         0.00138
       3 <- 46         0.00087
       4 <- 10         0.00033
       4 <- 13         0.00050
       4 <- 17        -0.00037
       4 <- 32        -0.00042
       4 <- 37         0.00097
       4 <- 43         0.00029
       4 <- 52         0.00015
       5 <- 11         0.00036
       5 <- 16        -0.00043
       5 <- 18        -0.00092
       5 <- 23         0.00281
       5 <- 24        -0.00089
       5 <- 29         0.00020
       5 <- 33        -0.00077
       5 <- 36         0.00147
       5 <- 42         0.00080
       5 <- 47         0.00021
       5 <- 53         0.00043
       6 <- 27         0.00209
       6 <- 35        -0.00017
       6 <- 46        -0.00032
       7 <- 27         0.00058
       7 <- 35        -0.00027
       7 <- 46         0.00045
       8 <- 10        -0.00730
       8 <- 13        -0.00264
       8 <- 17        -0.00149
       8 <- 22         0.00062
       8 <- 28        -0.00032
       8 <- 32         0.00164
       8 <- 37        -0.00131
       8 <- 52         0.00020

 Excited State   6:      Singlet-B2     9.7531 eV  127.12 nm  f=0.2102  <S**2>=0.000
       3 -> 11        -0.00039

 The electronic state is 1-A1.
 Alpha  occ. eigenvalues --  -19.14087 -10.23774  -1.29543  -0.63867  -0.59442
 Alpha  occ. eigenvalues --   -0.58891  -0.53047  -0.23355
 Alpha virt. eigenvalues --    0.01371   0.02144   0.04431   0.04453   0.10065
 Alpha virt. eigenvalues --    0.14315   0.17684   0.20128   0.21813   0.23928
 Alpha virt. eigenvalues --    0.25672   0.36462   0.50335   0.53439   0.54653

 Mulliken charges:
               1
     1  C    0.261744
     2  H   -0.019018
     3  H   -0.019018
     4  O   -0.223709
 Sum of Mulliken charges =  -0.00000

 Dipole moment (field-independent basis, Debye):
    X=              0.0000    Y=             -0.0000    Z=             -0.1835  Tot=              0.1835
 Quadrupole moment (field-independent basis, Debye-Ang):
   XX=            -10.6582   YY=            -12.5534   ZZ=            -13.3164
   XY=             -0.0000   XZ=             -0.0000   YZ=              0.0000

 Normal termination of Gaussian 16 at Fri Sep 17 10:52:28 2021.
