 Gaussian 16, Revision C.01,
 Gaussian 16:  ES64L-G16RevC.01  3-Jul-2019

 ----------------------------------------
 #P wB97XD/6-311+G* NoSymm #P Field=Y+223
 ----------------------------------------

 -------
 TitleMe
 -------
 Symbolic Z-matrix:
 Charge =  1 Multiplicity = 1

                          Input orientation:
 ---------------------------------------------------------------------
 Center     Atomic      Atomic             Coordinates (Angstroms)
 Number     Number       Type             X           Y           Z
 ---------------------------------------------------------------------
      1          6           0        0.519300    1.233000   -0.031900
      2          6           0        1.944500    1.269200   -0.036700
      3          6           0        2.620400    0.092800   -0.025000
      4          6           0       -0.196000    0.030100    0.001000
      5          1           0       -0.020700    2.174200   -0.043400
      6          1           0        2.482800    2.208900   -0.036100
      7          1           0       -1.277700    0.039900    0.011700
      8          7           0        4.092100    0.095900    0.036600
      9          8           0        4.639300   -1.021700    0.144600
     10          8           0        4.664900    1.198400   -0.023300
     11          6           0        0.494300   -1.167100    0.021000
     12          1           0       -0.032500   -2.114900    0.054500
     13          6           0        1.962900   -1.216500   -0.021100
     14          1           0        2.443600   -1.963100    0.615100
     15         35           0        2.173000   -1.949100   -1.906200
 ---------------------------------------------------------------------

 SCF Done:  E(RwB97XD) =  -3010.56864671     A.U. after   22 cycles

 Alpha  occ. eigenvalues -- -483.28063 -62.83025 -56.62767 -56.62141 -56.62117
 Alpha  occ. eigenvalues --  -19.46420 -19.45998 -14.85437 -10.58607 -10.56672
 Alpha  occ. eigenvalues --  -10.55461 -10.54994 -10.53771 -10.51987  -8.98786
 Alpha  occ. eigenvalues --   -6.81590  -6.79544  -6.79471  -2.91462  -2.90937
 Alpha  occ. eigenvalues --   -2.90879  -2.89243  -2.89242  -1.49801  -1.32780
 Alpha  occ. eigenvalues --   -1.21322  -1.12055  -1.10946  -1.02898  -0.98992
 Alpha  occ. eigenvalues --   -0.94200  -0.89815  -0.84663  -0.80461  -0.79841
 Alpha  occ. eigenvalues --   -0.79300  -0.77164  -0.75859  -0.74410  -0.70675
 Alpha  occ. eigenvalues --   -0.67376  -0.66524  -0.62038  -0.58298  -0.57358
 Alpha  occ. eigenvalues --   -0.56452  -0.55683  -0.52201  -0.51628
 Alpha virt. eigenvalues --   -0.28650  -0.20147  -0.18010  -0.13700  -0.13485
 Alpha virt. eigenvalues --   -0.12078  -0.08322  -0.08073  -0.06409  -0.03974
 Alpha virt. eigenvalues --   -0.03739  -0.02382  -0.01125  -0.00190   0.00012

 Mulliken charges:
               1
     1  C   -0.102580
     2  C    0.227086
     3  C   -0.137050
     4  C   -0.398012
     5  H    0.245435
     6  H    0.258114
     7  H    0.326180
     8  N   -0.248158
     9  O    0.213689
    10  O   -0.056178
    11  C   -0.163810
    12  H    0.431875
    13  C   -0.416092
    14  H    0.463181
    15  Br   0.356319
 Sum of Mulliken charges =   1.00000

 Dipole moment (field-independent basis, Debye):
    X=              3.1224    Y=             -7.4919    Z=             -1.6831  Tot=              8.2892
 Quadrupole moment (field-independent basis, Debye-Ang):
   XX=            -67.5175   YY=            -48.4750   ZZ=            -59.8535
   XY=            -16.7436   XZ=             -4.6000   YZ=              5.9593

 Normal termination of Gaussian 16 at Thu May  2 14:22:28 2024.
