 Gaussian 16, Revision A.03,
 Gaussian 16:  ES64L-G16RevA.03 25-Dec-2016

 --------------------------------------------------------------------
 #p B3LYP/6-311+G** #p TD=(singlets,nstates=30)IOp(6/8=3) IOp(9/40=4)
 --------------------------------------------------------------------

 --------------------------------------------
 Scan Step 70, Bond Length 0.8500000000000001
 --------------------------------------------
 Symbolic Z-matrix:
 Charge =  0 Multiplicity = 1

                         Standard orientation:
 ---------------------------------------------------------------------
 Center     Atomic      Atomic             Coordinates (Angstroms)
 Number     Number       Type             X           Y           Z
 ---------------------------------------------------------------------
      1          6           0        0.000000    0.000000   -0.351081
      2          1           0        0.000000    0.937260   -0.942431
      3          1           0       -0.000000   -0.937260   -0.942431
      4          8           0        0.000000   -0.000000    0.498919
 ---------------------------------------------------------------------

 SCF Done:  E(RB3LYP) =  -114.075467323     A.U. after    9 cycles

 Excitation energies and oscillator strengths:

 Excited State   1:      Singlet-A2     5.5688 eV  222.64 nm  f=0.0000  <S**2>=0.000
       3 -> 27         0.00265
       3 -> 35         0.00201
       3 -> 46         0.00101
       4 -> 10         0.00540
       4 -> 13         0.00764
       4 -> 17         0.00581
       4 -> 22        -0.00343
       4 -> 28         0.00286
       4 -> 32         0.00139
       4 -> 37         0.00311
       4 -> 43         0.00044
       4 -> 52         0.00062
       5 -> 11        -0.00052
       5 -> 16        -0.00065
       5 -> 18        -0.00041
       5 -> 23         0.00163
       5 -> 24         0.00027
       5 -> 29        -0.00026
       5 -> 33         0.00023
       5 -> 36         0.00050
       5 -> 42         0.00049
       5 -> 47         0.00061
       5 -> 50        -0.00018
       5 -> 53         0.00023
       6 -> 27         0.00360
       6 -> 35        -0.00066
       6 -> 46        -0.00056
       7 -> 27         0.00098
       7 -> 35        -0.00017
       7 -> 46         0.00098
       8 -> 10         0.69771
       8 -> 13         0.11050
       8 -> 17         0.03076
       8 -> 22        -0.00502
       8 -> 28         0.00449
       8 -> 32         0.00334
       8 -> 37        -0.00241
       8 -> 43        -0.00014
       8 -> 52         0.00079
       3 <- 27         0.00200
       3 <- 35         0.00173
       3 <- 46         0.00103
       4 <- 10         0.00023
       4 <- 13         0.00114
       4 <- 17         0.00025
       4 <- 22         0.00014
       4 <- 32        -0.00103
       4 <- 37         0.00146
       4 <- 43         0.00042
       4 <- 52         0.00015
       5 <- 11        -0.00089
       5 <- 16         0.00132
       5 <- 18        -0.00288
       5 <- 23         0.00380
       5 <- 24        -0.00170
       5 <- 29         0.00159
       5 <- 33        -0.00073
       5 <- 36         0.00167
       5 <- 40        -0.00011
       5 <- 42         0.00077
       5 <- 47         0.00049
       5 <- 53         0.00061
       6 <- 27         0.00394
       6 <- 35        -0.00054
       6 <- 46        -0.00056
       7 <- 27         0.00101
       7 <- 35        -0.00024
       7 <- 46         0.00081
       8 <- 10        -0.00596
       8 <- 13        -0.00860
       8 <- 17        -0.00446
       8 <- 22         0.00039
       8 <- 28        -0.00038
       8 <- 32         0.00293
       8 <- 37        -0.00218
       8 <- 52         0.00025
 This state for optimization and/or second-order correction.
 Total Energy, E(TD-HF/TD-DFT) =  -113.870818715
 Copying the excited state density for this state as the 1-particle RhoCI density.

 Excited State   2:      Singlet-B2     5.7116 eV  217.08 nm  f=0.0930  <S**2>=0.000
       3 -> 11         0.00085
       3 -> 16         0.00032
       3 -> 18         0.00095
       3 -> 24         0.00110
       3 -> 29        -0.00020
       3 -> 42         0.00016
       3 -> 50        -0.00015
       4 ->  9         0.00208
       4 -> 12         0.00602
       4 -> 14         0.00497
       4 -> 15         0.00162
       4 -> 19         0.00370
       4 -> 20         0.00139
       4 -> 21         0.00259
       4 -> 25         0.00133
       4 -> 26        -0.00105
       4 -> 30        -0.00200
       4 -> 31         0.00049
       4 -> 34         0.00042
       4 -> 38        -0.00081
       4 -> 39         0.00011
       4 -> 41         0.00047
       4 -> 44         0.00042
       4 -> 45        -0.00059
       4 -> 48         0.00038
       5 -> 27         0.00116
       5 -> 35         0.00035
       5 -> 46         0.00087
       6 -> 11        -0.00665
       6 -> 16         0.00134
       6 -> 18         0.00099
       6 -> 23        -0.00225
       6 -> 24         0.00411
       6 -> 29        -0.00069
       6 -> 33        -0.00104
       6 -> 36         0.00086
       6 -> 40        -0.00014
       6 -> 42         0.00044
       7 -> 11         0.00273
       7 -> 16         0.00355
       7 -> 18         0.00344
       7 -> 23        -0.00193
       7 -> 24         0.00251
       7 -> 29         0.00016
       7 -> 36        -0.00026
       7 -> 42        -0.00037
       7 -> 47         0.00042
       7 -> 50         0.00048
       7 -> 53        -0.00010
       8 ->  9         0.70622
       8 -> 12         0.00931
       8 -> 14        -0.02440
       8 -> 15         0.01121
       8 -> 19         0.02061
       8 -> 20        -0.00742
       8 -> 21        -0.00831
       8 -> 25         0.00061
       8 -> 26        -0.00043
       8 -> 30         0.00014
       8 -> 31         0.00302
       8 -> 34         0.00145
       8 -> 38         0.00093
       8 -> 39        -0.00050
       8 -> 41        -0.00048
       8 -> 44        -0.00014
       8 -> 45        -0.00107
       8 -> 48         0.00036
       8 -> 54        -0.00013
       3 <- 11         0.00029
       3 <- 18         0.00059
       3 <- 24         0.00081
       3 <- 29        -0.00019
       3 <- 42         0.00013
       3 <- 53         0.00011
       4 <-  9         0.00195
       4 <- 12        -0.00014
       4 <- 14         0.00396
       4 <- 15         0.00180
       4 <- 19         0.00093
       4 <- 20         0.00054
       4 <- 21         0.00167
       4 <- 25         0.00162
       4 <- 26        -0.00125
       4 <- 30        -0.00073
       4 <- 34         0.00020
       4 <- 38        -0.00052
       4 <- 39         0.00016
       4 <- 41         0.00045
       4 <- 44         0.00029
       4 <- 45        -0.00053
       4 <- 48         0.00032
       5 <- 27         0.00091
       5 <- 35         0.00027
       5 <- 46         0.00074
       6 <- 11        -0.00027
       6 <- 16         0.00134
       6 <- 18         0.00216
       6 <- 23        -0.00129
       6 <- 24         0.00318
       6 <- 29        -0.00056
       6 <- 33        -0.00080
       6 <- 36         0.00066
       6 <- 40        -0.00017
       6 <- 42         0.00021
       7 <- 11         0.00072
       7 <- 16         0.00219
       7 <- 18         0.00111
       7 <- 23        -0.00078
       7 <- 24         0.00119
       7 <- 29         0.00079
       7 <- 42        -0.00032
       7 <- 47         0.00040
       7 <- 50         0.00054
       8 <-  9        -0.00488
       8 <- 12         0.00255
       8 <- 14        -0.01404
       8 <- 15        -0.00268
       8 <- 19        -0.00120
       8 <- 20         0.00020
       8 <- 21        -0.00438
       8 <- 25        -0.00314
       8 <- 26        -0.00064
       8 <- 30         0.00048
       8 <- 31         0.00166
       8 <- 34         0.00153
       8 <- 38         0.00091
       8 <- 39        -0.00041
       8 <- 41        -0.00033
       8 <- 44        -0.00022
       8 <- 45        -0.00079
       8 <- 48         0.00032

 Excited State   3:      Singlet-B2     6.5124 eV  190.38 nm  f=0.0238  <S**2>=0.000
       3 -> 11         0.00011
       3 -> 16        -0.00062
       3 -> 18         0.00011
       3 -> 23        -0.00020
       3 -> 24        -0.00044
       3 -> 29        -0.00085
       3 -> 33        -0.00014
       3 -> 36         0.00028
       3 -> 42         0.00029
       3 -> 47        -0.00019
       3 -> 50        -0.00020
       3 -> 53         0.00011
       4 ->  9         0.00443
       4 -> 12        -0.00012
       4 -> 14        -0.00257
       4 -> 15        -0.00423
       4 -> 19         0.00295
       4 -> 20        -0.00040
       4 -> 21        -0.00142
       4 -> 25        -0.00089
       4 -> 26        -0.00116
       4 -> 30         0.00076
       4 -> 31         0.00220
       4 -> 34         0.00036
       4 -> 39         0.00083
       4 -> 41         0.00061
       4 -> 45        -0.00061
       4 -> 48         0.00039
       4 -> 51         0.00019
       5 -> 27         0.00090
       5 -> 35         0.00134
       5 -> 46         0.00099
       6 -> 11        -0.00245
       6 -> 16        -0.00471
       6 -> 18        -0.00109
       6 -> 23         0.00127
       6 -> 24        -0.00375
       6 -> 29         0.00131
       6 -> 33        -0.00055
       6 -> 40         0.00027
       6 -> 47        -0.00012
       7 -> 11         0.00288
       7 -> 16         0.00041
       7 -> 18         0.00237
       7 -> 23        -0.00126
       7 -> 24         0.00057
       7 -> 29         0.00012
       7 -> 33         0.00023
       7 -> 36        -0.00114
       7 -> 40         0.00030
       7 -> 42        -0.00060
       7 -> 47         0.00066
       7 -> 50         0.00055
       7 -> 53        -0.00017
       8 ->  9        -0.00951
       8 -> 12         0.70599
       8 -> 14         0.01924
       8 -> 15         0.02443
       8 -> 19         0.01577
       8 -> 20         0.01534
       8 -> 21         0.00340
       8 -> 25        -0.00044
       8 -> 26         0.00064
       8 -> 30        -0.00181
       8 -> 31        -0.00061
       8 -> 34        -0.00036
       8 -> 38         0.00013
       8 -> 39         0.00090
       8 -> 41         0.00117
       8 -> 44        -0.00011
       8 -> 45        -0.00068
       8 -> 48         0.00053
       8 -> 54        -0.00016
       3 <- 11        -0.00020
       3 <- 16        -0.00060
       3 <- 18        -0.00016
       3 <- 24        -0.00049
       3 <- 29        -0.00057
       3 <- 33        -0.00016
       3 <- 36         0.00030
       3 <- 42         0.00025
       3 <- 47        -0.00015
       3 <- 50        -0.00010
       3 <- 53         0.00021
       4 <-  9        -0.00136
       4 <- 12        -0.00016
       4 <- 14        -0.00174
       4 <- 15        -0.00061
       4 <- 19        -0.00064
       4 <- 20         0.00034
       4 <- 21        -0.00102
       4 <- 25        -0.00092
       4 <- 26        -0.00094
       4 <- 30         0.00089
       4 <- 31         0.00091
       4 <- 34         0.00090
       4 <- 39         0.00062
       4 <- 41         0.00061
       4 <- 45        -0.00064
       4 <- 48         0.00026
       4 <- 51         0.00018
       5 <- 27         0.00045
       5 <- 35         0.00111
       5 <- 46         0.00086
       6 <- 11        -0.00020
       6 <- 16        -0.00095
       6 <- 18        -0.00105
       6 <- 23         0.00123
       6 <- 24        -0.00193
       6 <- 29         0.00060
       6 <- 33        -0.00058
       6 <- 36        -0.00024
       6 <- 40         0.00027
       6 <- 50        -0.00018
       7 <- 11         0.00038
       7 <- 16         0.00045
       7 <- 18         0.00020
       7 <- 23        -0.00024
       7 <- 29         0.00043
       7 <- 36        -0.00078
       7 <- 40         0.00024
       7 <- 42        -0.00042
       7 <- 47         0.00058
       7 <- 50         0.00053
       8 <-  9         0.00237
       8 <- 12         0.00139
       8 <- 14         0.00733
       8 <- 15         0.00191
       8 <- 19        -0.00178
       8 <- 20        -0.00218
       8 <- 21         0.00285
       8 <- 25         0.00049
       8 <- 26        -0.00068
       8 <- 30        -0.00130
       8 <- 31        -0.00112
       8 <- 38         0.00029
       8 <- 39         0.00066
       8 <- 41         0.00099
       8 <- 45        -0.00058
       8 <- 48         0.00033
       8 <- 51         0.00011

 Excited State   4:      Singlet-A1     6.6506 eV  186.42 nm  f=0.0366  <S**2>=0.000
       3 ->  9         0.00127
       3 -> 12         0.00075
       3 -> 15         0.00060
       3 -> 19         0.00134
       3 -> 20        -0.00024
       3 -> 21        -0.00038
       3 -> 25         0.00030
       3 -> 30        -0.00102
       3 -> 31        -0.00019
       3 -> 34        -0.00023
       3 -> 38        -0.00033
       3 -> 39        -0.00027
       3 -> 41        -0.00010
       3 -> 48        -0.00013
       3 -> 51        -0.00027
       3 -> 54         0.00020
       4 -> 11         0.00731
       4 -> 16         0.00816
       4 -> 18         0.00611
       4 -> 23         0.00110
       4 -> 24         0.00392
       4 -> 29         0.00070
       4 -> 33        -0.00015
       4 -> 36         0.00097
       4 -> 42        -0.00025
       4 -> 50        -0.00035
       4 -> 53        -0.00012
       5 -> 10         0.00672
       5 -> 13        -0.00290
       5 -> 17         0.00503
       5 -> 22         0.00386
       5 -> 28         0.00083
       5 -> 32         0.00091
       5 -> 37         0.00054
       5 -> 43         0.00043
       5 -> 49        -0.00036
       6 ->  9         0.00579
       6 -> 12        -0.01084
       6 -> 14         0.00619
       6 -> 15         0.00259
       6 -> 19         0.00140
       6 -> 20        -0.00682
       6 -> 21         0.00171
       6 -> 25         0.00678
       6 -> 26        -0.00097
       6 -> 30         0.00088
       6 -> 31        -0.00085
       6 -> 34        -0.00112
       6 -> 38        -0.00040
       6 -> 39         0.00099
       6 -> 41         0.00010
       6 -> 44         0.00021
       6 -> 45        -0.00030
       6 -> 48        -0.00031
       7 ->  9         0.01287
       7 -> 12         0.00559
       7 -> 14         0.00234
       7 -> 15        -0.00104
       7 -> 19         0.00832
       7 -> 20        -0.00229
       7 -> 21         0.00063
       7 -> 25         0.00179
       7 -> 26         0.00027
       7 -> 30        -0.00034
       7 -> 31         0.00071
       7 -> 34        -0.00097
       7 -> 38        -0.00012
       7 -> 39         0.00023
       7 -> 48        -0.00022
       7 -> 51         0.00039
       8 -> 11         0.70538
       8 -> 16         0.04371
       8 -> 18        -0.00646
       8 -> 23         0.00275
       8 -> 24         0.00187
       8 -> 29         0.00364
       8 -> 33         0.00159
       8 -> 36        -0.00265
       8 -> 40         0.00016
       8 -> 42         0.00151
       8 -> 47        -0.00051
       8 -> 53        -0.00010
       3 <-  9         0.00057
       3 <- 12         0.00031
       3 <- 15         0.00031
       3 <- 19         0.00077
       3 <- 21        -0.00016
       3 <- 25         0.00032
       3 <- 30        -0.00061
       3 <- 31        -0.00017
       3 <- 34        -0.00019
       3 <- 38        -0.00024
       3 <- 39        -0.00024
       3 <- 41        -0.00012
       3 <- 48        -0.00015
       3 <- 51        -0.00023
       3 <- 54         0.00018
       4 <- 11         0.00260
       4 <- 16         0.00265
       4 <- 18         0.00313
       4 <- 23         0.00098
       4 <- 24         0.00211
       4 <- 29         0.00027
       4 <- 33        -0.00027
       4 <- 36         0.00084
       4 <- 42        -0.00022
       4 <- 50        -0.00028
       4 <- 53        -0.00011
       5 <- 10         0.00266
       5 <- 13        -0.00125
       5 <- 17         0.00245
       5 <- 22         0.00237
       5 <- 28         0.00053
       5 <- 32         0.00070
       5 <- 37         0.00045
       5 <- 43         0.00037
       5 <- 49        -0.00032
       6 <-  9         0.00603
       6 <- 12        -0.00410
       6 <- 14         0.00468
       6 <- 15         0.00237
       6 <- 19         0.00099
       6 <- 20        -0.00384
       6 <- 21         0.00036
       6 <- 25         0.00420
       6 <- 26        -0.00045
       6 <- 30         0.00022
       6 <- 31        -0.00104
       6 <- 34        -0.00090
       6 <- 38        -0.00050
       6 <- 39         0.00080
       6 <- 44         0.00027
       6 <- 45        -0.00026
       6 <- 48        -0.00025
       7 <-  9         0.00454
       7 <- 12         0.00149
       7 <- 14         0.00112
       7 <- 15        -0.00040
       7 <- 19         0.00370
       7 <- 20        -0.00141
       7 <- 21         0.00014
       7 <- 25         0.00110
       7 <- 30        -0.00036
       7 <- 31         0.00045
       7 <- 34        -0.00067
       7 <- 38        -0.00016
       7 <- 39         0.00030
       7 <- 45        -0.00013
       7 <- 48        -0.00011
       7 <- 51         0.00036
       8 <- 11        -0.00431
       8 <- 16         0.00508
       8 <- 18        -0.01175
       8 <- 23        -0.00141
       8 <- 24        -0.00165
       8 <- 29         0.00199
       8 <- 33         0.00125
       8 <- 36        -0.00193
       8 <- 42         0.00121
       8 <- 47        -0.00056
       8 <- 53        -0.00012

 Excited State   5:      Singlet-A2     7.5985 eV  163.17 nm  f=0.0000  <S**2>=0.000
       3 -> 27         0.00207
       3 -> 35         0.00165
       3 -> 46         0.00077
       4 -> 10         0.00695
       4 -> 13         0.00937
       4 -> 17        -0.00129
       4 -> 22        -0.00208
       4 -> 28         0.00049
       4 -> 32         0.00220
       4 -> 37         0.00281
       4 -> 43         0.00032
       4 -> 49        -0.00010
       4 -> 52         0.00046
       5 -> 11         0.00012
       5 -> 16        -0.00185
       5 -> 18        -0.00034
       5 -> 23         0.00151
       5 -> 29        -0.00038
       5 -> 33         0.00011
       5 -> 36         0.00043
       5 -> 42         0.00045
       5 -> 47         0.00044
       5 -> 53         0.00019
       6 -> 27         0.00146
       6 -> 35        -0.00080
       6 -> 46        -0.00026
       7 -> 27         0.00038
       7 -> 35        -0.00017
       7 -> 46         0.00082
       8 -> 10        -0.11133
       8 -> 13         0.69769
       8 -> 17         0.01319
       8 -> 22        -0.02380
       8 -> 28         0.00245
       8 -> 32         0.00189
       8 -> 37        -0.00156
       8 -> 43        -0.00017
       8 -> 49        -0.00013
       8 -> 52         0.00051
       3 <- 27         0.00131
       3 <- 35         0.00136
       3 <- 46         0.00087
       4 <- 10         0.00033
       4 <- 13         0.00048
       4 <- 17        -0.00039
       4 <- 32        -0.00041
       4 <- 37         0.00096
       4 <- 43         0.00029
       4 <- 52         0.00014
       5 <- 11         0.00036
       5 <- 16        -0.00043
       5 <- 18        -0.00090
       5 <- 23         0.00279
       5 <- 24        -0.00084
       5 <- 29         0.00019
       5 <- 33        -0.00077
       5 <- 36         0.00146
       5 <- 42         0.00080
       5 <- 47         0.00021
       5 <- 53         0.00042
       6 <- 27         0.00202
       6 <- 35        -0.00016
       6 <- 46        -0.00032
       7 <- 27         0.00058
       7 <- 35        -0.00027
       7 <- 46         0.00044
       8 <- 10        -0.00727
       8 <- 13        -0.00249
       8 <- 17        -0.00142
       8 <- 22         0.00061
       8 <- 28        -0.00031
       8 <- 32         0.00159
       8 <- 37        -0.00128
       8 <- 52         0.00020

 Excited State   6:      Singlet-B2     9.7733 eV  126.86 nm  f=0.2188  <S**2>=0.000
       3 -> 11        -0.00039

 The electronic state is 1-A1.
 Alpha  occ. eigenvalues --  -19.14046 -10.23736  -1.29289  -0.63540  -0.59066
 Alpha  occ. eigenvalues --   -0.58963  -0.52937  -0.23446
 Alpha virt. eigenvalues --    0.01376   0.02088   0.04430   0.04447   0.09942
 Alpha virt. eigenvalues --    0.14305   0.17690   0.20162   0.21820   0.23848
 Alpha virt. eigenvalues --    0.25723   0.36453   0.50314   0.53348   0.54541

 Mulliken charges:
               1
     1  C    0.256571
     2  H   -0.016735
     3  H   -0.016735
     4  O   -0.223100
 Sum of Mulliken charges =  -0.00000

 Dipole moment (field-independent basis, Debye):
    X=              0.0000    Y=              0.0000    Z=             -0.2227  Tot=              0.2227
 Quadrupole moment (field-independent basis, Debye-Ang):
   XX=            -10.6723   YY=            -12.5291   ZZ=            -13.3052
   XY=             -0.0000   XZ=             -0.0000   YZ=              0.0000

 Normal termination of Gaussian 16 at Fri Sep 17 10:52:30 2021.
