 Gaussian 16, Revision A.03,
 Gaussian 16:  ES64L-G16RevA.03 25-Dec-2016

 --------------------------------------------------------------------
 #p B3LYP/6-311+G** #p TD=(singlets,nstates=30)IOp(6/8=3) IOp(9/40=4)
 --------------------------------------------------------------------

 -------------------------------
 Scan Step 19, Bond Length 0.595
 -------------------------------
 Symbolic Z-matrix:
 Charge =  0 Multiplicity = 1

                         Standard orientation:
 ---------------------------------------------------------------------
 Center     Atomic      Atomic             Coordinates (Angstroms)
 Number     Number       Type             X           Y           Z
 ---------------------------------------------------------------------
      1          6           0        0.000000    0.000000   -0.223581
      2          1           0        0.000000    0.937260   -0.814931
      3          1           0       -0.000000   -0.937260   -0.814931
      4          8           0        0.000000   -0.000000    0.371419
 ---------------------------------------------------------------------

 SCF Done:  E(RB3LYP) =  -111.464655051     A.U. after   10 cycles

 Excitation energies and oscillator strengths:

 Excited State   1:      Singlet-B2     4.5035 eV  275.31 nm  f=0.1408  <S**2>=0.000
       3 -> 11         0.00075
       3 -> 15         0.00096
       3 -> 19         0.00075
       3 -> 22         0.00081
       3 -> 25         0.00120
       3 -> 29         0.00013
       3 -> 31        -0.00027
       3 -> 40        -0.00039
       3 -> 43         0.00023
       3 -> 54         0.00016
       4 ->  9        -0.00260
       4 -> 12         0.00205
       4 -> 13         0.00308
       4 -> 16         0.00132
       4 -> 18         0.00208
       4 -> 20         0.00210
       4 -> 21         0.00157
       4 -> 24         0.00125
       4 -> 26        -0.00076
       4 -> 30         0.00131
       4 -> 32         0.00120
       4 -> 33        -0.00012
       4 -> 38        -0.00055
       4 -> 42         0.00045
       4 -> 44        -0.00026
       4 -> 47         0.00072
       4 -> 49        -0.00011
       4 -> 53        -0.00016
       5 -> 28         0.00205
       5 -> 35         0.00093
       5 -> 45         0.00071
       6 -> 11        -0.00665
       6 -> 15         0.00304
       6 -> 19        -0.00065
       6 -> 22        -0.00015
       6 -> 25         0.00425
       6 -> 29         0.00083
       6 -> 31        -0.00067
       6 -> 40        -0.00015
       6 -> 43         0.00016
       6 -> 46         0.00031
       7 -> 11         0.00897
       7 -> 15         0.00420
       7 -> 19         0.00369
       7 -> 22         0.00049
       7 -> 25         0.00134
       7 -> 29        -0.00114
       7 -> 31         0.00100
       7 -> 37        -0.00065
       7 -> 43        -0.00035
       7 -> 46         0.00043
       7 -> 50         0.00042
       7 -> 54        -0.00013
       8 ->  9         0.70462
       8 -> 12        -0.00344
       8 -> 13         0.05885
       8 -> 16        -0.00512
       8 -> 18        -0.02317
       8 -> 20         0.00558
       8 -> 21         0.01112
       8 -> 24        -0.00035
       8 -> 26        -0.00084
       8 -> 30        -0.00344
       8 -> 32        -0.00202
       8 -> 33        -0.00052
       8 -> 38        -0.00104
       8 -> 39        -0.00014
       8 -> 42         0.00075
       8 -> 44         0.00047
       8 -> 47        -0.00062
       8 -> 49         0.00026
       3 <- 11         0.00036
       3 <- 15         0.00060
       3 <- 19         0.00047
       3 <- 22         0.00068
       3 <- 25         0.00091
       3 <- 31        -0.00029
       3 <- 40        -0.00038
       3 <- 43         0.00024
       3 <- 54         0.00017
       4 <-  9        -0.00104
       4 <- 12        -0.00016
       4 <- 13         0.00253
       4 <- 16         0.00151
       4 <- 18         0.00023
       4 <- 20         0.00134
       4 <- 21         0.00129
       4 <- 24         0.00083
       4 <- 26        -0.00131
       4 <- 30         0.00100
       4 <- 32         0.00053
       4 <- 38        -0.00037
       4 <- 39         0.00014
       4 <- 42         0.00036
       4 <- 44        -0.00022
       4 <- 47         0.00065
       5 <- 28         0.00176
       5 <- 35         0.00076
       5 <- 45         0.00060
       6 <- 11        -0.00190
       6 <- 15         0.00298
       6 <- 22         0.00038
       6 <- 25         0.00324
       6 <- 29         0.00040
       6 <- 31        -0.00060
       6 <- 37         0.00012
       6 <- 40        -0.00014
       6 <- 43         0.00013
       6 <- 46         0.00028
       7 <- 11         0.00219
       7 <- 15         0.00189
       7 <- 19         0.00082
       7 <- 22         0.00019
       7 <- 25         0.00063
       7 <- 29        -0.00173
       7 <- 31         0.00085
       7 <- 37        -0.00040
       7 <- 43        -0.00024
       7 <- 46         0.00046
       7 <- 50         0.00050
       8 <-  9        -0.01193
       8 <- 12        -0.00687
       8 <- 13         0.02415
       8 <- 16         0.00742
       8 <- 18         0.00052
       8 <- 20         0.00117
       8 <- 21         0.00586
       8 <- 24         0.00285
       8 <- 26        -0.00060
       8 <- 30        -0.00233
       8 <- 32        -0.00161
       8 <- 33        -0.00100
       8 <- 38        -0.00101
       8 <- 39        -0.00017
       8 <- 42         0.00068
       8 <- 44         0.00018
       8 <- 47        -0.00055
       8 <- 49         0.00017
 This state for optimization and/or second-order correction.
 Total Energy, E(TD-HF/TD-DFT) =  -111.299154448
 Copying the excited state density for this state as the 1-particle RhoCI density.

 Excited State   2:      Singlet-A2     4.8777 eV  254.18 nm  f=0.0000  <S**2>=0.000
       3 -> 28        -0.00190
       3 -> 35        -0.00104
       3 -> 45        -0.00032
       4 -> 10        -0.00077
       4 -> 14        -0.00049
       4 -> 17         0.00254
       4 -> 23        -0.00085
       4 -> 27        -0.00199
       4 -> 34         0.00022
       4 -> 36        -0.00112
       4 -> 48        -0.00014
       4 -> 52        -0.00021
       5 -> 11         0.00020
       5 -> 15        -0.00020
       5 -> 19         0.00032
       5 -> 22        -0.00072
       5 -> 25         0.00024
       5 -> 29         0.00033
       5 -> 37        -0.00031
       5 -> 40         0.00014
       5 -> 43        -0.00036
       5 -> 46        -0.00028
       5 -> 50         0.00017
       6 -> 28        -0.00312
       6 -> 35         0.00062
       6 -> 45         0.00013
       7 -> 28         0.00161
       7 -> 35        -0.00031
       7 -> 45        -0.00031
       8 -> 10         0.70661
       8 -> 14        -0.00818
       8 -> 17        -0.02610
       8 -> 23        -0.00365
       8 -> 27         0.00040
       8 -> 34         0.00340
       8 -> 36        -0.00157
       8 -> 41         0.00051
       8 -> 48         0.00015
       8 -> 52         0.00029
       3 <- 28        -0.00159
       3 <- 35        -0.00090
       3 <- 45        -0.00031
       4 <- 10        -0.00020
       4 <- 14         0.00038
       4 <- 17         0.00081
       4 <- 23        -0.00014
       4 <- 27        -0.00047
       4 <- 34         0.00066
       4 <- 36        -0.00067
       4 <- 41        -0.00013
       5 <- 11         0.00048
       5 <- 15        -0.00048
       5 <- 19         0.00112
       5 <- 22        -0.00091
       5 <- 25         0.00078
       5 <- 29         0.00122
       5 <- 31         0.00013
       5 <- 37        -0.00059
       5 <- 40         0.00010
       5 <- 43        -0.00040
       5 <- 46        -0.00031
       5 <- 54        -0.00019
       6 <- 28        -0.00303
       6 <- 35         0.00076
       6 <- 45         0.00011
       7 <- 28         0.00163
       7 <- 35        -0.00043
       7 <- 45        -0.00034
       8 <- 10         0.00264
       8 <- 14         0.00292
       8 <- 17         0.00724
       8 <- 23        -0.00016
       8 <- 27        -0.00074
       8 <- 34         0.00324
       8 <- 36        -0.00126
       8 <- 41         0.00029
       8 <- 52         0.00012

 Excited State   3:      Singlet-B2     5.5567 eV  223.12 nm  f=0.0377  <S**2>=0.000
       3 -> 11        -0.00022
       3 -> 15         0.00042
       3 -> 19        -0.00042
       3 -> 22         0.00028
       3 -> 25         0.00016
       3 -> 29        -0.00020
       3 -> 31         0.00013
       3 -> 37        -0.00017
       3 -> 40         0.00018
       3 -> 43        -0.00018
       3 -> 54        -0.00019
       4 ->  9         0.00102
       4 -> 12         0.00019
       4 -> 13         0.00094
       4 -> 16         0.00184
       4 -> 18        -0.00089
       4 -> 20        -0.00058
       4 -> 21         0.00098
       4 -> 24         0.00089
       4 -> 26         0.00025
       4 -> 30        -0.00208
       4 -> 32        -0.00018
       4 -> 38         0.00040
       4 -> 39        -0.00092
       4 -> 42        -0.00030
       4 -> 47        -0.00042
       5 -> 28        -0.00100
       5 -> 35        -0.00113
       5 -> 45        -0.00060
       6 -> 11        -0.00084
       6 -> 15         0.00376
       6 -> 19        -0.00200
       6 -> 22        -0.00021
       6 -> 25         0.00156
       6 -> 29         0.00209
       6 -> 31         0.00047
       6 -> 37         0.00054
       6 -> 40         0.00041
       6 -> 43         0.00028
       6 -> 46        -0.00026
       6 -> 50        -0.00022
       6 -> 54         0.00015
       7 -> 11        -0.00127
       7 -> 15        -0.00417
       7 -> 19        -0.00102
       7 -> 25        -0.00303
       7 -> 29        -0.00112
       7 -> 31        -0.00048
       7 -> 37         0.00050
       7 -> 40         0.00010
       7 -> 46        -0.00056
       7 -> 50        -0.00026
       7 -> 54         0.00016
       8 ->  9         0.00094
       8 -> 12         0.70548
       8 -> 13         0.03892
       8 -> 16         0.02573
       8 -> 18         0.00449
       8 -> 20         0.01566
       8 -> 21         0.00544
       8 -> 24        -0.00098
       8 -> 26         0.00201
       8 -> 30        -0.00299
       8 -> 32         0.00052
       8 -> 33        -0.00017
       8 -> 38        -0.00072
       8 -> 39         0.00137
       8 -> 42         0.00091
       8 -> 44        -0.00015
       8 -> 47         0.00026
       8 -> 53        -0.00015
       3 <- 15         0.00036
       3 <- 19        -0.00015
       3 <- 22         0.00013
       3 <- 25         0.00025
       3 <- 31         0.00014
       3 <- 37        -0.00019
       3 <- 40         0.00015
       3 <- 43        -0.00017
       3 <- 54        -0.00023
       4 <-  9        -0.00105
       4 <- 12        -0.00020
       4 <- 13         0.00104
       4 <- 16         0.00066
       4 <- 18         0.00052
       4 <- 20        -0.00039
       4 <- 21         0.00068
       4 <- 24         0.00096
       4 <- 26         0.00037
       4 <- 30        -0.00141
       4 <- 33        -0.00054
       4 <- 38         0.00026
       4 <- 39        -0.00066
       4 <- 42        -0.00032
       4 <- 47        -0.00039
       5 <- 28        -0.00063
       5 <- 35        -0.00099
       5 <- 45        -0.00054
       6 <- 11        -0.00067
       6 <- 15         0.00077
       6 <- 19         0.00014
       6 <- 22        -0.00056
       6 <- 25         0.00147
       6 <- 29         0.00163
       6 <- 31         0.00065
       6 <- 37         0.00051
       6 <- 40         0.00033
       6 <- 43         0.00021
       6 <- 46        -0.00022
       6 <- 50        -0.00017
       6 <- 54         0.00012
       7 <- 11         0.00029
       7 <- 15        -0.00138
       7 <- 19        -0.00055
       7 <- 25        -0.00186
       7 <- 29        -0.00031
       7 <- 31        -0.00038
       7 <- 37         0.00017
       7 <- 46        -0.00050
       7 <- 50        -0.00034
       8 <-  9        -0.00630
       8 <- 12         0.00075
       8 <- 13         0.01235
       8 <- 16         0.00482
       8 <- 18        -0.00148
       8 <- 20        -0.00324
       8 <- 21         0.00325
       8 <- 24         0.00059
       8 <- 30        -0.00240
       8 <- 32         0.00053
       8 <- 33        -0.00019
       8 <- 38        -0.00056
       8 <- 39         0.00126
       8 <- 42         0.00079
       8 <- 44        -0.00011
       8 <- 47         0.00022

 Excited State   4:      Singlet-A1     5.7782 eV  214.57 nm  f=0.0012  <S**2>=0.000
       3 ->  9         0.00150
       3 -> 12        -0.00037
       3 -> 13         0.00019
       3 -> 16        -0.00093
       3 -> 18        -0.00173
       3 -> 20        -0.00015
       3 -> 21         0.00098
       3 -> 24        -0.00098
       3 -> 26        -0.00036
       3 -> 30         0.00065
       3 -> 32        -0.00077
       3 -> 33         0.00067
       3 -> 38         0.00048
       3 -> 39         0.00033
       3 -> 44        -0.00017
       3 -> 51        -0.00017
       3 -> 53         0.00010
       4 -> 11        -0.00561
       4 -> 15        -0.00520
       4 -> 19        -0.00477
       4 -> 22        -0.00269
       4 -> 25        -0.00322
       4 -> 29        -0.00048
       4 -> 37        -0.00093
       4 -> 40        -0.00014
       4 -> 43         0.00020
       4 -> 46        -0.00011
       4 -> 50         0.00010
       5 -> 10        -0.00248
       5 -> 14        -0.00395
       5 -> 17         0.00108
       5 -> 23         0.00367
       5 -> 27        -0.00046
       5 -> 34        -0.00075
       5 -> 36        -0.00058
       5 -> 48         0.00012
       6 ->  9         0.01114
       6 -> 12         0.00693
       6 -> 13        -0.00341
       6 -> 16        -0.00567
       6 -> 18        -0.00645
       6 -> 20         0.00387
       6 -> 21         0.00232
       6 -> 24        -0.00525
       6 -> 26         0.00151
       6 -> 30        -0.00041
       6 -> 32         0.00264
       6 -> 33         0.00174
       6 -> 38         0.00160
       6 -> 39        -0.00109
       6 -> 42        -0.00027
       6 -> 44         0.00082
       6 -> 47         0.00018
       6 -> 49        -0.00039
       6 -> 51        -0.00012
       7 ->  9         0.00887
       7 -> 12        -0.01219
       7 -> 13        -0.00031
       7 -> 16         0.00614
       7 -> 18        -0.00854
       7 -> 20        -0.00355
       7 -> 21        -0.00180
       7 -> 24         0.00058
       7 -> 26        -0.00390
       7 -> 30        -0.00093
       7 -> 32        -0.00153
       7 -> 33         0.00054
       7 -> 38        -0.00098
       7 -> 39         0.00044
       7 -> 42         0.00017
       7 -> 44        -0.00031
       7 -> 51         0.00014
       8 -> 11         0.70441
       8 -> 15         0.05620
       8 -> 19        -0.02245
       8 -> 22        -0.00127
       8 -> 25         0.00944
       8 -> 29        -0.00291
       8 -> 31         0.00218
       8 -> 37        -0.00355
       8 -> 40        -0.00066
       8 -> 43         0.00189
       8 -> 46        -0.00111
       8 -> 50         0.00023
       3 <-  9         0.00090
       3 <- 12        -0.00016
       3 <- 13         0.00016
       3 <- 16        -0.00062
       3 <- 18        -0.00112
       3 <- 21         0.00071
       3 <- 24        -0.00073
       3 <- 26        -0.00028
       3 <- 30         0.00053
       3 <- 32        -0.00055
       3 <- 33         0.00055
       3 <- 38         0.00039
       3 <- 39         0.00027
       3 <- 44        -0.00015
       3 <- 47         0.00011
       3 <- 51        -0.00015
       4 <- 11        -0.00249
       4 <- 15        -0.00224
       4 <- 19        -0.00285
       4 <- 22        -0.00189
       4 <- 25        -0.00185
       4 <- 29        -0.00036
       4 <- 37        -0.00078
       4 <- 40        -0.00014
       4 <- 43         0.00019
       5 <- 10        -0.00149
       5 <- 14        -0.00246
       5 <- 17         0.00070
       5 <- 23         0.00265
       5 <- 27        -0.00034
       5 <- 34        -0.00063
       5 <- 36        -0.00050
       5 <- 48         0.00011
       6 <-  9         0.00821
       6 <- 12         0.00355
       6 <- 13        -0.00283
       6 <- 16        -0.00428
       6 <- 18        -0.00342
       6 <- 20         0.00203
       6 <- 21         0.00245
       6 <- 24        -0.00359
       6 <- 26         0.00105
       6 <- 32         0.00198
       6 <- 33         0.00124
       6 <- 38         0.00152
       6 <- 39        -0.00080
       6 <- 42        -0.00025
       6 <- 44         0.00078
       6 <- 49        -0.00034
       6 <- 51        -0.00013
       7 <-  9         0.00059
       7 <- 12        -0.00497
       7 <- 13         0.00091
       7 <- 16         0.00410
       7 <- 18        -0.00411
       7 <- 20        -0.00157
       7 <- 21        -0.00160
       7 <- 24         0.00050
       7 <- 26        -0.00267
       7 <- 30        -0.00083
       7 <- 32        -0.00117
       7 <- 33         0.00042
       7 <- 38        -0.00086
       7 <- 39         0.00021
       7 <- 44        -0.00030
       7 <- 47        -0.00010
       7 <- 51         0.00013
       8 <- 11        -0.01346
       8 <- 15         0.00516
       8 <- 19        -0.01665
       8 <- 22        -0.00451
       8 <- 25         0.00501
       8 <- 29        -0.00227
       8 <- 31         0.00199
       8 <- 37        -0.00286
       8 <- 40        -0.00032
       8 <- 43         0.00153
       8 <- 46        -0.00103
       8 <- 50         0.00024

 Excited State   5:      Singlet-A2     8.4198 eV  147.25 nm  f=0.0000  <S**2>=0.000
       3 -> 28         0.00221
       3 -> 35         0.00126
       3 -> 45         0.00035
       4 -> 10        -0.00071
       4 -> 14        -0.00499
       4 -> 17        -0.00176
       4 -> 23         0.00283
       4 -> 27         0.00039
       4 -> 34         0.00046
       4 -> 36         0.00185
       4 -> 41        -0.00023
       4 -> 52         0.00017
       5 -> 19        -0.00044
       5 -> 22         0.00098
       5 -> 25        -0.00069
       5 -> 29        -0.00016
       5 -> 37         0.00035
       5 -> 40        -0.00017
       5 -> 43         0.00050
       5 -> 46         0.00032
       5 -> 50        -0.00011
       6 -> 28         0.00237
       6 -> 35        -0.00064
       7 -> 28        -0.00141
       7 -> 35         0.00023
       7 -> 45         0.00029
       8 -> 10         0.01074
       8 -> 14         0.70297
       8 -> 17         0.07359
       8 -> 23        -0.01696
       8 -> 27        -0.00169
       8 -> 34        -0.00259
       8 -> 36         0.00257
       8 -> 41        -0.00024
       8 -> 52        -0.00029
       3 <- 28         0.00156
       3 <- 35         0.00101
       3 <- 45         0.00038
       4 <- 10         0.00029
       4 <- 14        -0.00039
       4 <- 17        -0.00065
       4 <- 23         0.00023
       4 <- 27         0.00031
       4 <- 34        -0.00052
       4 <- 36         0.00073
       4 <- 41         0.00016
       5 <- 11         0.00043
       5 <- 19        -0.00013
       5 <- 22         0.00109
       5 <- 25        -0.00120
       5 <- 29        -0.00026
       5 <- 31        -0.00041
       5 <- 37         0.00081
       5 <- 43         0.00053
       5 <- 54         0.00017
       6 <- 28         0.00244
       6 <- 35        -0.00060
       6 <- 45        -0.00015
       7 <- 28        -0.00119
       7 <- 45         0.00011
       8 <- 10         0.00352
       8 <- 14        -0.00089
       8 <- 17        -0.00468
       8 <- 23         0.00082
       8 <- 27         0.00037
       8 <- 34        -0.00285
       8 <- 36         0.00124
       8 <- 41        -0.00024
       8 <- 52        -0.00012

 Excited State   6:      Singlet-B2     8.7902 eV  141.05 nm  f=0.1197  <S**2>=0.000
       3 -> 11         0.00058

 The electronic state is 1-A1.
 Alpha  occ. eigenvalues --  -19.28402 -10.45254  -1.25807  -0.88960  -0.86322
 Alpha  occ. eigenvalues --   -0.58094  -0.52005  -0.19656
 Alpha virt. eigenvalues --    0.00232   0.02540   0.04425   0.04708   0.14180
 Alpha virt. eigenvalues --    0.16188   0.17629   0.18087   0.21946   0.22101
 Alpha virt. eigenvalues --    0.28475   0.36639   0.50651   0.57513   0.61337

 Mulliken charges:
               1
     1  C    0.203566
     2  H   -0.127862
     3  H   -0.127862
     4  O    0.052158
 Sum of Mulliken charges =   0.00000

 Dipole moment (field-independent basis, Debye):
    X=              0.0000    Y=              0.0000    Z=              1.5933  Tot=              1.5933
 Quadrupole moment (field-independent basis, Debye-Ang):
   XX=            -10.0507   YY=            -14.2078   ZZ=            -13.7222
   XY=             -0.0000   XZ=             -0.0000   YZ=             -0.0000

 Normal termination of Gaussian 16 at Fri Sep 17 10:52:17 2021.
