 Gaussian 16, Revision C.01,
 Gaussian 16:  ES64L-G16RevC.01  3-Jul-2019

 ----------------------------------------
 #P wB97XD/6-311+G* NoSymm #P Field=X-126
 ----------------------------------------

 -------
 TitleMe
 -------
 Symbolic Z-matrix:
 Charge =  1 Multiplicity = 1

                          Input orientation:
 ---------------------------------------------------------------------
 Center     Atomic      Atomic             Coordinates (Angstroms)
 Number     Number       Type             X           Y           Z
 ---------------------------------------------------------------------
      1          6           0        0.029500    1.339700    0.068200
      2          6           0        1.434800    1.286700    0.006400
      3          6           0        2.111800    0.051100   -0.005400
      4          6           0        1.445100   -1.137200    0.031200
      5          6           0       -0.687900    0.168200    0.110000
      6          1           0       -0.471300    2.298400    0.078100
      7          1           0        2.027300    2.196500   -0.032200
      8          1           0        1.989700   -2.076400    0.023200
      9          1           0       -1.771600    0.180400    0.158200
     10          7           0        3.586400    0.051000   -0.067500
     11          8           0        4.147100   -1.059700   -0.088100
     12          8           0        4.145000    1.163900   -0.090100
     13          6           0       -0.023600   -1.145800    0.083500
     14          1           0       -0.436700   -1.872500    0.788900
     15         35           0       -0.535900   -1.869700   -1.740800
 ---------------------------------------------------------------------

 SCF Done:  E(RwB97XD) =  -3010.54057670     A.U. after   21 cycles

 Alpha  occ. eigenvalues -- -483.30379 -62.85422 -56.65090 -56.64553 -56.64550
 Alpha  occ. eigenvalues --  -19.39319 -19.39250 -14.78931 -10.57153 -10.55274
 Alpha  occ. eigenvalues --  -10.55114 -10.54280 -10.53894 -10.51662  -9.01241
 Alpha  occ. eigenvalues --   -6.83849  -6.82085  -6.82072  -2.93771  -2.93301
 Alpha  occ. eigenvalues --   -2.93288  -2.91877  -2.91876  -1.43079  -1.25976
 Alpha  occ. eigenvalues --   -1.20523  -1.11847  -1.09589  -1.03033  -0.97454
 Alpha  occ. eigenvalues --   -0.93428  -0.88313  -0.82379  -0.78198  -0.76912
 Alpha  occ. eigenvalues --   -0.75401  -0.74490  -0.73389  -0.70437  -0.69437
 Alpha  occ. eigenvalues --   -0.67487  -0.65333  -0.61637  -0.58457  -0.55879
 Alpha  occ. eigenvalues --   -0.53949  -0.50294  -0.49012  -0.48777
 Alpha virt. eigenvalues --   -0.27856  -0.17152  -0.14456  -0.11577  -0.09702
 Alpha virt. eigenvalues --   -0.08086  -0.06565  -0.05978  -0.03366  -0.02435
 Alpha virt. eigenvalues --   -0.01931  -0.00736  -0.00638  -0.00245   0.00360

 Mulliken charges:
               1
     1  C   -0.540215
     2  C    0.456671
     3  C   -0.665037
     4  C    0.325257
     5  C   -0.026296
     6  H    0.307427
     7  H    0.388144
     8  H    0.392054
     9  H    0.291657
    10  N   -0.114306
    11  O    0.089394
    12  O    0.086802
    13  C   -0.483546
    14  H    0.383446
    15  Br   0.108547
 Sum of Mulliken charges =   1.00000

 Dipole moment (field-independent basis, Debye):
    X=              2.9586    Y=             -0.1687    Z=              0.2815  Tot=              2.9767
 Quadrupole moment (field-independent basis, Debye-Ang):
   XX=            -62.5618   YY=            -52.4366   ZZ=            -63.5836
   XY=              0.6508   XZ=              0.1329   YZ=              0.8023

 Normal termination of Gaussian 16 at Wed May  1 14:48:39 2024.
