 Gaussian 16, Revision C.01,
 Gaussian 16:  ES64L-G16RevC.01  3-Jul-2019

 ----------------------------------------
 #P wB97XD/6-311+G* NoSymm #P Field=Y+233
 ----------------------------------------

 -------
 TitleMe
 -------
 Symbolic Z-matrix:
 Charge =  1 Multiplicity = 1

                          Input orientation:
 ---------------------------------------------------------------------
 Center     Atomic      Atomic             Coordinates (Angstroms)
 Number     Number       Type             X           Y           Z
 ---------------------------------------------------------------------
      1          6           0        0.029500    1.339700    0.068200
      2          6           0        1.434800    1.286700    0.006400
      3          6           0        2.111800    0.051100   -0.005400
      4          6           0        1.445100   -1.137200    0.031200
      5          6           0       -0.687900    0.168200    0.110000
      6          1           0       -0.471300    2.298400    0.078100
      7          1           0        2.027300    2.196500   -0.032200
      8          1           0        1.989700   -2.076400    0.023200
      9          1           0       -1.771600    0.180400    0.158200
     10          7           0        3.586400    0.051000   -0.067500
     11          8           0        4.147100   -1.059700   -0.088100
     12          8           0        4.145000    1.163900   -0.090100
     13          6           0       -0.023600   -1.145800    0.083500
     14          1           0       -0.436700   -1.872500    0.788900
     15         35           0       -0.535900   -1.869700   -1.740800
 ---------------------------------------------------------------------

 SCF Done:  E(RwB97XD) =  -3010.57162706     A.U. after   23 cycles

 Alpha  occ. eigenvalues -- -483.27917 -62.82885 -56.62623 -56.61994 -56.61985
 Alpha  occ. eigenvalues --  -19.45512 -19.45232 -14.84731 -10.57608 -10.56301
 Alpha  occ. eigenvalues --  -10.56147 -10.55278 -10.55151 -10.53818  -8.98648
 Alpha  occ. eigenvalues --   -6.81443  -6.79390  -6.79360  -2.91318  -2.90779
 Alpha  occ. eigenvalues --   -2.90754  -2.89113  -2.89112  -1.49085  -1.32082
 Alpha  occ. eigenvalues --   -1.21619  -1.12545  -1.11082  -1.01716  -1.00343
 Alpha  occ. eigenvalues --   -0.94326  -0.90126  -0.85019  -0.80364  -0.79743
 Alpha  occ. eigenvalues --   -0.79336  -0.77654  -0.75375  -0.74735  -0.71134
 Alpha  occ. eigenvalues --   -0.68266  -0.66655  -0.62364  -0.58709  -0.56773
 Alpha  occ. eigenvalues --   -0.55667  -0.54864  -0.52136  -0.51831
 Alpha virt. eigenvalues --   -0.28297  -0.20332  -0.18787  -0.14920  -0.14516
 Alpha virt. eigenvalues --   -0.11273  -0.09017  -0.08754  -0.06913  -0.04598
 Alpha virt. eigenvalues --   -0.04084  -0.02576  -0.01304  -0.00612  -0.00371

 Mulliken charges:
               1
     1  C   -0.614140
     2  C    0.666736
     3  C   -0.859601
     4  C    0.405544
     5  C   -0.102440
     6  H    0.228684
     7  H    0.274092
     8  H    0.445411
     9  H    0.345188
    10  N   -0.100177
    11  O    0.150835
    12  O   -0.101065
    13  C   -0.541466
    14  H    0.461745
    15  Br   0.340655
 Sum of Mulliken charges =   1.00000

 Dipole moment (field-independent basis, Debye):
    X=             -1.5610    Y=             -7.3661    Z=             -0.9512  Tot=              7.5895
 Quadrupole moment (field-independent basis, Debye-Ang):
   XX=            -72.4030   YY=            -49.6818   ZZ=            -60.7755
   XY=             -6.1621   XZ=              1.8809   YZ=              4.7929

 Normal termination of Gaussian 16 at Wed May  1 15:13:23 2024.
