 Gaussian 16, Revision C.01,
 Gaussian 16:  ES64L-G16RevC.01  3-Jul-2019

 ----------------------------------------
 #P wB97XD/6-311+G* NoSymm #P Field=Z-223
 ----------------------------------------

 -------
 TitleMe
 -------
 Symbolic Z-matrix:
 Charge =  1 Multiplicity = 1

                          Input orientation:
 ---------------------------------------------------------------------
 Center     Atomic      Atomic             Coordinates (Angstroms)
 Number     Number       Type             X           Y           Z
 ---------------------------------------------------------------------
      1          6           0        0.519300    1.233000   -0.031900
      2          6           0        1.944500    1.269200   -0.036700
      3          6           0        2.620400    0.092800   -0.025000
      4          6           0       -0.196000    0.030100    0.001000
      5          1           0       -0.020700    2.174200   -0.043400
      6          1           0        2.482800    2.208900   -0.036100
      7          1           0       -1.277700    0.039900    0.011700
      8          7           0        4.092100    0.095900    0.036600
      9          8           0        4.639300   -1.021700    0.144600
     10          8           0        4.664900    1.198400   -0.023300
     11          6           0        0.494300   -1.167100    0.021000
     12          1           0       -0.032500   -2.114900    0.054500
     13          6           0        1.962900   -1.216500   -0.021100
     14          1           0        2.443600   -1.963100    0.615100
     15         35           0        2.173000   -1.949100   -1.906200
 ---------------------------------------------------------------------

 SCF Done:  E(RwB97XD) =  -3010.54287310     A.U. after   21 cycles

 Alpha  occ. eigenvalues -- -483.35089 -62.90157 -56.69785 -56.69305 -56.69300
 Alpha  occ. eigenvalues --  -19.46888 -19.46820 -14.86330 -10.60551 -10.60263
 Alpha  occ. eigenvalues --  -10.58689 -10.58572 -10.54699 -10.53995  -9.05994
 Alpha  occ. eigenvalues --   -6.88497  -6.86897  -6.86887  -2.98442  -2.98013
 Alpha  occ. eigenvalues --   -2.98005  -2.96723  -2.96722  -1.50540  -1.33484
 Alpha  occ. eigenvalues --   -1.24043  -1.15033  -1.13798  -1.07525  -1.01779
 Alpha  occ. eigenvalues --   -0.96820  -0.91874  -0.85887  -0.81967  -0.81289
 Alpha  occ. eigenvalues --   -0.80919  -0.79120  -0.77100  -0.76783  -0.74114
 Alpha  occ. eigenvalues --   -0.69927  -0.68929  -0.65484  -0.62733  -0.60790
 Alpha  occ. eigenvalues --   -0.58265  -0.57868  -0.56630  -0.56347
 Alpha virt. eigenvalues --   -0.32039  -0.21574  -0.20115  -0.17454  -0.14520
 Alpha virt. eigenvalues --   -0.13778  -0.12350  -0.09787  -0.08457  -0.07658
 Alpha virt. eigenvalues --   -0.05683  -0.05386  -0.03270  -0.02693  -0.02067

 Mulliken charges:
               1
     1  C   -0.052874
     2  C    0.086512
     3  C   -0.099643
     4  C   -0.363978
     5  H    0.353053
     6  H    0.358303
     7  H    0.341359
     8  N   -0.199233
     9  O    0.092656
    10  O    0.076459
    11  C   -0.135666
    12  H    0.366911
    13  C   -0.266948
    14  H    0.482842
    15  Br  -0.039754
 Sum of Mulliken charges =   1.00000

 Dipole moment (field-independent basis, Debye):
    X=              2.4906    Y=             -0.0383    Z=              3.2611  Tot=              4.1036
 Quadrupole moment (field-independent basis, Debye-Ang):
   XX=            -67.7729   YY=            -52.5829   ZZ=            -67.7876
   XY=             -1.2542   XZ=              5.7001   YZ=             -1.4717

 Normal termination of Gaussian 16 at Thu May  2 14:21:18 2024.
