 Gaussian 16, Revision C.01,
 Gaussian 16:  ES64L-G16RevC.01  3-Jul-2019

 ---------------------------------------
 #P wB97XD/6-311+G* NoSymm #P Field=Y+58
 ---------------------------------------

 -------
 TitleMe
 -------
 Symbolic Z-matrix:
 Charge =  1 Multiplicity = 1

                          Input orientation:
 ---------------------------------------------------------------------
 Center     Atomic      Atomic             Coordinates (Angstroms)
 Number     Number       Type             X           Y           Z
 ---------------------------------------------------------------------
      1          6           0        0.029500    1.339700    0.068200
      2          6           0        1.434800    1.286700    0.006400
      3          6           0        2.111800    0.051100   -0.005400
      4          6           0        1.445100   -1.137200    0.031200
      5          6           0       -0.687900    0.168200    0.110000
      6          1           0       -0.471300    2.298400    0.078100
      7          1           0        2.027300    2.196500   -0.032200
      8          1           0        1.989700   -2.076400    0.023200
      9          1           0       -1.771600    0.180400    0.158200
     10          7           0        3.586400    0.051000   -0.067500
     11          8           0        4.147100   -1.059700   -0.088100
     12          8           0        4.145000    1.163900   -0.090100
     13          6           0       -0.023600   -1.145800    0.083500
     14          1           0       -0.436700   -1.872500    0.788900
     15         35           0       -0.535900   -1.869700   -1.740800
 ---------------------------------------------------------------------

 SCF Done:  E(RwB97XD) =  -3010.53858556     A.U. after   19 cycles

 Alpha  occ. eigenvalues -- -483.30199 -62.85213 -56.64916 -56.64331 -56.64328
 Alpha  occ. eigenvalues --  -19.45511 -19.45484 -14.85027 -10.57346 -10.57315
 Alpha  occ. eigenvalues --  -10.56704 -10.56463 -10.56390 -10.52968  -9.01012
 Alpha  occ. eigenvalues --   -6.83715  -6.81802  -6.81786  -2.93613  -2.93106
 Alpha  occ. eigenvalues --   -2.93092  -2.91561  -2.91561  -1.49296  -1.32275
 Alpha  occ. eigenvalues --   -1.22155  -1.13433  -1.11419  -1.03511  -1.00676
 Alpha  occ. eigenvalues --   -0.94959  -0.90543  -0.84963  -0.80416  -0.80234
 Alpha  occ. eigenvalues --   -0.79613  -0.77801  -0.75732  -0.75523  -0.71751
 Alpha  occ. eigenvalues --   -0.68934  -0.67205  -0.63203  -0.59505  -0.56784
 Alpha  occ. eigenvalues --   -0.55834  -0.55304  -0.55106  -0.54275
 Alpha virt. eigenvalues --   -0.29080  -0.20883  -0.15065  -0.12784  -0.09529
 Alpha virt. eigenvalues --   -0.06494  -0.06110  -0.04596  -0.04438  -0.02872
 Alpha virt. eigenvalues --   -0.02004  -0.01710  -0.00745  -0.00259   0.00783

 Mulliken charges:
               1
     1  C   -0.587600
     2  C    0.548272
     3  C   -0.749225
     4  C    0.308774
     5  C   -0.016283
     6  H    0.309212
     7  H    0.344617
     8  H    0.392619
     9  H    0.349201
    10  N   -0.105633
    11  O    0.060684
    12  O   -0.005116
    13  C   -0.482789
    14  H    0.418701
    15  Br   0.214565
 Sum of Mulliken charges =   1.00000

 Dipole moment (field-independent basis, Debye):
    X=             -1.0204    Y=             -2.2564    Z=             -0.2414  Tot=              2.4881
 Quadrupole moment (field-independent basis, Debye-Ang):
   XX=            -71.5566   YY=            -51.2925   ZZ=            -62.1426
   XY=             -0.5606   XZ=              1.2993   YZ=              2.4264

 Normal termination of Gaussian 16 at Wed May  1 15:08:17 2024.
