 Gaussian 16, Revision A.03,
 Gaussian 16:  ES64L-G16RevA.03 25-Dec-2016

 --------------------------------------------------------------------
 #p B3LYP/6-311+G** #p TD=(singlets,nstates=30)IOp(6/8=3) IOp(9/40=4)
 --------------------------------------------------------------------

 -----------------------------
 Scan Step 2, Bond Length 0.51
 -----------------------------
 Symbolic Z-matrix:
 Charge =  0 Multiplicity = 1

                         Standard orientation:
 ---------------------------------------------------------------------
 Center     Atomic      Atomic             Coordinates (Angstroms)
 Number     Number       Type             X           Y           Z
 ---------------------------------------------------------------------
      1          6           0        0.000000   -0.000000   -0.181081
      2          1           0        0.000000    0.937260   -0.772431
      3          1           0       -0.000000   -0.937260   -0.772431
      4          8           0        0.000000    0.000000    0.328919
 ---------------------------------------------------------------------

 SCF Done:  E(RB3LYP) =  -109.148541731     A.U. after   10 cycles

 Excitation energies and oscillator strengths:

 Excited State   1:      Singlet-B2     4.2979 eV  288.47 nm  f=0.1620  <S**2>=0.000
       3 -> 11         0.00062
       3 -> 14         0.00170
       3 -> 19         0.00067
       3 -> 22         0.00154
       3 -> 25        -0.00179
       3 -> 31        -0.00040
       3 -> 38         0.00026
       3 -> 40        -0.00068
       3 -> 43         0.00025
       3 -> 46         0.00013
       3 -> 53         0.00014
       4 ->  9        -0.00223
       4 -> 12         0.00133
       4 -> 13         0.00270
       4 -> 16         0.00108
       4 -> 17         0.00126
       4 -> 20         0.00191
       4 -> 21         0.00153
       4 -> 24         0.00090
       4 -> 27         0.00057
       4 -> 30         0.00171
       4 -> 32         0.00018
       4 -> 33         0.00089
       4 -> 37        -0.00045
       4 -> 42         0.00040
       4 -> 44        -0.00022
       4 -> 47        -0.00060
       4 -> 48        -0.00014
       4 -> 51        -0.00014
       4 -> 54        -0.00014
       5 -> 26         0.00221
       5 -> 35         0.00098
       5 -> 45         0.00060
       6 -> 11         0.01133
       6 -> 14        -0.00054
       6 -> 19         0.00365
       6 -> 22         0.00055
       6 -> 25         0.00275
       6 -> 29        -0.00121
       6 -> 31         0.00086
       6 -> 40         0.00010
       6 -> 43        -0.00019
       6 -> 46        -0.00010
       6 -> 50         0.00017
       7 -> 11         0.00726
       7 -> 14         0.00620
       7 -> 19         0.00384
       7 -> 22         0.00074
       7 -> 25        -0.00331
       7 -> 29        -0.00055
       7 -> 31         0.00117
       7 -> 38        -0.00065
       7 -> 43        -0.00032
       7 -> 46         0.00049
       7 -> 50         0.00036
       7 -> 53        -0.00018
       8 ->  9         0.70363
       8 -> 12        -0.00942
       8 -> 13         0.07068
       8 -> 16        -0.01107
       8 -> 17        -0.02442
       8 -> 20         0.00696
       8 -> 21         0.01241
       8 -> 24        -0.00104
       8 -> 27         0.00140
       8 -> 30        -0.00364
       8 -> 32        -0.00128
       8 -> 33        -0.00171
       8 -> 37        -0.00080
       8 -> 39        -0.00035
       8 -> 42         0.00072
       8 -> 44         0.00068
       8 -> 47         0.00044
       8 -> 48         0.00025
       3 <- 11         0.00034
       3 <- 14         0.00128
       3 <- 19         0.00036
       3 <- 22         0.00132
       3 <- 25        -0.00140
       3 <- 29        -0.00014
       3 <- 31        -0.00041
       3 <- 38         0.00029
       3 <- 40        -0.00065
       3 <- 43         0.00026
       3 <- 46         0.00015
       3 <- 53         0.00016
       4 <-  9        -0.00088
       4 <- 13         0.00219
       4 <- 16         0.00094
       4 <- 17        -0.00020
       4 <- 20         0.00136
       4 <- 21         0.00127
       4 <- 24         0.00040
       4 <- 27         0.00110
       4 <- 30         0.00137
       4 <- 32         0.00012
       4 <- 33         0.00037
       4 <- 37        -0.00030
       4 <- 39         0.00016
       4 <- 42         0.00032
       4 <- 44        -0.00020
       4 <- 47        -0.00057
       5 <- 26         0.00193
       5 <- 35         0.00081
       5 <- 45         0.00051
       6 <- 11         0.00405
       6 <- 14        -0.00167
       6 <- 19         0.00172
       6 <- 22        -0.00016
       6 <- 25         0.00222
       6 <- 29        -0.00106
       6 <- 31         0.00080
       6 <- 40         0.00012
       6 <- 43        -0.00014
       6 <- 50         0.00015
       7 <- 11         0.00138
       7 <- 14         0.00327
       7 <- 19         0.00086
       7 <- 22         0.00047
       7 <- 25        -0.00234
       7 <- 29        -0.00141
       7 <- 31         0.00104
       7 <- 38        -0.00040
       7 <- 43        -0.00021
       7 <- 46         0.00051
       7 <- 50         0.00048
       8 <-  9        -0.01745
       8 <- 12        -0.00847
       8 <- 13         0.02937
       8 <- 16         0.00698
       8 <- 17        -0.00279
       8 <- 20         0.00216
       8 <- 21         0.00700
       8 <- 24         0.00233
       8 <- 27         0.00125
       8 <- 30        -0.00253
       8 <- 32        -0.00158
       8 <- 33        -0.00117
       8 <- 37        -0.00080
       8 <- 39        -0.00039
       8 <- 42         0.00070
       8 <- 44         0.00035
       8 <- 47         0.00041
       8 <- 48         0.00015
 This state for optimization and/or second-order correction.
 Total Energy, E(TD-HF/TD-DFT) =  -108.990596000
 Copying the excited state density for this state as the 1-particle RhoCI density.

 Excited State   2:      Singlet-A2     4.7062 eV  263.45 nm  f=0.0000  <S**2>=0.000
       3 -> 26        -0.00224
       3 -> 35        -0.00101
       3 -> 45        -0.00027
       4 -> 10        -0.00077
       4 -> 15        -0.00106
       4 -> 18        -0.00149
       4 -> 23        -0.00017
       4 -> 28        -0.00170
       4 -> 34         0.00029
       4 -> 36        -0.00087
       4 -> 49        -0.00016
       4 -> 52        -0.00019
       5 -> 11         0.00015
       5 -> 14        -0.00021
       5 -> 19         0.00028
       5 -> 22        -0.00057
       5 -> 25        -0.00021
       5 -> 29         0.00039
       5 -> 38        -0.00035
       5 -> 40         0.00011
       5 -> 43        -0.00035
       5 -> 46        -0.00022
       5 -> 50         0.00014
       6 -> 26         0.00324
       6 -> 35        -0.00097
       6 -> 45        -0.00025
       7 -> 26         0.00112
       7 -> 35         0.00018
       7 -> 45        -0.00013
       8 -> 10         0.70676
       8 -> 15         0.00512
       8 -> 18         0.02276
       8 -> 23        -0.00327
       8 -> 28        -0.00073
       8 -> 34         0.00370
       8 -> 36        -0.00105
       8 -> 41         0.00086
       8 -> 49         0.00016
       8 -> 52         0.00023
       3 <- 26        -0.00189
       3 <- 35        -0.00087
       3 <- 45        -0.00026
       4 <- 10        -0.00023
       4 <- 18        -0.00074
       4 <- 28        -0.00053
       4 <- 34         0.00056
       4 <- 36        -0.00054
       5 <- 11         0.00035
       5 <- 14        -0.00040
       5 <- 19         0.00080
       5 <- 22        -0.00067
       5 <- 25        -0.00045
       5 <- 29         0.00107
       5 <- 38        -0.00053
       5 <- 43        -0.00039
       5 <- 46        -0.00026
       5 <- 53        -0.00016
       6 <- 26         0.00325
       6 <- 35        -0.00111
       6 <- 45        -0.00026
       7 <- 26         0.00102
       7 <- 45        -0.00017
       8 <- 10         0.00297
       8 <- 15         0.00021
       8 <- 18        -0.00781
       8 <- 28        -0.00109
       8 <- 34         0.00348
       8 <- 36        -0.00090
       8 <- 41         0.00048
       8 <- 52         0.00011

 Excited State   3:      Singlet-B2     5.4998 eV  225.43 nm  f=0.0402  <S**2>=0.000
       3 -> 11        -0.00034
       3 -> 14         0.00037
       3 -> 19        -0.00067
       3 -> 25         0.00015
       3 -> 31         0.00014
       3 -> 38        -0.00017
       3 -> 40         0.00031
       3 -> 43        -0.00015
       3 -> 53        -0.00019
       4 ->  9         0.00048
       4 -> 13         0.00069
       4 -> 16         0.00124
       4 -> 17        -0.00086
       4 -> 20        -0.00047
       4 -> 21         0.00070
       4 -> 24         0.00086
       4 -> 27         0.00016
       4 -> 30        -0.00184
       4 -> 32        -0.00015
       4 -> 37         0.00052
       4 -> 39        -0.00079
       4 -> 42        -0.00031
       4 -> 47         0.00032
       5 -> 26        -0.00098
       5 -> 35        -0.00101
       5 -> 45        -0.00053
       6 -> 11         0.00112
       6 -> 14        -0.00469
       6 -> 19         0.00190
       6 -> 22         0.00032
       6 -> 25         0.00196
       6 -> 29        -0.00254
       6 -> 31        -0.00069
       6 -> 38        -0.00021
       6 -> 40        -0.00030
       6 -> 43        -0.00028
       6 -> 50         0.00011
       7 -> 11        -0.00103
       7 -> 14        -0.00282
       7 -> 19        -0.00170
       7 -> 22        -0.00079
       7 -> 25         0.00225
       7 -> 29        -0.00045
       7 -> 31        -0.00030
       7 -> 38         0.00061
       7 -> 40         0.00030
       7 -> 43         0.00017
       7 -> 46        -0.00059
       7 -> 50        -0.00027
       7 -> 53         0.00025
       8 ->  9         0.00549
       8 -> 12         0.70517
       8 -> 13         0.04742
       8 -> 16         0.01998
       8 -> 17        -0.00262
       8 -> 20         0.01560
       8 -> 21         0.00492
       8 -> 24        -0.00112
       8 -> 27        -0.00193
       8 -> 30        -0.00347
       8 -> 32         0.00042
       8 -> 33         0.00035
       8 -> 37        -0.00097
       8 -> 39         0.00114
       8 -> 42         0.00101
       8 -> 44        -0.00018
       8 -> 48        -0.00010
       8 -> 51        -0.00010
       8 -> 54        -0.00011
       3 <- 11        -0.00018
       3 <- 14         0.00018
       3 <- 19        -0.00025
       3 <- 29         0.00018
       3 <- 31         0.00019
       3 <- 38        -0.00022
       3 <- 40         0.00024
       3 <- 43        -0.00015
       3 <- 53        -0.00022
       4 <-  9        -0.00083
       4 <- 12        -0.00021
       4 <- 13         0.00078
       4 <- 16         0.00065
       4 <- 17         0.00023
       4 <- 20        -0.00028
       4 <- 21         0.00051
       4 <- 24         0.00086
       4 <- 30        -0.00131
       4 <- 32        -0.00045
       4 <- 33         0.00024
       4 <- 37         0.00033
       4 <- 39        -0.00055
       4 <- 42        -0.00035
       4 <- 44         0.00011
       4 <- 47         0.00029
       5 <- 26        -0.00065
       5 <- 35        -0.00090
       5 <- 45        -0.00048
       6 <- 11         0.00112
       6 <- 14        -0.00097
       6 <- 22         0.00043
       6 <- 25         0.00177
       6 <- 29        -0.00187
       6 <- 31        -0.00081
       6 <- 38        -0.00031
       6 <- 40        -0.00023
       6 <- 43        -0.00025
       6 <- 53        -0.00011
       7 <- 11         0.00031
       7 <- 14        -0.00105
       7 <- 19        -0.00050
       7 <- 22        -0.00060
       7 <- 25         0.00131
       7 <- 29         0.00017
       7 <- 31        -0.00015
       7 <- 38         0.00032
       7 <- 40         0.00017
       7 <- 46        -0.00051
       7 <- 50        -0.00033
       7 <- 53         0.00018
       8 <-  9        -0.00775
       8 <- 12         0.00046
       8 <- 13         0.01324
       8 <- 16         0.00385
       8 <- 17        -0.00314
       8 <- 20        -0.00324
       8 <- 21         0.00307
       8 <- 24         0.00042
       8 <- 30        -0.00264
       8 <- 32         0.00023
       8 <- 33         0.00041
       8 <- 37        -0.00087
       8 <- 39         0.00113
       8 <- 42         0.00087
       8 <- 44        -0.00012
       8 <- 47        -0.00011

 Excited State   4:      Singlet-A1     5.8276 eV  212.75 nm  f=0.0011  <S**2>=0.000
       3 ->  9         0.00208
       3 -> 13        -0.00013
       3 -> 16        -0.00182
       3 -> 17        -0.00177
       3 -> 21         0.00109
       3 -> 24        -0.00167
       3 -> 27         0.00033
       3 -> 30         0.00071
       3 -> 32         0.00042
       3 -> 33        -0.00092
       3 -> 37         0.00074
       3 -> 39         0.00033
       3 -> 44        -0.00021
       3 -> 51        -0.00011
       3 -> 54         0.00019
       4 -> 11        -0.00475
       4 -> 14        -0.00377
       4 -> 19        -0.00472
       4 -> 22        -0.00271
       4 -> 25         0.00298
       4 -> 29        -0.00171
       4 -> 31        -0.00013
       4 -> 38        -0.00060
       4 -> 40        -0.00015
       4 -> 43         0.00012
       4 -> 46        -0.00013
       4 -> 53         0.00010
       5 -> 10        -0.00139
       5 -> 15        -0.00338
       5 -> 18         0.00106
       5 -> 23         0.00380
       5 -> 28         0.00068
       5 -> 34        -0.00042
       5 -> 36        -0.00047
       6 ->  9        -0.00762
       6 -> 12        -0.01028
       6 -> 13         0.00188
       6 -> 16         0.00853
       6 -> 17         0.00027
       6 -> 20        -0.00381
       6 -> 21        -0.00435
       6 -> 24         0.00364
       6 -> 27         0.00349
       6 -> 30         0.00035
       6 -> 32        -0.00304
       6 -> 33        -0.00297
       6 -> 37        -0.00228
       6 -> 39         0.00108
       6 -> 42         0.00049
       6 -> 44        -0.00107
       6 -> 47         0.00023
       6 -> 48         0.00042
       6 -> 51         0.00021
       7 ->  9         0.02445
       7 -> 12        -0.01114
       7 -> 13        -0.00545
       7 -> 16         0.00264
       7 -> 17        -0.01484
       7 -> 20        -0.00185
       7 -> 21        -0.00288
       7 -> 24        -0.00231
       7 -> 27         0.00365
       7 -> 30        -0.00137
       7 -> 32         0.00126
       7 -> 33        -0.00012
       7 -> 37        -0.00084
       7 -> 39        -0.00019
       7 -> 44         0.00028
       7 -> 47        -0.00014
       7 -> 54        -0.00018
       8 -> 11         0.70392
       8 -> 14         0.05693
       8 -> 19        -0.02611
       8 -> 22        -0.00200
       8 -> 25        -0.01171
       8 -> 29        -0.00098
       8 -> 31         0.00244
       8 -> 38        -0.00362
       8 -> 40        -0.00197
       8 -> 43         0.00180
       8 -> 46        -0.00129
       8 -> 50         0.00021
       3 <-  9         0.00144
       3 <- 12         0.00013
       3 <- 16        -0.00128
       3 <- 17        -0.00112
       3 <- 20         0.00011
       3 <- 21         0.00087
       3 <- 24        -0.00125
       3 <- 27         0.00026
       3 <- 30         0.00060
       3 <- 32         0.00032
       3 <- 33        -0.00073
       3 <- 37         0.00062
       3 <- 39         0.00029
       3 <- 44        -0.00017
       3 <- 54         0.00018
       4 <- 11        -0.00235
       4 <- 14        -0.00169
       4 <- 19        -0.00298
       4 <- 22        -0.00188
       4 <- 25         0.00183
       4 <- 29        -0.00126
       4 <- 38        -0.00049
       4 <- 40        -0.00015
       4 <- 43         0.00013
       4 <- 46        -0.00010
       5 <- 10        -0.00091
       5 <- 15        -0.00225
       5 <- 18         0.00072
       5 <- 23         0.00284
       5 <- 28         0.00055
       5 <- 34        -0.00036
       5 <- 36        -0.00041
       6 <-  9        -0.00739
       6 <- 12        -0.00484
       6 <- 13         0.00222
       6 <- 16         0.00572
       6 <- 17        -0.00032
       6 <- 20        -0.00161
       6 <- 21        -0.00396
       6 <- 24         0.00254
       6 <- 27         0.00257
       6 <- 30         0.00012
       6 <- 32        -0.00225
       6 <- 33        -0.00234
       6 <- 37        -0.00204
       6 <- 39         0.00069
       6 <- 42         0.00043
       6 <- 44        -0.00100
       6 <- 47         0.00019
       6 <- 48         0.00038
       6 <- 51         0.00019
       7 <-  9         0.00503
       7 <- 12        -0.00347
       7 <- 13        -0.00145
       7 <- 16         0.00182
       7 <- 17        -0.00646
       7 <- 20        -0.00053
       7 <- 21        -0.00182
       7 <- 24        -0.00127
       7 <- 27         0.00249
       7 <- 30        -0.00099
       7 <- 32         0.00091
       7 <- 37        -0.00067
       7 <- 39        -0.00025
       7 <- 44         0.00022
       7 <- 54        -0.00015
       8 <- 11        -0.01789
       8 <- 14         0.00416
       8 <- 19        -0.01776
       8 <- 22        -0.00485
       8 <- 25        -0.00708
       8 <- 29        -0.00103
       8 <- 31         0.00223
       8 <- 38        -0.00301
       8 <- 40        -0.00137
       8 <- 43         0.00150
       8 <- 46        -0.00117
       8 <- 50         0.00023

 Excited State   5:      Singlet-A2     8.6568 eV  143.22 nm  f=0.0000  <S**2>=0.000
       3 -> 26         0.00104
       3 -> 35         0.00042
       4 -> 10        -0.00120
       4 -> 15        -0.00267
       4 -> 18         0.00114
       4 -> 23         0.00186
       4 -> 28        -0.00014
       4 -> 34         0.00012
       4 -> 36         0.00070
       4 -> 41        -0.00038
       4 -> 49        -0.00011
       5 -> 14         0.00016
       5 -> 19        -0.00025
       5 -> 22         0.00042
       5 -> 25         0.00042
       5 -> 29        -0.00015
       5 -> 38         0.00015
       5 -> 43         0.00021
       5 -> 46         0.00012
       6 -> 26        -0.00129
       6 -> 35         0.00036
       7 -> 26        -0.00071
       7 -> 35        -0.00019
       8 -> 10        -0.00350
       8 -> 15         0.70499
       8 -> 18        -0.05299
       8 -> 23        -0.01327
       8 -> 28        -0.00029
       8 -> 34        -0.00144
       8 -> 36         0.00171
       8 -> 41        -0.00026
       8 -> 52        -0.00014
       3 <- 26         0.00080
       3 <- 35         0.00029
       4 <- 10         0.00018
       4 <- 18         0.00042
       4 <- 23         0.00012
       4 <- 28         0.00020
       4 <- 34        -0.00024
       4 <- 36         0.00028
       5 <- 11         0.00042
       5 <- 19         0.00026
       5 <- 22         0.00040
       5 <- 25         0.00058
       5 <- 29         0.00012
       5 <- 31        -0.00020
       5 <- 38         0.00028
       5 <- 40         0.00014
       5 <- 43         0.00020
       6 <- 26        -0.00118
       6 <- 35         0.00037
       7 <- 26        -0.00028
       7 <- 35        -0.00028
       7 <- 45        -0.00013
       8 <- 10         0.00066
       8 <- 15         0.00252
       8 <- 18         0.00328
       8 <- 23         0.00083
       8 <- 34        -0.00163
       8 <- 36         0.00056
       8 <- 41        -0.00017

 Excited State   6:      Singlet-A1     8.7129 eV  142.30 nm  f=0.0501  <S**2>=0.000
       3 ->  9        -0.00053
       3 -> 12         0.00016
       3 -> 13        -0.00053
       3 -> 16         0.00097
       3 -> 17         0.00047
       3 -> 20        -0.00033
       3 -> 21        -0.00057
       3 -> 24         0.00088
       3 -> 27        -0.00024
       3 -> 30        -0.00095
       3 -> 32        -0.00065
       3 -> 39        -0.00020
       3 -> 42        -0.00025
       3 -> 47         0.00029

 The electronic state is 1-A1.
 Alpha  occ. eigenvalues --  -19.51305 -10.76308  -1.16617  -1.04337  -1.02111
 Alpha  occ. eigenvalues --   -0.56317  -0.42620  -0.19526
 Alpha virt. eigenvalues --   -0.00627   0.02020   0.04443   0.04619   0.13659
 Alpha virt. eigenvalues --    0.16584   0.16786   0.18489   0.20989   0.22509
 Alpha virt. eigenvalues --    0.29759   0.36837   0.50260   0.56697   0.64260

 Mulliken charges:
               1
     1  C    0.120290
     2  H   -0.146123
     3  H   -0.146123
     4  O    0.171955
 Sum of Mulliken charges =  -0.00000

 Dipole moment (field-independent basis, Debye):
    X=              0.0000    Y=             -0.0000    Z=              1.7897  Tot=              1.7897
 Quadrupole moment (field-independent basis, Debye-Ang):
   XX=             -9.8639   YY=            -14.6668   ZZ=            -13.8882
   XY=             -0.0000   XZ=             -0.0000   YZ=             -0.0000

 Normal termination of Gaussian 16 at Fri Sep 17 10:52:15 2021.
