 Gaussian 16, Revision A.03,
 Gaussian 16:  ES64L-G16RevA.03 25-Dec-2016

 --------------------------------------------------------------------
 #p B3LYP/6-311+G** #p TD=(singlets,nstates=30)IOp(6/8=3) IOp(9/40=4)
 --------------------------------------------------------------------

 -------------------------------
 Scan Step 222, Bond Length 1.61
 -------------------------------
 Symbolic Z-matrix:
 Charge =  0 Multiplicity = 1

                         Standard orientation:
 ---------------------------------------------------------------------
 Center     Atomic      Atomic             Coordinates (Angstroms)
 Number     Number       Type             X           Y           Z
 ---------------------------------------------------------------------
      1          6           0        0.000000    0.000000   -0.731081
      2          1           0        0.000000    0.937260   -1.322431
      3          1           0       -0.000000   -0.937260   -1.322431
      4          8           0        0.000000   -0.000000    0.878919
 ---------------------------------------------------------------------

 SCF Done:  E(RB3LYP) =  -114.424097672     A.U. after   10 cycles

 Excitation energies and oscillator strengths:

 Excited State   1:      Singlet-A2     1.9466 eV  636.94 nm  f=0.0000  <S**2>=0.000
       3 -> 27         0.00116
       3 -> 38         0.00085
       3 -> 46         0.00330
       4 -> 27         0.00069
       4 -> 38        -0.00013
       4 -> 46        -0.00128
       5 ->  9         0.00708
       5 -> 13         0.00095
       5 -> 18         0.00282
       5 -> 23         0.00161
       5 -> 28         0.00244
       5 -> 31        -0.00016
       5 -> 37         0.00135
       5 -> 44         0.00033
       5 -> 52         0.00033
       6 -> 27        -0.00063
       6 -> 38        -0.00076
       6 -> 46         0.00132
       7 -> 12        -0.00093
       7 -> 16         0.00478
       7 -> 19        -0.00407
       7 -> 22        -0.00081
       7 -> 25         0.00092
       7 -> 30        -0.00156
       7 -> 33         0.00036
       7 -> 49         0.00012
       7 -> 50         0.00016
       7 -> 53         0.00044
       8 ->  9         0.70862
       8 -> 13        -0.01284
       8 -> 18         0.02160
       8 -> 23        -0.00328
       8 -> 28         0.01102
       8 -> 31         0.00111
       8 -> 37         0.00063
       8 -> 48        -0.00031
       8 -> 52         0.00193
       3 <- 27         0.00052
       3 <- 38         0.00058
       3 <- 46         0.00335
       4 <- 27         0.00119
       4 <- 38         0.00023
       4 <- 46        -0.00103
       5 <-  9        -0.00021
       5 <- 13        -0.00051
       5 <- 18        -0.00066
       5 <- 23         0.00027
       5 <- 28        -0.00046
       5 <- 31         0.00034
       5 <- 37         0.00076
       5 <- 44         0.00011
       6 <- 38        -0.00062
       6 <- 46         0.00101
       7 <- 12         0.00070
       7 <- 16        -0.01009
       7 <- 19         0.00383
       7 <- 22         0.00686
       7 <- 25         0.00054
       7 <- 30         0.00529
       7 <- 33        -0.00050
       7 <- 36         0.00078
       7 <- 40         0.00047
       7 <- 42         0.00014
       7 <- 49        -0.00040
       7 <- 53         0.00146
       8 <-  9        -0.05269
       8 <- 13         0.00042
       8 <- 18        -0.00666
       8 <- 23         0.00013
       8 <- 28        -0.00240
       8 <- 31        -0.00064
       8 <- 37        -0.00045
       8 <- 52         0.00051
 This state for optimization and/or second-order correction.
 Total Energy, E(TD-HF/TD-DFT) =  -114.352562602
 Copying the excited state density for this state as the 1-particle RhoCI density.

 Excited State   2:      Singlet-A1     5.0092 eV  247.51 nm  f=0.0730  <S**2>=0.000
       3 -> 10        -0.01604
       3 -> 11        -0.01329
       3 -> 14         0.01088
       3 -> 15         0.00597
       3 -> 17        -0.00351
       3 -> 20        -0.00392
       3 -> 21        -0.00108
       3 -> 24         0.00240
       3 -> 26         0.00385
       3 -> 29        -0.00119
       3 -> 32         0.00277
       3 -> 34         0.00240
       3 -> 35        -0.00105
       3 -> 39         0.00081
       3 -> 43         0.00044
       3 -> 47         0.00226
       3 -> 51         0.00106
       3 -> 54         0.00018
       4 -> 10        -0.01144
       4 -> 11         0.01254
       4 -> 14         0.00569
       4 -> 15        -0.00979
       4 -> 17         0.00310
       4 -> 20         0.00516
       4 -> 21         0.00041
       4 -> 24        -0.00501
       4 -> 26         0.00500
       4 -> 29         0.00108
       4 -> 32        -0.00133
       4 -> 34        -0.00170
       4 -> 35         0.00040
       4 -> 41         0.00013
       4 -> 43        -0.00045
       4 -> 45        -0.00080
       4 -> 47        -0.00122
       4 -> 51        -0.00032
       4 -> 54         0.00010
       5 -> 12         0.01701
       5 -> 16         0.01074
       5 -> 19         0.00148
       5 -> 22         0.00740
       5 -> 25         0.00815
       5 -> 30        -0.00024
       5 -> 33        -0.00304
       5 -> 36         0.00275
       5 -> 40         0.00148
       5 -> 42         0.00065
       5 -> 49         0.00045
       5 -> 50        -0.00068
       5 -> 53        -0.00013
       6 -> 10         0.14719
       6 -> 11         0.10567
       6 -> 14        -0.09511
       6 -> 15        -0.06439
       6 -> 17        -0.01997
       6 -> 20        -0.01081
       6 -> 21         0.01345
       6 -> 24        -0.01390
       6 -> 26        -0.00672
       6 -> 29        -0.00793
       6 -> 32         0.00089
       6 -> 34         0.00146
       6 -> 35        -0.00070
       6 -> 39         0.00085
       6 -> 41        -0.00040
       6 -> 43         0.00082
       6 -> 45         0.00080
       6 -> 47         0.00124
       6 -> 51         0.00082
       6 -> 54        -0.00068
       7 ->  9         0.68388
       7 -> 13         0.00054
       7 -> 18        -0.01816
       7 -> 28        -0.00131
       7 -> 31        -0.00302
       7 -> 37         0.00090
       7 -> 44        -0.00105
       7 -> 48         0.00040
       7 -> 52         0.00105
       8 -> 12        -0.00736
       8 -> 16         0.06868
       8 -> 19        -0.02411
       8 -> 22        -0.02614
       8 -> 25         0.00061
       8 -> 30        -0.01193
       8 -> 33         0.00222
       8 -> 36        -0.00265
       8 -> 40        -0.00128
       8 -> 42        -0.00035
       8 -> 49         0.00057
       8 -> 50         0.00023
       8 -> 53        -0.00070
       3 <- 10        -0.01082
       3 <- 11        -0.00943
       3 <- 14         0.00809
       3 <- 15         0.00397
       3 <- 17        -0.00181
       3 <- 20        -0.00285
       3 <- 21        -0.00140
       3 <- 24         0.00148
       3 <- 26         0.00228
       3 <- 29        -0.00071
       3 <- 32         0.00253
       3 <- 34         0.00153
       3 <- 35        -0.00090
       3 <- 39         0.00072
       3 <- 43         0.00054
       3 <- 45         0.00029
       3 <- 47         0.00237
       3 <- 51         0.00103
       3 <- 54         0.00028
       4 <- 10        -0.00561
       4 <- 11         0.00792
       4 <- 14         0.00291
       4 <- 15        -0.00585
       4 <- 17         0.00158
       4 <- 20         0.00437
       4 <- 21         0.00030
       4 <- 24        -0.00343
       4 <- 26         0.00396
       4 <- 29         0.00028
       4 <- 32        -0.00164
       4 <- 34        -0.00148
       4 <- 35         0.00064
       4 <- 39        -0.00014
       4 <- 43        -0.00044
       4 <- 45        -0.00090
       4 <- 47        -0.00083
       4 <- 51        -0.00016
       5 <- 12         0.00769
       5 <- 16         0.00553
       5 <- 19         0.00103
       5 <- 22         0.00460
       5 <- 25         0.00556
       5 <- 33        -0.00237
       5 <- 36         0.00224
       5 <- 40         0.00129
       5 <- 42         0.00053
       5 <- 49         0.00040
       5 <- 50        -0.00062
       5 <- 53        -0.00012
       6 <- 10         0.04379
       6 <- 11         0.03371
       6 <- 14        -0.03736
       6 <- 15        -0.02756
       6 <- 17        -0.00974
       6 <- 20        -0.00688
       6 <- 21         0.00784
       6 <- 24        -0.00847
       6 <- 26        -0.00392
       6 <- 29        -0.00543
       6 <- 32         0.00133
       6 <- 34         0.00179
       6 <- 35        -0.00087
       6 <- 39         0.00092
       6 <- 41        -0.00028
       6 <- 43         0.00070
       6 <- 45         0.00072
       6 <- 47         0.00078
       6 <- 51         0.00065
       6 <- 54        -0.00057
       7 <-  9        -0.12448
       7 <- 13         0.00733
       7 <- 18        -0.01379
       7 <- 23         0.00343
       7 <- 28        -0.00381
       7 <- 31        -0.00139
       7 <- 37         0.00033
       7 <- 44        -0.00063
       7 <- 48        -0.00018
       7 <- 52         0.00092
       8 <- 12        -0.00174
       8 <- 16         0.02449
       8 <- 19        -0.01042
       8 <- 22        -0.01424
       8 <- 25         0.00013
       8 <- 30        -0.00863
       8 <- 33         0.00166
       8 <- 36        -0.00203
       8 <- 40        -0.00103
       8 <- 42        -0.00028
       8 <- 49         0.00038
       8 <- 50         0.00019
       8 <- 53        -0.00064

 Excited State   3:      Singlet-B1     5.3362 eV  232.35 nm  f=0.0014  <S**2>=0.000
       3 ->  9        -0.02870
       3 -> 13         0.00170
       3 -> 18        -0.00464
       3 -> 23         0.00177
       3 -> 28        -0.00094
       3 -> 31        -0.00048
       3 -> 44         0.00024
       3 -> 48         0.00097
       3 -> 52         0.00096
       4 ->  9         0.01350
       4 -> 13        -0.00267
       4 -> 18         0.00025
       4 -> 23        -0.00241
       4 -> 28         0.00024
       4 -> 31        -0.00153
       4 -> 37        -0.00041
       4 -> 44         0.00013
       4 -> 48        -0.00109
       4 -> 52        -0.00058
       5 -> 38         0.00201
       5 -> 46         0.00091
       6 ->  9         0.70501
       6 -> 13        -0.02010
       6 -> 18         0.01675
       6 -> 23        -0.01096
       6 -> 28         0.00425
       6 -> 31         0.00326
       6 -> 37        -0.00216
       6 -> 44        -0.00282
       6 -> 48         0.00414
       6 -> 52         0.00144
       7 -> 10         0.04052
       7 -> 11         0.02572
       7 -> 14        -0.01771
       7 -> 15        -0.00695
       7 -> 17        -0.00914
       7 -> 20         0.00295
       7 -> 21         0.00019
       7 -> 24        -0.00062
       7 -> 26        -0.00153
       7 -> 29        -0.00391
       7 -> 32        -0.00059
       7 -> 34         0.00075
       7 -> 35         0.00179
       7 -> 39         0.00014
       7 -> 41        -0.00055
       7 -> 43         0.00055
       7 -> 45        -0.00038
       7 -> 47         0.00423
       7 -> 51         0.00118
       7 -> 54         0.00040
       8 -> 27         0.00050
       8 -> 46         0.00531
       3 <-  9        -0.00962
       3 <- 13        -0.00064
       3 <- 18        -0.00290
       3 <- 23        -0.00056
       3 <- 28        -0.00060
       3 <- 31        -0.00067
       3 <- 44        -0.00025
       3 <- 48         0.00114
       3 <- 52         0.00077
       4 <-  9         0.00674
       4 <- 13        -0.00027
       4 <- 18         0.00193
       4 <- 23        -0.00062
       4 <- 28         0.00163
       4 <- 31        -0.00103
       4 <- 37        -0.00022
       4 <- 48        -0.00094
       4 <- 52        -0.00033
       5 <- 27        -0.00065
       5 <- 38         0.00164
       5 <- 46         0.00081
       6 <-  9        -0.02554
       6 <- 13         0.00171
       6 <- 18        -0.00329
       6 <- 23        -0.00027
       6 <- 28        -0.00338
       6 <- 31         0.00122
       6 <- 37        -0.00188
       6 <- 44        -0.00151
       6 <- 48         0.00370
       6 <- 52         0.00048
       7 <- 10        -0.01665
       7 <- 11        -0.01268
       7 <- 14         0.01483
       7 <- 15         0.01250
       7 <- 17         0.00152
       7 <- 20         0.00496
       7 <- 21        -0.00431
       7 <- 24         0.00448
       7 <- 26         0.00176
       7 <- 29         0.00113
       7 <- 32        -0.00013
       7 <- 34         0.00071
       7 <- 35         0.00267
       7 <- 39         0.00045
       7 <- 41        -0.00020
       7 <- 43         0.00040
       7 <- 45        -0.00052
       7 <- 47         0.00387
       7 <- 51         0.00106
       7 <- 54         0.00107
       8 <- 27         0.00096
       8 <- 38         0.00028
       8 <- 46         0.00494

 Excited State   4:      Singlet-B2     5.9834 eV  207.21 nm  f=0.0131  <S**2>=0.000
       3 -> 12        -0.00155
       3 -> 16         0.00197
       3 -> 19        -0.00454
       3 -> 22         0.00051
       3 -> 25         0.00042
       3 -> 30        -0.00338
       3 -> 33        -0.00025
       3 -> 36         0.00216
       3 -> 40         0.00179
       3 -> 42         0.00023
       3 -> 49        -0.00272
       3 -> 50         0.00022
       3 -> 53         0.00030
       4 -> 12         0.00044
       4 -> 16        -0.00269
       4 -> 19         0.00012
       4 -> 22         0.00309
       4 -> 25        -0.00193
       4 -> 30         0.00146
       4 -> 33        -0.00048
       4 -> 36         0.00054
       4 -> 40        -0.00050
       4 -> 49         0.00044
       4 -> 50        -0.00012
       5 -> 10         0.00695
       5 -> 11         0.00575
       5 -> 14        -0.01208
       5 -> 15         0.00354
       5 -> 17         0.00062
       5 -> 20         0.00209
       5 -> 21         0.00613
       5 -> 24         0.00188
       5 -> 26        -0.00178
       5 -> 29        -0.00200
       5 -> 32        -0.00162
       5 -> 34        -0.00122
       5 -> 35        -0.00046
       5 -> 39        -0.00102
       5 -> 41         0.00074
       5 -> 45         0.00018
       5 -> 47        -0.00083
       5 -> 51         0.00050
       5 -> 54        -0.00024
       6 -> 12         0.00324
       6 -> 16        -0.00171
       6 -> 19         0.00306
       6 -> 22        -0.00015
       6 -> 25        -0.00083
       6 -> 30        -0.00054
       6 -> 33         0.00033
       6 -> 36        -0.00214
       6 -> 40        -0.00173
       6 -> 42        -0.00040
       6 -> 49         0.00162
       6 -> 53        -0.00036
       7 -> 27        -0.00067
       7 -> 38         0.00085
       7 -> 46         0.00370
       8 -> 10         0.63919
       8 -> 11         0.26821
       8 -> 14        -0.12453
       8 -> 15        -0.06208
       8 -> 17        -0.01354
       8 -> 20        -0.00139
       8 -> 21         0.00690
       8 -> 24        -0.00662
       8 -> 26        -0.00562
       8 -> 29        -0.01000
       8 -> 32        -0.00300
       8 -> 34        -0.00191
       8 -> 35        -0.00036
       8 -> 39        -0.00064
       8 -> 41         0.00024
       8 -> 43        -0.00043
       8 -> 45         0.00178
       8 -> 47        -0.00435
       8 -> 51         0.00221
       8 -> 54        -0.00166
       3 <- 12        -0.00056
       3 <- 16         0.00053
       3 <- 19        -0.00214
       3 <- 22         0.00090
       3 <- 25         0.00041
       3 <- 30        -0.00135
       3 <- 33        -0.00022
       3 <- 36         0.00167
       3 <- 40         0.00159
       3 <- 42         0.00020
       3 <- 49        -0.00280
       3 <- 50         0.00019
       3 <- 53         0.00084
       4 <- 12        -0.00019
       4 <- 16        -0.00235
       4 <- 19        -0.00019
       4 <- 22         0.00276
       4 <- 25        -0.00120
       4 <- 30         0.00129
       4 <- 33        -0.00055
       4 <- 36         0.00075
       4 <- 40        -0.00017
       4 <- 42         0.00011
       4 <- 49         0.00033
       5 <- 10         0.00027
       5 <- 11        -0.00159
       5 <- 14        -0.00167
       5 <- 15         0.00387
       5 <- 17         0.00022
       5 <- 20         0.00055
       5 <- 21         0.00212
       5 <- 24         0.00256
       5 <- 26        -0.00054
       5 <- 29        -0.00050
       5 <- 34        -0.00030
       5 <- 39        -0.00035
       5 <- 41         0.00074
       5 <- 43         0.00011
       5 <- 45         0.00048
       5 <- 47        -0.00069
       5 <- 51         0.00027
       6 <- 16         0.00547
       6 <- 19        -0.00246
       6 <- 22        -0.00396
       6 <- 25        -0.00052
       6 <- 30        -0.00469
       6 <- 33         0.00061
       6 <- 36        -0.00213
       6 <- 40        -0.00173
       6 <- 42        -0.00046
       6 <- 49         0.00176
       6 <- 53        -0.00105
       7 <- 27        -0.00065
       7 <- 38         0.00066
       7 <- 46         0.00306
       8 <- 10        -0.01503
       8 <- 11        -0.01202
       8 <- 14         0.01166
       8 <- 15         0.00464
       8 <- 17         0.00037
       8 <- 20        -0.00244
       8 <- 21        -0.00232
       8 <- 24         0.00133
       8 <- 26         0.00200
       8 <- 29        -0.00081
       8 <- 32         0.00240
       8 <- 34         0.00140
       8 <- 35        -0.00025
       8 <- 39         0.00148
       8 <- 41         0.00056
       8 <- 43         0.00031
       8 <- 45         0.00240
       8 <- 47        -0.00323
       8 <- 51         0.00135
       8 <- 54        -0.00041

 Excited State   5:      Singlet-B2     7.0330 eV  176.29 nm  f=0.0018  <S**2>=0.000
       3 -> 12         0.00152
       3 -> 16         0.00138
       3 -> 19        -0.00070
       3 -> 22        -0.00035
       3 -> 25         0.00091
       3 -> 30        -0.00217
       3 -> 33         0.00013
       3 -> 36         0.00039
       3 -> 40         0.00037
       3 -> 49        -0.00060
       4 -> 12        -0.00121
       4 -> 16         0.00075
       4 -> 19         0.00095
       4 -> 22        -0.00103
       4 -> 25         0.00080
       4 -> 30         0.00113
       4 -> 33        -0.00011
       4 -> 36         0.00028
       4 -> 50        -0.00011
       5 -> 10         0.00650
       5 -> 11        -0.00434
       5 -> 14         0.00332
       5 -> 15         0.00509
       5 -> 17         0.00074
       5 -> 20         0.00152
       5 -> 21        -0.00015
       5 -> 24        -0.00044
       5 -> 26        -0.00025
       5 -> 29        -0.00036
       5 -> 32        -0.00143
       5 -> 34         0.00040
       5 -> 35        -0.00031
       5 -> 39        -0.00051
       5 -> 41        -0.00019
       5 -> 43        -0.00030
       5 -> 45         0.00028
       5 -> 47        -0.00032
       5 -> 51         0.00023
       6 -> 12        -0.00196
       6 -> 16        -0.00044
       6 -> 19         0.00019
       6 -> 22        -0.00086
       6 -> 25         0.00014
       6 -> 30        -0.00070
       6 -> 40        -0.00045
       6 -> 42        -0.00018
       6 -> 49         0.00112
       7 -> 27        -0.00059
       7 -> 38        -0.00027
       7 -> 46         0.00153
       8 -> 10        -0.27558
       8 -> 11         0.65018
       8 -> 14         0.00108
       8 -> 15        -0.03126
       8 -> 17        -0.00491
       8 -> 20         0.01472
       8 -> 21         0.00369
       8 -> 24        -0.00321
       8 -> 26         0.00179
       8 -> 29        -0.00249
       8 -> 32        -0.00052
       8 -> 34        -0.00071
       8 -> 35        -0.00059
       8 -> 39         0.00013
       8 -> 43         0.00027
       8 -> 45         0.00106
       8 -> 47        -0.00178
       8 -> 51         0.00085
       8 -> 54        -0.00030

 The electronic state is 1-A1.
 Alpha  occ. eigenvalues --  -19.17237 -10.32699  -0.92695  -0.69736  -0.48860
 Alpha  occ. eigenvalues --   -0.41484  -0.32961  -0.28959
 Alpha virt. eigenvalues --   -0.14639  -0.01471   0.01135   0.04088   0.06125
 Alpha virt. eigenvalues --    0.08783   0.12919   0.14408   0.18931   0.21389
 Alpha virt. eigenvalues --    0.23969   0.30174   0.39082   0.41063   0.50932

 Mulliken charges:
               1
     1  C   -0.062596
     2  H    0.179846
     3  H    0.179846
     4  O   -0.297096
 Sum of Mulliken charges =  -0.00000

 Dipole moment (field-independent basis, Debye):
    X=             -0.0000    Y=              0.0000    Z=             -3.7750  Tot=              3.7750
 Quadrupole moment (field-independent basis, Debye-Ang):
   XX=            -12.7483   YY=            -11.8940   ZZ=            -11.2839
   XY=              0.0000   XZ=              0.0000   YZ=             -0.0000

 Normal termination of Gaussian 16 at Fri Sep 17 10:53:02 2021.
