 Gaussian 16, Revision A.03,
 Gaussian 16:  ES64L-G16RevA.03 25-Dec-2016

 --------------------------------------------------------------------
 #p B3LYP/6-311+G** #p TD=(singlets,nstates=30)IOp(6/8=3) IOp(9/40=4)
 --------------------------------------------------------------------

 -------------------------------
 Scan Step 194, Bond Length 1.47
 -------------------------------
 Symbolic Z-matrix:
 Charge =  0 Multiplicity = 1

                         Standard orientation:
 ---------------------------------------------------------------------
 Center     Atomic      Atomic             Coordinates (Angstroms)
 Number     Number       Type             X           Y           Z
 ---------------------------------------------------------------------
      1          6           0        0.000000    0.000000   -0.661081
      2          1           0        0.000000    0.937260   -1.252431
      3          1           0       -0.000000   -0.937260   -1.252431
      4          8           0        0.000000   -0.000000    0.808919
 ---------------------------------------------------------------------

 SCF Done:  E(RB3LYP) =  -114.476363460     A.U. after    9 cycles

 Excitation energies and oscillator strengths:

 Excited State   1:      Singlet-A2     2.5241 eV  491.19 nm  f=0.0000  <S**2>=0.000
       3 -> 27         0.00156
       3 -> 38         0.00123
       3 -> 46         0.00313
       4 -> 27         0.00099
       4 -> 38        -0.00024
       4 -> 46        -0.00140
       5 ->  9         0.01221
       5 -> 13         0.00037
       5 -> 18         0.00378
       5 -> 23         0.00147
       5 -> 28         0.00337
       5 -> 31        -0.00050
       5 -> 37         0.00195
       5 -> 44         0.00042
       5 -> 52         0.00047
       6 -> 27        -0.00057
       6 -> 38        -0.00085
       6 -> 46         0.00155
       7 -> 12        -0.00075
       7 -> 15         0.00425
       7 -> 19        -0.00367
       7 -> 22        -0.00041
       7 -> 25         0.00117
       7 -> 30        -0.00132
       7 -> 33         0.00042
       7 -> 42        -0.00010
       7 -> 49         0.00014
       7 -> 50         0.00022
       7 -> 53         0.00047
       8 ->  9         0.70756
       8 -> 13        -0.01921
       8 -> 18         0.02200
       8 -> 23        -0.00548
       8 -> 28         0.01099
       8 -> 31         0.00023
       8 -> 37         0.00063
       8 -> 48        -0.00030
       8 -> 52         0.00192
       3 <- 27         0.00084
       3 <- 38         0.00093
       3 <- 46         0.00319
       4 <- 27         0.00163
       4 <- 38         0.00022
       4 <- 46        -0.00114
       5 <-  9        -0.00049
       5 <- 13        -0.00063
       5 <- 18        -0.00086
       5 <- 23         0.00036
       5 <- 28        -0.00060
       5 <- 31         0.00047
       5 <- 37         0.00105
       5 <- 44         0.00014
       5 <- 52         0.00013
       6 <- 38        -0.00072
       6 <- 46         0.00121
       7 <- 15        -0.00938
       7 <- 19         0.00261
       7 <- 22         0.00731
       7 <- 25         0.00040
       7 <- 30         0.00485
       7 <- 33        -0.00077
       7 <- 35         0.00137
       7 <- 40         0.00069
       7 <- 42         0.00010
       7 <- 49        -0.00026
       7 <- 50         0.00014
       7 <- 53         0.00144
       8 <-  9        -0.04058
       8 <- 13         0.00113
       8 <- 18        -0.00584
       8 <- 23         0.00046
       8 <- 28        -0.00199
       8 <- 31        -0.00054
       8 <- 37        -0.00070
       8 <- 52         0.00052
 This state for optimization and/or second-order correction.
 Total Energy, E(TD-HF/TD-DFT) =  -114.383602794
 Copying the excited state density for this state as the 1-particle RhoCI density.

 Excited State   2:      Singlet-A1     6.3310 eV  195.84 nm  f=0.1117  <S**2>=0.000
       3 -> 10         0.00837
       3 -> 11        -0.01650
       3 -> 14         0.01095
       3 -> 16         0.01958
       3 -> 17        -0.00445
       3 -> 20        -0.00249
       3 -> 21        -0.00335
       3 -> 24         0.00441
       3 -> 26         0.00632
       3 -> 29        -0.00026
       3 -> 32         0.00284
       3 -> 34         0.00364
       3 -> 36         0.00058
       3 -> 39         0.00114
       3 -> 41         0.00010
       3 -> 43         0.00047
       3 -> 45         0.00132
       3 -> 47         0.00167
       3 -> 51         0.00059
       3 -> 54         0.00029
       4 -> 10         0.02077
       4 -> 11         0.01033
       4 -> 14         0.01258
       4 -> 16        -0.00688
       4 -> 17         0.00343
       4 -> 20         0.00801
       4 -> 21         0.00027
       4 -> 24        -0.00642
       4 -> 26         0.00590
       4 -> 29         0.00114
       4 -> 32        -0.00121
       4 -> 34        -0.00260
       4 -> 36        -0.00027
       4 -> 39        -0.00019
       4 -> 41         0.00013
       4 -> 43        -0.00025
       4 -> 47        -0.00168
       4 -> 51        -0.00022
       5 -> 12         0.02445
       5 -> 15         0.02087
       5 -> 19         0.00174
       5 -> 22         0.00550
       5 -> 25         0.01113
       5 -> 30        -0.00154
       5 -> 33        -0.00335
       5 -> 35         0.00238
       5 -> 40         0.00162
       5 -> 42         0.00064
       5 -> 49         0.00060
       5 -> 50        -0.00055
       5 -> 53        -0.00024
       6 -> 10        -0.05920
       6 -> 11         0.09062
       6 -> 14        -0.05486
       6 -> 16        -0.12041
       6 -> 17        -0.01729
       6 -> 20        -0.02355
       6 -> 21         0.02216
       6 -> 24        -0.02006
       6 -> 26        -0.01025
       6 -> 29        -0.00983
       6 -> 34         0.00225
       6 -> 36        -0.00159
       6 -> 39         0.00044
       6 -> 41        -0.00071
       6 -> 43         0.00061
       6 -> 47         0.00176
       6 -> 51         0.00082
       6 -> 54        -0.00042
       7 ->  9         0.68612
       7 -> 13         0.01148
       7 -> 18        -0.02414
       7 -> 23         0.00345
       7 -> 28        -0.00362
       7 -> 31        -0.00241
       7 -> 37         0.00042
       7 -> 44        -0.00102
       7 -> 48         0.00057
       7 -> 52         0.00102
       8 -> 12        -0.00262
       8 -> 15         0.10295
       8 -> 19        -0.02674
       8 -> 22        -0.03865
       8 -> 25         0.00192
       8 -> 30        -0.01437
       8 -> 33         0.00399
       8 -> 35        -0.00504
       8 -> 40        -0.00219
       8 -> 42        -0.00034
       8 -> 49         0.00070
       8 -> 50         0.00031
       8 -> 53        -0.00089
       3 <- 10         0.00491
       3 <- 11        -0.01042
       3 <- 14         0.00770
       3 <- 16         0.01306
       3 <- 17        -0.00228
       3 <- 20        -0.00151
       3 <- 21        -0.00313
       3 <- 24         0.00297
       3 <- 26         0.00401
       3 <- 32         0.00260
       3 <- 34         0.00242
       3 <- 36         0.00033
       3 <- 39         0.00091
       3 <- 41         0.00013
       3 <- 43         0.00052
       3 <- 45         0.00124
       3 <- 47         0.00191
       3 <- 51         0.00056
       3 <- 54         0.00035
       4 <- 10         0.00940
       4 <- 11         0.00561
       4 <- 14         0.00584
       4 <- 16        -0.00412
       4 <- 17         0.00152
       4 <- 20         0.00551
       4 <- 21         0.00027
       4 <- 24        -0.00402
       4 <- 26         0.00431
       4 <- 29         0.00024
       4 <- 32        -0.00158
       4 <- 34        -0.00222
       4 <- 39        -0.00024
       4 <- 43        -0.00025
       4 <- 45         0.00034
       4 <- 47        -0.00139
       5 <- 12         0.00867
       5 <- 15         0.00894
       5 <- 19         0.00110
       5 <- 22         0.00303
       5 <- 25         0.00680
       5 <- 30        -0.00087
       5 <- 33        -0.00247
       5 <- 35         0.00189
       5 <- 40         0.00138
       5 <- 42         0.00051
       5 <- 49         0.00051
       5 <- 50        -0.00049
       5 <- 53        -0.00021
       6 <- 10        -0.01427
       6 <- 11         0.02347
       6 <- 14        -0.01845
       6 <- 16        -0.04570
       6 <- 17        -0.00708
       6 <- 20        -0.01183
       6 <- 21         0.01148
       6 <- 24        -0.01133
       6 <- 26        -0.00602
       6 <- 29        -0.00634
       6 <- 32         0.00046
       6 <- 34         0.00234
       6 <- 36        -0.00115
       6 <- 39         0.00060
       6 <- 41        -0.00047
       6 <- 43         0.00054
       6 <- 45        -0.00025
       6 <- 47         0.00131
       6 <- 51         0.00063
       6 <- 54        -0.00032
       7 <-  9        -0.11230
       7 <- 13         0.01034
       7 <- 18        -0.01473
       7 <- 23         0.00570
       7 <- 28        -0.00525
       7 <- 31        -0.00083
       7 <- 44        -0.00049
       7 <- 52         0.00086
       8 <- 12        -0.00039
       8 <- 15         0.02691
       8 <- 19        -0.00888
       8 <- 22        -0.01792
       8 <- 25         0.00062
       8 <- 30        -0.00954
       8 <- 33         0.00280
       8 <- 35        -0.00365
       8 <- 40        -0.00172
       8 <- 42        -0.00027
       8 <- 49         0.00048
       8 <- 50         0.00025
       8 <- 53        -0.00079

 Excited State   3:      Singlet-B1     6.4286 eV  192.86 nm  f=0.0015  <S**2>=0.000
       3 ->  9        -0.03191
       3 -> 13         0.00266
       3 -> 18        -0.00561
       3 -> 23         0.00248
       3 -> 28        -0.00144
       3 -> 31        -0.00050
       3 -> 44         0.00036
       3 -> 48         0.00072
       3 -> 52         0.00106
       4 ->  9         0.01519
       4 -> 13        -0.00271
       4 -> 18         0.00053
       4 -> 23        -0.00248
       4 -> 28         0.00019
       4 -> 31        -0.00182
       4 -> 37        -0.00045
       4 -> 48        -0.00135
       4 -> 52        -0.00076
       5 -> 27        -0.00078
       5 -> 38         0.00198
       5 -> 46         0.00150
       6 ->  9         0.70600
       6 -> 13        -0.02391
       6 -> 18         0.01891
       6 -> 23        -0.01161
       6 -> 28         0.00538
       6 -> 31         0.00380
       6 -> 37        -0.00245
       6 -> 44        -0.00328
       6 -> 48         0.00472
       6 -> 52         0.00168
       7 -> 10        -0.00676
       7 -> 11         0.00943
       7 -> 14        -0.00605
       7 -> 16        -0.00669
       7 -> 17        -0.01006
       7 -> 20         0.00221
       7 -> 21        -0.00099
       7 -> 24         0.00030
       7 -> 26        -0.00065
       7 -> 29        -0.00436
       7 -> 32        -0.00103
       7 -> 36         0.00177
       7 -> 39         0.00012
       7 -> 41        -0.00106
       7 -> 43         0.00071
       7 -> 45         0.00309
       7 -> 47         0.00371
       7 -> 51         0.00115
       7 -> 54         0.00054
       8 -> 27         0.00118
       8 -> 38         0.00036
       8 -> 46         0.00608
       3 <-  9        -0.01042
       3 <- 13        -0.00020
       3 <- 18        -0.00317
       3 <- 23        -0.00026
       3 <- 28        -0.00096
       3 <- 31        -0.00055
       3 <- 44        -0.00025
       3 <- 48         0.00094
       3 <- 52         0.00084
       4 <-  9         0.00645
       4 <- 18         0.00226
       4 <- 23        -0.00038
       4 <- 28         0.00199
       4 <- 31        -0.00137
       4 <- 37        -0.00012
       4 <- 44         0.00017
       4 <- 48        -0.00117
       4 <- 52        -0.00043
       5 <- 27        -0.00117
       5 <- 38         0.00155
       5 <- 46         0.00134
       6 <-  9        -0.02286
       6 <- 13         0.00193
       6 <- 18        -0.00303
       6 <- 23        -0.00015
       6 <- 28        -0.00300
       6 <- 31         0.00193
       6 <- 37        -0.00224
       6 <- 44        -0.00194
       6 <- 48         0.00419
       6 <- 52         0.00062
       7 <- 10         0.00488
       7 <- 11        -0.00779
       7 <- 14         0.00581
       7 <- 16         0.01687
       7 <- 20         0.00608
       7 <- 21        -0.00547
       7 <- 24         0.00503
       7 <- 26         0.00228
       7 <- 29         0.00066
       7 <- 32        -0.00077
       7 <- 34        -0.00084
       7 <- 36         0.00281
       7 <- 39         0.00038
       7 <- 41        -0.00064
       7 <- 43         0.00062
       7 <- 45         0.00291
       7 <- 47         0.00325
       7 <- 51         0.00090
       7 <- 54         0.00109
       8 <- 27         0.00148
       8 <- 38         0.00051
       8 <- 46         0.00554

 Excited State   4:      Singlet-B2     6.8705 eV  180.46 nm  f=0.0145  <S**2>=0.000
       3 -> 12         0.00188
       3 -> 15        -0.00025
       3 -> 19         0.00240
       3 -> 22        -0.00030
       3 -> 25         0.00073
       3 -> 30         0.00113
       3 -> 33         0.00037
       3 -> 35        -0.00118
       3 -> 40        -0.00081
       3 -> 42        -0.00011
       3 -> 49         0.00094
       3 -> 50        -0.00014
       3 -> 53        -0.00017
       4 -> 12        -0.00124
       4 -> 15         0.00259
       4 -> 19         0.00123
       4 -> 22        -0.00336
       4 -> 25         0.00288
       4 -> 30        -0.00029
       4 -> 33         0.00016
       4 -> 40         0.00044
       4 -> 42        -0.00011
       4 -> 49        -0.00015
       5 -> 10        -0.00655
       5 -> 14         0.01138
       5 -> 16         0.00501
       5 -> 17        -0.00159
       5 -> 20         0.00011
       5 -> 21        -0.00592
       5 -> 24        -0.00155
       5 -> 26         0.00192
       5 -> 29         0.00131
       5 -> 32        -0.00050
       5 -> 34         0.00112
       5 -> 36         0.00046
       5 -> 39         0.00025
       5 -> 41        -0.00074
       5 -> 43        -0.00022
       5 -> 45         0.00018
       5 -> 47         0.00034
       5 -> 51        -0.00022
       5 -> 54         0.00016
       6 -> 12        -0.00288
       6 -> 15         0.00098
       6 -> 19        -0.00077
       6 -> 22        -0.00120
       6 -> 25         0.00070
       6 -> 33        -0.00044
       6 -> 35         0.00150
       6 -> 40         0.00081
       6 -> 49        -0.00031
       6 -> 53         0.00012
       7 -> 27         0.00015
       7 -> 38        -0.00093
       7 -> 46        -0.00131
       8 -> 10         0.70171
       8 -> 11        -0.05313
       8 -> 14         0.05004
       8 -> 16         0.04370
       8 -> 17         0.00023
       8 -> 20         0.01242
       8 -> 21        -0.00012
       8 -> 24         0.00178
       8 -> 26         0.00443
       8 -> 29         0.00397
       8 -> 32         0.00106
       8 -> 34         0.00025
       8 -> 36         0.00025
       8 -> 39         0.00031
       8 -> 41        -0.00045
       8 -> 43         0.00066
       8 -> 45         0.00124
       8 -> 47         0.00095
       8 -> 51        -0.00092
       8 -> 54         0.00056
       3 <- 12         0.00047
       3 <- 15         0.00019
       3 <- 19         0.00105
       3 <- 22        -0.00070
       3 <- 25         0.00032
       3 <- 30         0.00037
       3 <- 33         0.00032
       3 <- 35        -0.00099
       3 <- 40        -0.00075
       3 <- 49         0.00099
       3 <- 50        -0.00011
       3 <- 53        -0.00035
       4 <- 12         0.00070
       4 <- 15         0.00225
       4 <- 19         0.00120
       4 <- 22        -0.00239
       4 <- 25         0.00183
       4 <- 30        -0.00025
       4 <- 33         0.00026
       4 <- 35        -0.00026
       4 <- 40         0.00010
       4 <- 42        -0.00021
       4 <- 49        -0.00011
       4 <- 50        -0.00010
       5 <- 10         0.00199
       5 <- 11         0.00059
       5 <- 14         0.00431
       5 <- 16        -0.00115
       5 <- 17        -0.00028
       5 <- 21        -0.00149
       5 <- 24        -0.00262
       5 <- 26         0.00110
       5 <- 29         0.00028
       5 <- 32        -0.00077
       5 <- 34         0.00067
       5 <- 36         0.00014
       5 <- 41        -0.00062
       5 <- 43        -0.00024
       5 <- 45         0.00028
       5 <- 47         0.00011
       6 <- 12        -0.00027
       6 <- 15        -0.00188
       6 <- 19         0.00110
       6 <- 22         0.00104
       6 <- 25         0.00024
       6 <- 30         0.00167
       6 <- 33        -0.00054
       6 <- 35         0.00146
       6 <- 40         0.00075
       6 <- 49        -0.00035
       6 <- 50        -0.00012
       6 <- 53         0.00041
       7 <- 27         0.00021
       7 <- 38        -0.00071
       7 <- 46        -0.00104
       8 <- 10        -0.00260
       8 <- 11         0.00380
       8 <- 14        -0.00511
       8 <- 16        -0.00396
       8 <- 17        -0.00032
       8 <- 20         0.00014
       8 <- 21         0.00171
       8 <- 24         0.00038
       8 <- 26        -0.00139
       8 <- 29         0.00017
       8 <- 32        -0.00018
       8 <- 34        -0.00035
       8 <- 36        -0.00040
       8 <- 39        -0.00043
       8 <- 41        -0.00032
       8 <- 43         0.00020
       8 <- 45         0.00132
       8 <- 47         0.00038
       8 <- 51        -0.00046
       8 <- 54         0.00014

 Excited State   5:      Singlet-B2     7.3470 eV  168.76 nm  f=0.0195  <S**2>=0.000
       3 -> 12         0.00058
       3 -> 15         0.00195
       3 -> 19        -0.00220
       3 -> 22        -0.00049
       3 -> 25         0.00065
       3 -> 30        -0.00359
       3 -> 33        -0.00016
       3 -> 35         0.00124
       3 -> 40         0.00100
       3 -> 49        -0.00128
       3 -> 50         0.00015
       4 -> 12        -0.00168
       4 -> 15        -0.00084
       4 -> 22         0.00105
       4 -> 25        -0.00136
       4 -> 30         0.00187
       4 -> 33        -0.00046
       4 -> 35         0.00066
       4 -> 40        -0.00012
       4 -> 50        -0.00012
       5 -> 10        -0.00416
       5 -> 11         0.00185
       5 -> 14        -0.00952
       5 -> 16         0.00365
       5 -> 17         0.00350
       5 -> 20         0.00335
       5 -> 21         0.00370
       5 -> 24         0.00051
       5 -> 26        -0.00173
       5 -> 29        -0.00138
       5 -> 32        -0.00120
       5 -> 34        -0.00040
       5 -> 36        -0.00077
       5 -> 39        -0.00087
       5 -> 41         0.00040
       5 -> 43        -0.00035
       5 -> 45        -0.00080
       5 -> 47        -0.00055
       5 -> 51         0.00052
       6 -> 12         0.00137
       6 -> 15         0.00010
       6 -> 19         0.00116
       6 -> 22        -0.00096
       6 -> 25        -0.00010
       6 -> 30        -0.00130
       6 -> 33         0.00037
       6 -> 35        -0.00137
       6 -> 40        -0.00143
       6 -> 42        -0.00022
       6 -> 49         0.00178
       6 -> 50        -0.00015
       6 -> 53        -0.00019
       7 -> 27        -0.00076
       7 -> 38         0.00047
       7 -> 46         0.00299
       8 -> 10         0.05934
       8 -> 11         0.70013
       8 -> 14        -0.02822
       8 -> 16        -0.07233
       8 -> 17        -0.00412
       8 -> 20         0.01298
       8 -> 21         0.00275
       8 -> 24        -0.00425
       8 -> 26        -0.00084
       8 -> 29        -0.00530
       8 -> 32        -0.00054
       8 -> 34        -0.00072
       8 -> 36        -0.00103
       8 -> 39         0.00014
       8 -> 41         0.00055
       8 -> 43        -0.00026
       8 -> 45        -0.00342
       8 -> 47        -0.00174
       8 -> 51         0.00173

 The electronic state is 1-A1.
 Alpha  occ. eigenvalues --  -19.16670 -10.31474  -0.96335  -0.68246  -0.48857
 Alpha  occ. eigenvalues --   -0.43155  -0.35046  -0.29005
 Alpha virt. eigenvalues --   -0.12407  -0.00165   0.02680   0.04130   0.06174
 Alpha virt. eigenvalues --    0.11281   0.15336   0.16615   0.18954   0.21634
 Alpha virt. eigenvalues --    0.23850   0.30059   0.40075   0.42473   0.50978

 Mulliken charges:
               1
     1  C   -0.036035
     2  H    0.164518
     3  H    0.164518
     4  O   -0.293001
 Sum of Mulliken charges =  -0.00000

 Dipole moment (field-independent basis, Debye):
    X=             -0.0000    Y=             -0.0000    Z=             -3.4425  Tot=              3.4425
 Quadrupole moment (field-independent basis, Debye-Ang):
   XX=            -12.4685   YY=            -11.8027   ZZ=            -11.6947
   XY=              0.0000   XZ=              0.0000   YZ=             -0.0000

 Normal termination of Gaussian 16 at Fri Sep 17 10:52:54 2021.
