 Gaussian 16, Revision C.01,
 Gaussian 16:  ES64L-G16RevC.01  3-Jul-2019

 ---------------------------------------
 #P wB97XD/6-311+G* NoSymm #P Field=Z+97
 ---------------------------------------

 -------
 TitleMe
 -------
 Symbolic Z-matrix:
 Charge =  1 Multiplicity = 1

                          Input orientation:
 ---------------------------------------------------------------------
 Center     Atomic      Atomic             Coordinates (Angstroms)
 Number     Number       Type             X           Y           Z
 ---------------------------------------------------------------------
      1          6           0        0.519300    1.233000   -0.031900
      2          6           0        1.944500    1.269200   -0.036700
      3          6           0        2.620400    0.092800   -0.025000
      4          6           0       -0.196000    0.030100    0.001000
      5          1           0       -0.020700    2.174200   -0.043400
      6          1           0        2.482800    2.208900   -0.036100
      7          1           0       -1.277700    0.039900    0.011700
      8          7           0        4.092100    0.095900    0.036600
      9          8           0        4.639300   -1.021700    0.144600
     10          8           0        4.664900    1.198400   -0.023300
     11          6           0        0.494300   -1.167100    0.021000
     12          1           0       -0.032500   -2.114900    0.054500
     13          6           0        1.962900   -1.216500   -0.021100
     14          1           0        2.443600   -1.963100    0.615100
     15         35           0        2.173000   -1.949100   -1.906200
 ---------------------------------------------------------------------

 SCF Done:  E(RwB97XD) =  -3010.53810157     A.U. after   20 cycles

 Alpha  occ. eigenvalues -- -483.29510 -62.84503 -56.64228 -56.63619 -56.63603
 Alpha  occ. eigenvalues --  -19.45949 -19.45946 -14.85349 -10.58573 -10.57044
 Alpha  occ. eigenvalues --  -10.56614 -10.56172 -10.52754 -10.52146  -9.00288
 Alpha  occ. eigenvalues --   -6.83050  -6.81060  -6.81012  -2.92934  -2.92416
 Alpha  occ. eigenvalues --   -2.92377  -2.90786  -2.90785  -1.49630  -1.32597
 Alpha  occ. eigenvalues --   -1.21688  -1.12171  -1.11564  -1.03578  -0.99510
 Alpha  occ. eigenvalues --   -0.94621  -0.89947  -0.84515  -0.80438  -0.79687
 Alpha  occ. eigenvalues --   -0.79563  -0.77328  -0.75817  -0.74942  -0.71057
 Alpha  occ. eigenvalues --   -0.67866  -0.66920  -0.62302  -0.58857  -0.57104
 Alpha  occ. eigenvalues --   -0.56341  -0.55643  -0.54223  -0.53056
 Alpha virt. eigenvalues --   -0.29215  -0.19943  -0.14455  -0.12534  -0.09500
 Alpha virt. eigenvalues --   -0.06771  -0.06462  -0.05214  -0.03284  -0.02968
 Alpha virt. eigenvalues --   -0.01905  -0.01294  -0.00224   0.00571   0.01470

 Mulliken charges:
               1
     1  C   -0.135244
     2  C    0.215968
     3  C   -0.054698
     4  C   -0.331990
     5  H    0.344043
     6  H    0.348979
     7  H    0.328327
     8  N   -0.260747
     9  O    0.088105
    10  O    0.069375
    11  C   -0.227559
    12  H    0.353814
    13  C   -0.396432
    14  H    0.379890
    15  Br   0.278169
 Sum of Mulliken charges =   1.00000

 Dipole moment (field-independent basis, Debye):
    X=              2.9276    Y=             -1.3007    Z=             -2.4999  Tot=              4.0635
 Quadrupole moment (field-independent basis, Debye-Ang):
   XX=            -67.8776   YY=            -50.5268   ZZ=            -60.0102
   XY=             -3.7704   XZ=             -6.1675   YZ=              4.1634

 Normal termination of Gaussian 16 at Thu May  2 14:20:21 2024.
