 Gaussian 16, Revision C.01,
 Gaussian 16:  ES64L-G16RevC.01  3-Jul-2019

 ---------------------------------------
 #P wB97XD/6-311+G* NoSymm #P Field=Z-38
 ---------------------------------------

 -------
 TitleMe
 -------
 Symbolic Z-matrix:
 Charge =  1 Multiplicity = 1

                          Input orientation:
 ---------------------------------------------------------------------
 Center     Atomic      Atomic             Coordinates (Angstroms)
 Number     Number       Type             X           Y           Z
 ---------------------------------------------------------------------
      1          6           0        0.519300    1.233000   -0.031900
      2          6           0        1.944500    1.269200   -0.036700
      3          6           0        2.620400    0.092800   -0.025000
      4          6           0       -0.196000    0.030100    0.001000
      5          1           0       -0.020700    2.174200   -0.043400
      6          1           0        2.482800    2.208900   -0.036100
      7          1           0       -1.277700    0.039900    0.011700
      8          7           0        4.092100    0.095900    0.036600
      9          8           0        4.639300   -1.021700    0.144600
     10          8           0        4.664900    1.198400   -0.023300
     11          6           0        0.494300   -1.167100    0.021000
     12          1           0       -0.032500   -2.114900    0.054500
     13          6           0        1.962900   -1.216500   -0.021100
     14          1           0        2.443600   -1.963100    0.615100
     15         35           0        2.173000   -1.949100   -1.906200
 ---------------------------------------------------------------------

 SCF Done:  E(RwB97XD) =  -3010.53129185     A.U. after   19 cycles

 Alpha  occ. eigenvalues -- -483.31662 -62.86692 -56.66376 -56.65820 -56.65810
 Alpha  occ. eigenvalues --  -19.46275 -19.46253 -14.85703 -10.59347 -10.58278
 Alpha  occ. eigenvalues --  -10.57431 -10.57133 -10.53501 -10.52853  -9.02503
 Alpha  occ. eigenvalues --   -6.85158  -6.83327  -6.83299  -2.95068  -2.94585
 Alpha  occ. eigenvalues --   -2.94562  -2.93097  -2.93096  -1.49957  -1.32914
 Alpha  occ. eigenvalues --   -1.22590  -1.13049  -1.12611  -1.05111  -1.00472
 Alpha  occ. eigenvalues --   -0.95495  -0.90696  -0.85022  -0.80990  -0.80247
 Alpha  occ. eigenvalues --   -0.80128  -0.78020  -0.76258  -0.75709  -0.72211
 Alpha  occ. eigenvalues --   -0.68662  -0.67698  -0.63606  -0.60106  -0.57460
 Alpha  occ. eigenvalues --   -0.57016  -0.56611  -0.55974  -0.54937
 Alpha virt. eigenvalues --   -0.30291  -0.20463  -0.16019  -0.13158  -0.08806
 Alpha virt. eigenvalues --   -0.06189  -0.06003  -0.05538  -0.03888  -0.03166
 Alpha virt. eigenvalues --   -0.02938  -0.02205  -0.01826  -0.00845  -0.00333

 Mulliken charges:
               1
     1  C   -0.099582
     2  C    0.168635
     3  C   -0.080933
     4  C   -0.335807
     5  H    0.346241
     6  H    0.351109
     7  H    0.331918
     8  N   -0.232386
     9  O    0.088712
    10  O    0.070391
    11  C   -0.192226
    12  H    0.358045
    13  C   -0.343526
    14  H    0.423485
    15  Br   0.145924
 Sum of Mulliken charges =   1.00000

 Dipole moment (field-independent basis, Debye):
    X=              2.7284    Y=             -0.7544    Z=             -0.0696  Tot=              2.8316
 Quadrupole moment (field-independent basis, Debye-Ang):
   XX=            -67.8395   YY=            -51.3819   ZZ=            -63.0497
   XY=             -2.6674   XZ=             -1.1562   YZ=              1.7921

 Normal termination of Gaussian 16 at Thu May  2 14:19:07 2024.
