 Gaussian 16, Revision A.03,
 Gaussian 16:  ES64L-G16RevA.03 25-Dec-2016

 --------------------------------------------------------------------
 #p B3LYP/6-311+G** #p TD=(singlets,nstates=30)IOp(6/8=3) IOp(9/40=4)
 --------------------------------------------------------------------

 -------------------------------
 Scan Step 85, Bond Length 0.925
 -------------------------------
 Symbolic Z-matrix:
 Charge =  0 Multiplicity = 1

                         Standard orientation:
 ---------------------------------------------------------------------
 Center     Atomic      Atomic             Coordinates (Angstroms)
 Number     Number       Type             X           Y           Z
 ---------------------------------------------------------------------
      1          6           0        0.000000    0.000000   -0.388581
      2          1           0        0.000000    0.937260   -0.979931
      3          1           0       -0.000000   -0.937260   -0.979931
      4          8           0        0.000000   -0.000000    0.536419
 ---------------------------------------------------------------------

 SCF Done:  E(RB3LYP) =  -114.306983152     A.U. after    9 cycles

 Excitation energies and oscillator strengths:

 Excited State   1:      Singlet-A2     5.4219 eV  228.67 nm  f=0.0000  <S**2>=0.000
       3 -> 27         0.00294
       3 -> 36         0.00235
       3 -> 46         0.00137
       4 -> 27         0.00337
       4 -> 36        -0.00074
       4 -> 46        -0.00076
       5 ->  9         0.01078
       5 -> 13        -0.00945
       5 -> 17         0.00615
       5 -> 22        -0.00343
       5 -> 28         0.00320
       5 -> 32         0.00222
       5 -> 37         0.00375
       5 -> 43         0.00058
       5 -> 52         0.00077
       6 -> 12        -0.00059
       6 -> 16        -0.00129
       6 -> 18        -0.00067
       6 -> 23         0.00177
       6 -> 24         0.00067
       6 -> 29        -0.00048
       6 -> 33         0.00028
       6 -> 35         0.00055
       6 -> 40        -0.00014
       6 -> 42         0.00049
       6 -> 47         0.00066
       6 -> 50        -0.00017
       6 -> 53         0.00031
       7 -> 27         0.00093
       7 -> 36        -0.00036
       7 -> 46         0.00129
       8 ->  9         0.69583
       8 -> 13        -0.12166
       8 -> 17         0.02922
       8 -> 22        -0.00927
       8 -> 28         0.00560
       8 -> 32         0.00347
       8 -> 37        -0.00219
       8 -> 43        -0.00023
       8 -> 52         0.00103
       3 <- 27         0.00215
       3 <- 36         0.00201
       3 <- 46         0.00142
       4 <- 27         0.00393
       4 <- 36        -0.00041
       4 <- 46        -0.00074
       5 <-  9         0.00026
       5 <- 13        -0.00112
       5 <- 17        -0.00012
       5 <- 22         0.00031
       5 <- 28        -0.00015
       5 <- 32        -0.00110
       5 <- 37         0.00169
       5 <- 43         0.00044
       5 <- 49         0.00012
       5 <- 52         0.00019
       6 <- 12        -0.00095
       6 <- 16         0.00254
       6 <- 18        -0.00311
       6 <- 23         0.00507
       6 <- 24        -0.00149
       6 <- 29         0.00180
       6 <- 33        -0.00100
       6 <- 35         0.00213
       6 <- 40        -0.00020
       6 <- 42         0.00093
       6 <- 47         0.00050
       6 <- 53         0.00081
       7 <- 27         0.00111
       7 <- 36        -0.00040
       7 <- 46         0.00102
       8 <-  9        -0.01059
       8 <- 13         0.00810
       8 <- 17        -0.00407
       8 <- 22         0.00054
       8 <- 28        -0.00041
       8 <- 32         0.00263
       8 <- 37        -0.00228
       8 <- 52         0.00032
 This state for optimization and/or second-order correction.
 Total Energy, E(TD-HF/TD-DFT) =  -114.107732267
 Copying the excited state density for this state as the 1-particle RhoCI density.

 Excited State   2:      Singlet-B2     6.0600 eV  204.60 nm  f=0.0799  <S**2>=0.000
       3 -> 12         0.00095
       3 -> 18         0.00109
       3 -> 24         0.00119
       3 -> 29        -0.00017
       3 -> 35        -0.00013
       3 -> 42         0.00012
       3 -> 50        -0.00014
       4 -> 12        -0.00588
       4 -> 16         0.00083
       4 -> 18         0.00179
       4 -> 23        -0.00275
       4 -> 24         0.00405
       4 -> 29        -0.00044
       4 -> 33        -0.00098
       4 -> 35         0.00089
       4 -> 40        -0.00020
       4 -> 42         0.00044
       5 -> 10         0.00083
       5 -> 11        -0.00740
       5 -> 14         0.00567
       5 -> 15         0.00156
       5 -> 19         0.00370
       5 -> 20        -0.00098
       5 -> 21         0.00320
       5 -> 25         0.00105
       5 -> 26         0.00136
       5 -> 30         0.00239
       5 -> 34         0.00018
       5 -> 38        -0.00074
       5 -> 39         0.00018
       5 -> 41         0.00032
       5 -> 44         0.00044
       5 -> 45        -0.00058
       5 -> 48         0.00035
       6 -> 27         0.00089
       6 -> 36         0.00012
       6 -> 46         0.00084
       7 -> 12         0.00213
       7 -> 16         0.00215
       7 -> 18         0.00412
       7 -> 23        -0.00238
       7 -> 24         0.00229
       7 -> 35        -0.00014
       7 -> 42        -0.00038
       7 -> 47         0.00038
       7 -> 50         0.00051
       8 -> 10         0.70618
       8 -> 11        -0.02154
       8 -> 14        -0.01477
       8 -> 15         0.01144
       8 -> 19         0.01979
       8 -> 20         0.00854
       8 -> 21        -0.00725
       8 -> 25         0.00077
       8 -> 26         0.00069
       8 -> 30         0.00012
       8 -> 31         0.00258
       8 -> 34         0.00166
       8 -> 38         0.00076
       8 -> 39        -0.00057
       8 -> 41        -0.00029
       8 -> 44        -0.00052
       8 -> 45        -0.00103
       8 -> 48         0.00029
       8 -> 54        -0.00015
       3 <- 12         0.00030
       3 <- 16        -0.00016
       3 <- 18         0.00061
       3 <- 23        -0.00015
       3 <- 24         0.00085
       3 <- 29        -0.00016
       3 <- 35        -0.00013
       4 <- 16         0.00049
       4 <- 18         0.00266
       4 <- 23        -0.00166
       4 <- 24         0.00305
       4 <- 29        -0.00035
       4 <- 33        -0.00072
       4 <- 35         0.00066
       4 <- 40        -0.00023
       4 <- 42         0.00017
       5 <- 10         0.00219
       5 <- 14         0.00440
       5 <- 15         0.00162
       5 <- 19         0.00093
       5 <- 20        -0.00024
       5 <- 21         0.00190
       5 <- 25         0.00167
       5 <- 26         0.00128
       5 <- 30         0.00087
       5 <- 31        -0.00037
       5 <- 38        -0.00051
       5 <- 39         0.00016
       5 <- 41         0.00036
       5 <- 44         0.00030
       5 <- 45        -0.00050
       5 <- 48         0.00031
       6 <- 27         0.00069
       6 <- 46         0.00071
       7 <- 12         0.00060
       7 <- 16         0.00158
       7 <- 18         0.00158
       7 <- 23        -0.00095
       7 <- 24         0.00102
       7 <- 29         0.00063
       7 <- 33        -0.00011
       7 <- 35         0.00010
       7 <- 42        -0.00034
       7 <- 47         0.00034
       7 <- 50         0.00055
       8 <- 10        -0.00401
       8 <- 11        -0.00171
       8 <- 14        -0.01192
       8 <- 15        -0.00152
       8 <- 19        -0.00092
       8 <- 20        -0.00031
       8 <- 21        -0.00400
       8 <- 25        -0.00308
       8 <- 26         0.00060
       8 <- 30        -0.00054
       8 <- 31         0.00125
       8 <- 34         0.00158
       8 <- 38         0.00078
       8 <- 39        -0.00047
       8 <- 41        -0.00016
       8 <- 44        -0.00047
       8 <- 45        -0.00072
       8 <- 48         0.00028

 Excited State   3:      Singlet-B2     6.8474 eV  181.07 nm  f=0.0213  <S**2>=0.000
       3 -> 12        -0.00013
       3 -> 16         0.00069
       3 -> 23         0.00018
       3 -> 24         0.00041
       3 -> 29         0.00106
       3 -> 33         0.00014
       3 -> 35        -0.00030
       3 -> 42        -0.00032
       3 -> 47         0.00020
       3 -> 50         0.00023
       4 -> 12         0.00292
       4 -> 16         0.00373
       4 -> 18         0.00236
       4 -> 23        -0.00149
       4 -> 24         0.00362
       4 -> 29        -0.00114
       4 -> 33         0.00056
       4 -> 35        -0.00020
       4 -> 40        -0.00023
       4 -> 47         0.00015
       4 -> 50         0.00014
       5 -> 10        -0.00566
       5 -> 11         0.00012
       5 -> 14         0.00345
       5 -> 15         0.00506
       5 -> 19        -0.00355
       5 -> 20        -0.00110
       5 -> 21         0.00130
       5 -> 25         0.00105
       5 -> 26        -0.00125
       5 -> 30         0.00077
       5 -> 31        -0.00206
       5 -> 34        -0.00058
       5 -> 39        -0.00070
       5 -> 41        -0.00077
       5 -> 44         0.00011
       5 -> 45         0.00061
       5 -> 48        -0.00045
       5 -> 51        -0.00023
       6 -> 27        -0.00080
       6 -> 36        -0.00132
       6 -> 46        -0.00114
       7 -> 12        -0.00300
       7 -> 16         0.00047
       7 -> 18        -0.00240
       7 -> 23         0.00136
       7 -> 24        -0.00024
       7 -> 33        -0.00028
       7 -> 35         0.00127
       7 -> 40        -0.00033
       7 -> 42         0.00070
       7 -> 47        -0.00067
       7 -> 50        -0.00062
       7 -> 53         0.00016
       8 -> 10         0.02203
       8 -> 11         0.70576
       8 -> 14        -0.01621
       8 -> 15        -0.02235
       8 -> 19        -0.01887
       8 -> 20         0.01458
       8 -> 21        -0.00258
       8 -> 25         0.00033
       8 -> 30        -0.00170
       8 -> 31         0.00026
       8 -> 34         0.00041
       8 -> 38        -0.00013
       8 -> 39        -0.00054
       8 -> 41        -0.00136
       8 -> 44         0.00010
       8 -> 45         0.00073
       8 -> 48        -0.00069
       8 -> 51        -0.00018
       8 -> 54         0.00017
       3 <- 12         0.00025
       3 <- 16         0.00057
       3 <- 18         0.00037
       3 <- 24         0.00048
       3 <- 29         0.00070
       3 <- 33         0.00018
       3 <- 35        -0.00033
       3 <- 42        -0.00027
       3 <- 47         0.00016
       3 <- 50         0.00013
       3 <- 53        -0.00021
       4 <- 12         0.00030
       4 <- 16         0.00047
       4 <- 18         0.00120
       4 <- 23        -0.00128
       4 <- 24         0.00168
       4 <- 29        -0.00048
       4 <- 33         0.00055
       4 <- 35         0.00013
       4 <- 40        -0.00023
       4 <- 42        -0.00010
       4 <- 50         0.00021
       5 <- 10         0.00136
       5 <- 11        -0.00037
       5 <- 14         0.00189
       5 <- 15         0.00053
       5 <- 19         0.00064
       5 <- 20         0.00021
       5 <- 21         0.00101
       5 <- 25         0.00094
       5 <- 26        -0.00092
       5 <- 30         0.00082
       5 <- 31        -0.00067
       5 <- 34        -0.00110
       5 <- 38         0.00010
       5 <- 39        -0.00048
       5 <- 41        -0.00078
       5 <- 44         0.00014
       5 <- 45         0.00062
       5 <- 48        -0.00031
       5 <- 51        -0.00023
       6 <- 27        -0.00034
       6 <- 36        -0.00108
       6 <- 46        -0.00098
       7 <- 12        -0.00036
       7 <- 16        -0.00027
       7 <- 18        -0.00027
       7 <- 23         0.00027
       7 <- 29        -0.00027
       7 <- 35         0.00089
       7 <- 40        -0.00026
       7 <- 42         0.00049
       7 <- 47        -0.00058
       7 <- 50        -0.00057
       8 <- 10        -0.00162
       8 <- 11         0.00117
       8 <- 14        -0.00604
       8 <- 15        -0.00125
       8 <- 19         0.00213
       8 <- 20        -0.00185
       8 <- 21        -0.00255
       8 <- 25        -0.00033
       8 <- 26        -0.00098
       8 <- 30        -0.00107
       8 <- 31         0.00112
       8 <- 34        -0.00011
       8 <- 38        -0.00030
       8 <- 39        -0.00030
       8 <- 41        -0.00114
       8 <- 45         0.00063
       8 <- 48        -0.00045
       8 <- 51        -0.00019

 Excited State   4:      Singlet-A1     6.9851 eV  177.50 nm  f=0.0459  <S**2>=0.000
       3 -> 10         0.00137
       3 -> 11        -0.00088
       3 -> 14         0.00018
       3 -> 15         0.00055
       3 -> 19         0.00128
       3 -> 20         0.00046
       3 -> 21        -0.00018
       3 -> 25         0.00018
       3 -> 26         0.00014
       3 -> 30         0.00109
       3 -> 31        -0.00027
       3 -> 34        -0.00020
       3 -> 38        -0.00035
       3 -> 39        -0.00023
       3 -> 41        -0.00015
       3 -> 48        -0.00015
       3 -> 51        -0.00030
       3 -> 54         0.00021
       4 -> 10         0.00557
       4 -> 11         0.01007
       4 -> 14         0.00626
       4 -> 15         0.00152
       4 -> 19         0.00089
       4 -> 20         0.00652
       4 -> 21         0.00233
       4 -> 25         0.00692
       4 -> 26         0.00081
       4 -> 30        -0.00072
       4 -> 31        -0.00057
       4 -> 34        -0.00097
       4 -> 38        -0.00020
       4 -> 39         0.00074
       4 -> 41         0.00018
       4 -> 45        -0.00033
       4 -> 48        -0.00026
       5 -> 12         0.00764
       5 -> 16         0.00685
       5 -> 18         0.00864
       5 -> 23         0.00037
       5 -> 24         0.00436
       5 -> 29         0.00057
       5 -> 33        -0.00016
       5 -> 35         0.00092
       5 -> 42        -0.00022
       5 -> 50        -0.00036
       5 -> 53        -0.00014
       6 ->  9         0.00829
       6 -> 13         0.00410
       6 -> 17         0.00517
       6 -> 22         0.00433
       6 -> 28         0.00056
       6 -> 32         0.00088
       6 -> 37         0.00053
       6 -> 43         0.00054
       6 -> 49        -0.00037
       7 -> 10         0.01324
       7 -> 11        -0.00502
       7 -> 14         0.00320
       7 -> 15        -0.00121
       7 -> 19         0.00737
       7 -> 20         0.00341
       7 -> 21         0.00127
       7 -> 25         0.00207
       7 -> 26         0.00026
       7 -> 31         0.00060
       7 -> 34        -0.00092
       7 -> 39         0.00022
       7 -> 48        -0.00020
       7 -> 51         0.00048
       8 -> 12         0.70552
       8 -> 16         0.04010
       8 -> 18         0.00645
       8 -> 23         0.00412
       8 -> 24         0.00145
       8 -> 29         0.00297
       8 -> 33         0.00153
       8 -> 35        -0.00246
       8 -> 42         0.00133
       8 -> 47        -0.00042
       8 -> 50        -0.00014
       8 -> 53        -0.00014
       3 <- 10         0.00057
       3 <- 11        -0.00031
       3 <- 14         0.00013
       3 <- 15         0.00025
       3 <- 19         0.00068
       3 <- 20         0.00019
       3 <- 25         0.00028
       3 <- 30         0.00065
       3 <- 31        -0.00021
       3 <- 34        -0.00014
       3 <- 38        -0.00027
       3 <- 39        -0.00020
       3 <- 41        -0.00015
       3 <- 48        -0.00017
       3 <- 51        -0.00026
       3 <- 54         0.00019
       4 <- 10         0.00563
       4 <- 11         0.00343
       4 <- 14         0.00465
       4 <- 15         0.00160
       4 <- 19         0.00068
       4 <- 20         0.00368
       4 <- 21         0.00082
       4 <- 25         0.00415
       4 <- 26         0.00036
       4 <- 31        -0.00083
       4 <- 34        -0.00090
       4 <- 38        -0.00030
       4 <- 39         0.00064
       4 <- 45        -0.00031
       4 <- 48        -0.00022
       5 <- 12         0.00267
       5 <- 16         0.00166
       5 <- 18         0.00394
       5 <- 23         0.00057
       5 <- 24         0.00236
       5 <- 29         0.00016
       5 <- 33        -0.00030
       5 <- 35         0.00081
       5 <- 42        -0.00019
       5 <- 50        -0.00028
       5 <- 53        -0.00013
       6 <-  9         0.00265
       6 <- 13         0.00155
       6 <- 17         0.00226
       6 <- 22         0.00252
       6 <- 28         0.00032
       6 <- 32         0.00066
       6 <- 37         0.00043
       6 <- 43         0.00045
       6 <- 49        -0.00032
       7 <- 10         0.00441
       7 <- 11        -0.00109
       7 <- 14         0.00152
       7 <- 15        -0.00041
       7 <- 19         0.00307
       7 <- 20         0.00193
       7 <- 21         0.00046
       7 <- 25         0.00122
       7 <- 26         0.00032
       7 <- 30         0.00018
       7 <- 31         0.00033
       7 <- 34        -0.00065
       7 <- 39         0.00028
       7 <- 41         0.00011
       7 <- 51         0.00044
       8 <- 12        -0.00324
       8 <- 16         0.00676
       8 <- 18        -0.00912
       8 <- 23        -0.00036
       8 <- 24        -0.00225
       8 <- 29         0.00136
       8 <- 33         0.00110
       8 <- 35        -0.00168
       8 <- 42         0.00109
       8 <- 47        -0.00049
       8 <- 50        -0.00013
       8 <- 53        -0.00015

 Excited State   5:      Singlet-A2     7.6537 eV  161.99 nm  f=0.0000  <S**2>=0.000
       3 -> 27        -0.00147
       3 -> 36        -0.00124
       3 -> 46        -0.00064
       4 -> 27        -0.00060
       4 -> 36         0.00070
       4 -> 46         0.00022
       5 ->  9        -0.00921
       5 -> 13         0.00624
       5 -> 17         0.00314
       5 -> 22         0.00070
       5 -> 28        -0.00018
       5 -> 32        -0.00218
       5 -> 37        -0.00221
       5 -> 43        -0.00031
       5 -> 52        -0.00035
       6 -> 12        -0.00029
       6 -> 16         0.00208
       6 -> 18         0.00069
       6 -> 23        -0.00115
       6 -> 24        -0.00024
       6 -> 29         0.00034
       6 -> 35        -0.00033
       6 -> 42        -0.00030
       6 -> 47        -0.00030
       6 -> 53        -0.00016
       7 -> 36         0.00025
       7 -> 46        -0.00068
       8 ->  9         0.12215
       8 -> 13         0.69604
       8 -> 17        -0.00068
       8 -> 22         0.02243
       8 -> 28        -0.00147
       8 -> 32        -0.00144
       8 -> 37         0.00076
       8 -> 43         0.00014
       8 -> 49         0.00017
       8 -> 52        -0.00040
       3 <- 27        -0.00085
       3 <- 36        -0.00100
       3 <- 46        -0.00074
       4 <- 27        -0.00115
       4 <- 46         0.00025
       5 <-  9        -0.00030
       5 <- 13         0.00012
       5 <- 17         0.00058
       5 <- 22        -0.00012
       5 <- 32         0.00020
       5 <- 37        -0.00068
       5 <- 43        -0.00019
       5 <- 52        -0.00011
       6 <- 12        -0.00051
       6 <- 16         0.00049
       6 <- 18         0.00066
       6 <- 23        -0.00231
       6 <- 24         0.00024
       6 <- 33         0.00067
       6 <- 35        -0.00121
       6 <- 40         0.00011
       6 <- 42        -0.00066
       6 <- 47        -0.00012
       6 <- 53        -0.00034
       7 <- 27        -0.00036
       7 <- 36         0.00026
       7 <- 46        -0.00033
       8 <-  9         0.00617
       8 <- 13        -0.00032
       8 <- 17         0.00067
       8 <- 22        -0.00049
       8 <- 28         0.00021
       8 <- 32        -0.00083
       8 <- 37         0.00081
       8 <- 52        -0.00016

 Excited State   6:      Singlet-B2    10.0167 eV  123.78 nm  f=0.2761  <S**2>=0.000
       3 -> 12        -0.00042

 The electronic state is 1-A1.
 Alpha  occ. eigenvalues --  -19.13788 -10.23801  -1.24923  -0.60112  -0.59221
 Alpha  occ. eigenvalues --   -0.53951  -0.51291  -0.24774
 Alpha virt. eigenvalues --    0.00898   0.01386   0.04356   0.04411   0.08392
 Alpha virt. eigenvalues --    0.14098   0.17827   0.20452   0.21917   0.22876
 Alpha virt. eigenvalues --    0.26387   0.36227   0.49927   0.52258   0.52764

 Mulliken charges:
               1
     1  C    0.178816
     2  H    0.016216
     3  H    0.016216
     4  O   -0.211248
 Sum of Mulliken charges =   0.00000

 Dipole moment (field-independent basis, Debye):
    X=              0.0000    Y=              0.0000    Z=             -0.7950  Tot=              0.7950
 Quadrupole moment (field-independent basis, Debye-Ang):
   XX=            -10.8912   YY=            -12.2177   ZZ=            -13.1329
   XY=             -0.0000   XZ=             -0.0000   YZ=             -0.0000

 Normal termination of Gaussian 16 at Fri Sep 17 10:52:33 2021.
