 Gaussian 16, Revision C.01,
 Gaussian 16:  ES64L-G16RevC.01  3-Jul-2019

 ----------------------------------------
 #P wB97XD/6-311+G* NoSymm #P Field=Y+214
 ----------------------------------------

 -------
 TitleMe
 -------
 Symbolic Z-matrix:
 Charge =  1 Multiplicity = 1

                          Input orientation:
 ---------------------------------------------------------------------
 Center     Atomic      Atomic             Coordinates (Angstroms)
 Number     Number       Type             X           Y           Z
 ---------------------------------------------------------------------
      1          6           0        0.519300    1.233000   -0.031900
      2          6           0        1.944500    1.269200   -0.036700
      3          6           0        2.620400    0.092800   -0.025000
      4          6           0       -0.196000    0.030100    0.001000
      5          1           0       -0.020700    2.174200   -0.043400
      6          1           0        2.482800    2.208900   -0.036100
      7          1           0       -1.277700    0.039900    0.011700
      8          7           0        4.092100    0.095900    0.036600
      9          8           0        4.639300   -1.021700    0.144600
     10          8           0        4.664900    1.198400   -0.023300
     11          6           0        0.494300   -1.167100    0.021000
     12          1           0       -0.032500   -2.114900    0.054500
     13          6           0        1.962900   -1.216500   -0.021100
     14          1           0        2.443600   -1.963100    0.615100
     15         35           0        2.173000   -1.949100   -1.906200
 ---------------------------------------------------------------------

 SCF Done:  E(RwB97XD) =  -3010.56604159     A.U. after   23 cycles

 Alpha  occ. eigenvalues -- -483.28165 -62.83130 -56.62870 -56.62246 -56.62223
 Alpha  occ. eigenvalues --  -19.46402 -19.45994 -14.85440 -10.58623 -10.56672
 Alpha  occ. eigenvalues --  -10.55532 -10.55103 -10.53745 -10.52001  -8.98893
 Alpha  occ. eigenvalues --   -6.81692  -6.79653  -6.79581  -2.91566  -2.91042
 Alpha  occ. eigenvalues --   -2.90985  -2.89354  -2.89353  -1.49797  -1.32775
 Alpha  occ. eigenvalues --   -1.21350  -1.12072  -1.10996  -1.02953  -0.99036
 Alpha  occ. eigenvalues --   -0.94237  -0.89834  -0.84654  -0.80467  -0.79839
 Alpha  occ. eigenvalues --   -0.79320  -0.77176  -0.75869  -0.74452  -0.70713
 Alpha  occ. eigenvalues --   -0.67417  -0.66571  -0.62088  -0.58335  -0.57344
 Alpha  occ. eigenvalues --   -0.56448  -0.55691  -0.52347  -0.51746
 Alpha virt. eigenvalues --   -0.28697  -0.20146  -0.17494  -0.13597  -0.13129
 Alpha virt. eigenvalues --   -0.12112  -0.08062  -0.07837  -0.06231  -0.03820
 Alpha virt. eigenvalues --   -0.03483  -0.02251  -0.01043  -0.00165   0.00103

 Mulliken charges:
               1
     1  C   -0.102517
     2  C    0.223036
     3  C   -0.133473
     4  C   -0.395121
     5  H    0.249726
     6  H    0.262087
     7  H    0.326300
     8  N   -0.247880
     9  O    0.208608
    10  O   -0.051237
    11  C   -0.165703
    12  H    0.429038
    13  C   -0.413009
    14  H    0.461170
    15  Br   0.348976
 Sum of Mulliken charges =   1.00000

 Dipole moment (field-independent basis, Debye):
    X=              3.1080    Y=             -7.2227    Z=             -1.6436  Tot=              8.0330
 Quadrupole moment (field-independent basis, Debye-Ang):
   XX=            -67.5318   YY=            -48.5573   ZZ=            -59.9436
   XY=            -16.1797   XZ=             -4.5135   YZ=              5.8146

 Normal termination of Gaussian 16 at Thu May  2 14:22:37 2024.
