 Gaussian 16, Revision A.03,
 Gaussian 16:  ES64L-G16RevA.03 25-Dec-2016

 --------------------------------------------------------------------
 #p B3LYP/6-311+G** #p TD=(singlets,nstates=30)IOp(6/8=3) IOp(9/40=4)
 --------------------------------------------------------------------

 -------------------------------
 Scan Step 188, Bond Length 1.44
 -------------------------------
 Symbolic Z-matrix:
 Charge =  0 Multiplicity = 1

                         Standard orientation:
 ---------------------------------------------------------------------
 Center     Atomic      Atomic             Coordinates (Angstroms)
 Number     Number       Type             X           Y           Z
 ---------------------------------------------------------------------
      1          6           0        0.000000   -0.000000   -0.646081
      2          1           0        0.000000    0.937260   -1.237431
      3          1           0       -0.000000   -0.937260   -1.237431
      4          8           0        0.000000    0.000000    0.793919
 ---------------------------------------------------------------------

 SCF Done:  E(RB3LYP) =  -114.487139501     A.U. after    9 cycles

 Excitation energies and oscillator strengths:

 Excited State   1:      Singlet-A2     2.6652 eV  465.20 nm  f=0.0000  <S**2>=0.000
       3 -> 27         0.00166
       3 -> 38         0.00133
       3 -> 46         0.00308
       4 -> 27         0.00107
       4 -> 38        -0.00027
       4 -> 46        -0.00141
       5 ->  9         0.01344
       5 -> 13         0.00016
       5 -> 18         0.00400
       5 -> 23         0.00139
       5 -> 28         0.00357
       5 -> 31        -0.00063
       5 -> 37         0.00211
       5 -> 44         0.00044
       5 -> 52         0.00051
       6 -> 27        -0.00055
       6 -> 38        -0.00087
       6 -> 46         0.00160
       7 -> 12        -0.00072
       7 -> 15         0.00411
       7 -> 19        -0.00358
       7 -> 22        -0.00031
       7 -> 25         0.00122
       7 -> 30        -0.00127
       7 -> 33         0.00043
       7 -> 42        -0.00011
       7 -> 49         0.00015
       7 -> 50         0.00024
       7 -> 53         0.00047
       8 ->  9         0.70735
       8 -> 13        -0.02099
       8 -> 18         0.02209
       8 -> 23        -0.00602
       8 -> 28         0.01091
       8 -> 37         0.00061
       8 -> 48        -0.00029
       8 -> 52         0.00191
       3 <- 27         0.00092
       3 <- 38         0.00102
       3 <- 46         0.00315
       4 <- 27         0.00173
       4 <- 38         0.00021
       4 <- 46        -0.00115
       5 <-  9        -0.00053
       5 <- 13        -0.00066
       5 <- 18        -0.00090
       5 <- 23         0.00038
       5 <- 28        -0.00063
       5 <- 31         0.00050
       5 <- 37         0.00112
       5 <- 44         0.00015
       5 <- 52         0.00014
       6 <- 38        -0.00073
       6 <- 46         0.00125
       7 <- 15        -0.00919
       7 <- 19         0.00234
       7 <- 22         0.00738
       7 <- 25         0.00036
       7 <- 30         0.00473
       7 <- 33        -0.00084
       7 <- 35         0.00151
       7 <- 40         0.00073
       7 <- 49        -0.00022
       7 <- 50         0.00016
       7 <- 53         0.00143
       8 <-  9        -0.03828
       8 <- 13         0.00130
       8 <- 18        -0.00566
       8 <- 23         0.00052
       8 <- 28        -0.00188
       8 <- 31        -0.00053
       8 <- 37        -0.00077
       8 <- 52         0.00053
 This state for optimization and/or second-order correction.
 Total Energy, E(TD-HF/TD-DFT) =  -114.389195594
 Copying the excited state density for this state as the 1-particle RhoCI density.

 Excited State   2:      Singlet-A1     6.6457 eV  186.56 nm  f=0.1197  <S**2>=0.000
       3 -> 10         0.00740
       3 -> 11        -0.01609
       3 -> 14         0.00981
       3 -> 16         0.02101
       3 -> 17        -0.00691
       3 -> 20        -0.00175
       3 -> 21        -0.00405
       3 -> 24         0.00496
       3 -> 26         0.00696
       3 -> 32         0.00290
       3 -> 34         0.00377
       3 -> 36         0.00099
       3 -> 39         0.00122
       3 -> 41         0.00013
       3 -> 43         0.00051
       3 -> 45         0.00157
       3 -> 47         0.00140
       3 -> 51         0.00047
       3 -> 54         0.00030
       4 -> 10         0.02250
       4 -> 11         0.01044
       4 -> 14         0.01372
       4 -> 16        -0.00607
       4 -> 17         0.00402
       4 -> 20         0.00865
       4 -> 21         0.00018
       4 -> 24        -0.00682
       4 -> 26         0.00604
       4 -> 29         0.00110
       4 -> 32        -0.00121
       4 -> 34        -0.00276
       4 -> 36        -0.00044
       4 -> 39        -0.00020
       4 -> 41         0.00013
       4 -> 43        -0.00020
       4 -> 45        -0.00031
       4 -> 47        -0.00168
       4 -> 51        -0.00019
       5 -> 12         0.02646
       5 -> 15         0.02376
       5 -> 19         0.00187
       5 -> 22         0.00468
       5 -> 25         0.01186
       5 -> 30        -0.00195
       5 -> 33        -0.00336
       5 -> 35         0.00222
       5 -> 40         0.00164
       5 -> 42         0.00067
       5 -> 49         0.00061
       5 -> 50        -0.00052
       5 -> 53        -0.00027
       6 -> 10        -0.05022
       6 -> 11         0.08090
       6 -> 14        -0.04293
       6 -> 16        -0.12129
       6 -> 17        -0.00423
       6 -> 20        -0.02750
       6 -> 21         0.02447
       6 -> 24        -0.02174
       6 -> 26        -0.01120
       6 -> 29        -0.01026
       6 -> 34         0.00253
       6 -> 36        -0.00180
       6 -> 39         0.00034
       6 -> 41        -0.00080
       6 -> 43         0.00055
       6 -> 45         0.00028
       6 -> 47         0.00178
       6 -> 51         0.00080
       6 -> 54        -0.00036
       7 ->  9         0.68577
       7 -> 13         0.01488
       7 -> 18        -0.02536
       7 -> 23         0.00443
       7 -> 28        -0.00413
       7 -> 31        -0.00219
       7 -> 37         0.00032
       7 -> 44        -0.00098
       7 -> 48         0.00059
       7 -> 52         0.00101
       8 -> 12         0.00011
       8 -> 15         0.11239
       8 -> 19        -0.02697
       8 -> 22        -0.04161
       8 -> 25         0.00236
       8 -> 30        -0.01476
       8 -> 33         0.00450
       8 -> 35        -0.00565
       8 -> 40        -0.00239
       8 -> 42        -0.00035
       8 -> 49         0.00070
       8 -> 50         0.00034
       8 -> 53        -0.00093
       3 <- 10         0.00419
       3 <- 11        -0.00992
       3 <- 14         0.00685
       3 <- 16         0.01393
       3 <- 17        -0.00388
       3 <- 20        -0.00096
       3 <- 21        -0.00363
       3 <- 24         0.00336
       3 <- 26         0.00445
       3 <- 29         0.00016
       3 <- 32         0.00263
       3 <- 34         0.00248
       3 <- 36         0.00063
       3 <- 39         0.00096
       3 <- 41         0.00014
       3 <- 43         0.00054
       3 <- 45         0.00153
       3 <- 47         0.00165
       3 <- 51         0.00045
       3 <- 54         0.00035
       4 <- 10         0.00977
       4 <- 11         0.00538
       4 <- 14         0.00620
       4 <- 16        -0.00371
       4 <- 17         0.00184
       4 <- 20         0.00569
       4 <- 21         0.00023
       4 <- 24        -0.00418
       4 <- 26         0.00434
       4 <- 29         0.00020
       4 <- 32        -0.00159
       4 <- 34        -0.00231
       4 <- 36        -0.00019
       4 <- 39        -0.00024
       4 <- 43        -0.00020
       4 <- 45         0.00013
       4 <- 47        -0.00144
       5 <- 12         0.00884
       5 <- 15         0.00974
       5 <- 19         0.00115
       5 <- 22         0.00250
       5 <- 25         0.00706
       5 <- 30        -0.00111
       5 <- 33        -0.00244
       5 <- 35         0.00176
       5 <- 40         0.00138
       5 <- 42         0.00052
       5 <- 49         0.00052
       5 <- 50        -0.00047
       5 <- 53        -0.00023
       6 <- 10        -0.01144
       6 <- 11         0.01982
       6 <- 14        -0.01381
       6 <- 16        -0.04530
       6 <- 17        -0.00181
       6 <- 20        -0.01319
       6 <- 21         0.01236
       6 <- 24        -0.01205
       6 <- 26        -0.00655
       6 <- 29        -0.00652
       6 <- 32         0.00036
       6 <- 34         0.00248
       6 <- 36        -0.00125
       6 <- 39         0.00051
       6 <- 41        -0.00053
       6 <- 43         0.00048
       6 <- 47         0.00138
       6 <- 51         0.00060
       6 <- 54        -0.00027
       7 <-  9        -0.10869
       7 <- 13         0.01102
       7 <- 18        -0.01481
       7 <- 23         0.00623
       7 <- 28        -0.00551
       7 <- 31        -0.00064
       7 <- 44        -0.00045
       7 <- 52         0.00085
       8 <- 15         0.02709
       8 <- 19        -0.00838
       8 <- 22        -0.01855
       8 <- 25         0.00076
       8 <- 30        -0.00960
       8 <- 33         0.00311
       8 <- 35        -0.00404
       8 <- 40        -0.00187
       8 <- 42        -0.00028
       8 <- 49         0.00048
       8 <- 50         0.00026
       8 <- 53        -0.00082

 Excited State   3:      Singlet-B1     6.6862 eV  185.43 nm  f=0.0015  <S**2>=0.000
       3 ->  9        -0.03243
       3 -> 13         0.00293
       3 -> 18        -0.00583
       3 -> 23         0.00267
       3 -> 28        -0.00159
       3 -> 31        -0.00050
       3 -> 44         0.00040
       3 -> 48         0.00064
       3 -> 52         0.00108
       4 ->  9         0.01551
       4 -> 13        -0.00271
       4 -> 18         0.00060
       4 -> 23        -0.00248
       4 -> 28         0.00019
       4 -> 31        -0.00190
       4 -> 37        -0.00046
       4 -> 48        -0.00140
       4 -> 52        -0.00080
       5 -> 27        -0.00095
       5 -> 38         0.00198
       5 -> 46         0.00167
       6 ->  9         0.70594
       6 -> 13        -0.02503
       6 -> 18         0.01942
       6 -> 23        -0.01176
       6 -> 28         0.00569
       6 -> 31         0.00388
       6 -> 37        -0.00250
       6 -> 44        -0.00335
       6 -> 48         0.00485
       6 -> 52         0.00173
       7 -> 10        -0.00415
       7 -> 11         0.00601
       7 -> 14        -0.00430
       7 -> 16        -0.00615
       7 -> 17        -0.00986
       7 -> 20         0.00205
       7 -> 21        -0.00133
       7 -> 24         0.00056
       7 -> 26        -0.00037
       7 -> 29        -0.00447
       7 -> 32        -0.00110
       7 -> 34        -0.00018
       7 -> 36         0.00171
       7 -> 39         0.00012
       7 -> 41        -0.00120
       7 -> 43         0.00076
       7 -> 45         0.00368
       7 -> 47         0.00330
       7 -> 51         0.00114
       7 -> 54         0.00055
       8 -> 27         0.00139
       8 -> 38         0.00044
       8 -> 46         0.00623
       3 <-  9        -0.01051
       3 <- 18        -0.00322
       3 <- 23        -0.00016
       3 <- 28        -0.00105
       3 <- 31        -0.00051
       3 <- 44        -0.00024
       3 <- 48         0.00088
       3 <- 52         0.00086
       4 <-  9         0.00633
       4 <- 18         0.00232
       4 <- 23        -0.00035
       4 <- 28         0.00207
       4 <- 31        -0.00148
       4 <- 44         0.00018
       4 <- 48        -0.00121
       4 <- 52        -0.00045
       5 <- 27        -0.00128
       5 <- 38         0.00154
       5 <- 46         0.00149
       6 <-  9        -0.02255
       6 <- 13         0.00204
       6 <- 18        -0.00301
       6 <- 28        -0.00289
       6 <- 31         0.00211
       6 <- 37        -0.00232
       6 <- 44        -0.00201
       6 <- 48         0.00430
       6 <- 52         0.00064
       7 <- 10         0.00392
       7 <- 11        -0.00656
       7 <- 14         0.00414
       7 <- 16         0.01611
       7 <- 17        -0.00206
       7 <- 20         0.00639
       7 <- 21        -0.00578
       7 <- 24         0.00524
       7 <- 26         0.00249
       7 <- 29         0.00060
       7 <- 32        -0.00088
       7 <- 34        -0.00110
       7 <- 36         0.00273
       7 <- 39         0.00038
       7 <- 41        -0.00076
       7 <- 43         0.00069
       7 <- 45         0.00342
       7 <- 47         0.00285
       7 <- 51         0.00087
       7 <- 54         0.00109
       8 <- 27         0.00163
       8 <- 38         0.00058
       8 <- 46         0.00566

 Excited State   4:      Singlet-B2     6.9152 eV  179.29 nm  f=0.0131  <S**2>=0.000
       3 -> 12         0.00186
       3 -> 19         0.00197
       3 -> 22        -0.00032
       3 -> 25         0.00089
       3 -> 30         0.00064
       3 -> 33         0.00034
       3 -> 35        -0.00094
       3 -> 40        -0.00061
       3 -> 42        -0.00010
       3 -> 49         0.00065
       3 -> 50        -0.00011
       3 -> 53        -0.00015
       4 -> 12        -0.00150
       4 -> 15         0.00242
       4 -> 19         0.00139
       4 -> 22        -0.00324
       4 -> 25         0.00286
       4 -> 40         0.00042
       4 -> 42        -0.00012
       4 -> 49        -0.00012
       5 -> 10        -0.00778
       5 -> 11         0.00179
       5 -> 14         0.00970
       5 -> 16         0.00524
       5 -> 17        -0.00201
       5 -> 20         0.00074
       5 -> 21        -0.00560
       5 -> 24        -0.00139
       5 -> 26         0.00182
       5 -> 29         0.00113
       5 -> 32        -0.00077
       5 -> 34         0.00105
       5 -> 36         0.00036
       5 -> 41        -0.00068
       5 -> 43        -0.00029
       5 -> 47         0.00022
       5 -> 51        -0.00014
       5 -> 54         0.00014
       6 -> 12        -0.00245
       6 -> 15         0.00101
       6 -> 19        -0.00031
       6 -> 22        -0.00146
       6 -> 25         0.00071
       6 -> 30        -0.00021
       6 -> 33        -0.00041
       6 -> 35         0.00125
       6 -> 40         0.00055
       6 -> 50        -0.00010
       7 -> 38        -0.00087
       7 -> 46        -0.00079
       8 -> 10         0.70511
       8 -> 11         0.00570
       8 -> 14         0.03852
       8 -> 16         0.02951
       8 -> 17        -0.00437
       8 -> 20         0.01430
       8 -> 21         0.00081
       8 -> 24         0.00100
       8 -> 26         0.00403
       8 -> 29         0.00290
       8 -> 32         0.00092
       8 -> 39         0.00029
       8 -> 41        -0.00040
       8 -> 43         0.00063
       8 -> 45         0.00075
       8 -> 47         0.00052
       8 -> 51        -0.00064
       8 -> 54         0.00042
       3 <- 12         0.00043
       3 <- 15         0.00031
       3 <- 19         0.00082
       3 <- 22        -0.00065
       3 <- 25         0.00042
       3 <- 30         0.00016
       3 <- 33         0.00029
       3 <- 35        -0.00080
       3 <- 40        -0.00057
       3 <- 49         0.00070
       3 <- 53        -0.00025
       4 <- 12         0.00074
       4 <- 15         0.00213
       4 <- 19         0.00133
       4 <- 22        -0.00222
       4 <- 25         0.00185
       4 <- 33         0.00017
       4 <- 35        -0.00013
       4 <- 42        -0.00021
       4 <- 50        -0.00012
       5 <- 10         0.00205
       5 <- 11         0.00040
       5 <- 14         0.00435
       5 <- 16        -0.00050
       5 <- 17        -0.00028
       5 <- 20         0.00023
       5 <- 21        -0.00137
       5 <- 24        -0.00249
       5 <- 26         0.00116
       5 <- 29         0.00021
       5 <- 32        -0.00081
       5 <- 34         0.00072
       5 <- 36         0.00016
       5 <- 41        -0.00054
       5 <- 43        -0.00027
       5 <- 45         0.00015
       6 <- 12        -0.00025
       6 <- 15        -0.00130
       6 <- 19         0.00094
       6 <- 22         0.00055
       6 <- 25         0.00024
       6 <- 30         0.00117
       6 <- 33        -0.00048
       6 <- 35         0.00120
       6 <- 40         0.00050
       6 <- 50        -0.00014
       6 <- 53         0.00032
       7 <- 27         0.00013
       7 <- 38        -0.00065
       7 <- 46        -0.00061
       8 <- 10        -0.00189
       8 <- 11         0.00245
       8 <- 14        -0.00422
       8 <- 16        -0.00288
       8 <- 17        -0.00011
       8 <- 20        -0.00025
       8 <- 21         0.00150
       8 <- 24         0.00071
       8 <- 26        -0.00120
       8 <- 32         0.00019
       8 <- 36        -0.00039
       8 <- 39        -0.00021
       8 <- 41        -0.00022
       8 <- 43         0.00025
       8 <- 45         0.00082
       8 <- 51        -0.00028
       8 <- 54         0.00012

 Excited State   5:      Singlet-B2     7.4466 eV  166.50 nm  f=0.0240  <S**2>=0.000
       3 -> 12         0.00046
       3 -> 15         0.00179
       3 -> 19        -0.00210
       3 -> 22        -0.00052
       3 -> 25         0.00048
       3 -> 30        -0.00350
       3 -> 33        -0.00019
       3 -> 35         0.00120
       3 -> 40         0.00095
       3 -> 49        -0.00118
       3 -> 50         0.00016
       4 -> 12        -0.00177
       4 -> 15        -0.00096
       4 -> 19        -0.00034
       4 -> 22         0.00132
       4 -> 25        -0.00181
       4 -> 30         0.00183
       4 -> 33        -0.00048
       4 -> 35         0.00066
       4 -> 40        -0.00013
       4 -> 50        -0.00011
       5 -> 10        -0.00189
       5 -> 11         0.00145
       5 -> 14        -0.01073
       5 -> 16         0.00313
       5 -> 17         0.00398
       5 -> 20         0.00356
       5 -> 21         0.00402
       5 -> 24         0.00059
       5 -> 26        -0.00192
       5 -> 29        -0.00146
       5 -> 32        -0.00090
       5 -> 34        -0.00048
       5 -> 36        -0.00077
       5 -> 39        -0.00080
       5 -> 41         0.00049
       5 -> 43        -0.00032
       5 -> 45        -0.00089
       5 -> 47        -0.00045
       5 -> 51         0.00052
       6 -> 12         0.00183
       6 -> 15         0.00031
       6 -> 19         0.00105
       6 -> 22        -0.00088
       6 -> 25        -0.00014
       6 -> 30        -0.00132
       6 -> 33         0.00044
       6 -> 35        -0.00148
       6 -> 40        -0.00143
       6 -> 42        -0.00019
       6 -> 49         0.00173
       6 -> 50        -0.00016
       6 -> 53        -0.00018
       7 -> 27        -0.00070
       7 -> 38         0.00058
       7 -> 46         0.00289
       8 -> 10        -0.00187
       8 -> 11         0.70345
       8 -> 14        -0.02139
       8 -> 16        -0.06669
       8 -> 17         0.00395
       8 -> 20         0.01178
       8 -> 21         0.00144
       8 -> 24        -0.00363
       8 -> 26        -0.00088
       8 -> 29        -0.00493
       8 -> 32        -0.00040
       8 -> 34        -0.00054
       8 -> 36        -0.00091
       8 -> 39         0.00018
       8 -> 41         0.00068
       8 -> 43        -0.00035
       8 -> 45        -0.00350
       8 -> 47        -0.00114
       8 -> 51         0.00167
       8 -> 54        -0.00039
       3 <- 12        -0.00030
       3 <- 15         0.00064
       3 <- 19        -0.00137
       3 <- 25         0.00014
       3 <- 30        -0.00171
       3 <- 33        -0.00027
       3 <- 35         0.00104
       3 <- 40         0.00087
       3 <- 49        -0.00116
       3 <- 50         0.00012
       3 <- 53         0.00052
       4 <- 15        -0.00093
       4 <- 19         0.00019
       4 <- 22         0.00120
       4 <- 25        -0.00079

 The electronic state is 1-A1.
 Alpha  occ. eigenvalues --  -19.16523 -10.31157  -0.97300  -0.67883  -0.48909
 Alpha  occ. eigenvalues --   -0.43513  -0.35582  -0.28989
 Alpha virt. eigenvalues --   -0.11854  -0.00028   0.02922   0.04141   0.06191
 Alpha virt. eigenvalues --    0.11576   0.15565   0.18025   0.18960   0.21684
 Alpha virt. eigenvalues --    0.23807   0.30075   0.40409   0.42833   0.50974

 Mulliken charges:
               1
     1  C   -0.030197
     2  H    0.160257
     3  H    0.160257
     4  O   -0.290316
 Sum of Mulliken charges =  -0.00000

 Dipole moment (field-independent basis, Debye):
    X=             -0.0000    Y=             -0.0000    Z=             -3.3594  Tot=              3.3594
 Quadrupole moment (field-independent basis, Debye-Ang):
   XX=            -12.3991   YY=            -11.7856   ZZ=            -11.7814
   XY=              0.0000   XZ=              0.0000   YZ=              0.0000

 Normal termination of Gaussian 16 at Fri Sep 17 10:52:52 2021.
