 Gaussian 16, Revision A.03,
 Gaussian 16:  ES64L-G16RevA.03 25-Dec-2016

 --------------------------------------------------------------------
 #p B3LYP/6-311+G** #p TD=(singlets,nstates=30)IOp(6/8=3) IOp(9/40=4)
 --------------------------------------------------------------------

 -------------------------------
 Scan Step 162, Bond Length 1.31
 -------------------------------
 Symbolic Z-matrix:
 Charge =  0 Multiplicity = 1

                         Standard orientation:
 ---------------------------------------------------------------------
 Center     Atomic      Atomic             Coordinates (Angstroms)
 Number     Number       Type             X           Y           Z
 ---------------------------------------------------------------------
      1          6           0        0.000000    0.000000   -0.581081
      2          1           0        0.000000    0.937260   -1.172431
      3          1           0       -0.000000   -0.937260   -1.172431
      4          8           0        0.000000   -0.000000    0.728919
 ---------------------------------------------------------------------

 SCF Done:  E(RB3LYP) =  -114.527100417     A.U. after    9 cycles

 Excitation energies and oscillator strengths:

 Excited State   1:      Singlet-A2     3.3405 eV  371.15 nm  f=0.0000  <S**2>=0.000
       3 -> 27         0.00212
       3 -> 38         0.00176
       3 -> 45         0.00278
       4 -> 27         0.00150
       4 -> 38        -0.00042
       4 -> 45        -0.00139
       5 ->  9         0.01856
       5 -> 13        -0.00133
       5 -> 17         0.00500
       5 -> 23         0.00069
       5 -> 29         0.00424
       5 -> 31        -0.00148
       5 -> 37         0.00286
       5 -> 44         0.00054
       5 -> 48         0.00013
       5 -> 52         0.00066
       6 -> 27        -0.00035
       6 -> 38        -0.00088
       6 -> 45         0.00174
       7 -> 12        -0.00063
       7 -> 15         0.00342
       7 -> 18        -0.00316
       7 -> 22         0.00024
       7 -> 25         0.00138
       7 -> 30        -0.00105
       7 -> 33         0.00045
       7 -> 35         0.00016
       7 -> 40         0.00015
       7 -> 42        -0.00012
       7 -> 49         0.00023
       7 -> 50         0.00031
       7 -> 53         0.00048
       8 ->  9         0.70637
       8 -> 13        -0.03133
       8 -> 17         0.02253
       8 -> 23        -0.00851
       8 -> 29         0.01012
       8 -> 31        -0.00148
       8 -> 37         0.00032
       8 -> 48        -0.00027
       8 -> 52         0.00181
       3 <- 27         0.00130
       3 <- 38         0.00143
       3 <- 45         0.00286
       4 <- 27         0.00227
       4 <- 38         0.00013
       4 <- 45        -0.00116
       5 <-  9        -0.00056
       5 <- 13        -0.00076
       5 <- 17        -0.00100
       5 <- 23         0.00049
       5 <- 29        -0.00071
       5 <- 31         0.00071
       5 <- 37         0.00142
       5 <- 44         0.00020
       5 <- 48         0.00013
       5 <- 52         0.00018
       6 <- 27         0.00026
       6 <- 38        -0.00077
       6 <- 45         0.00136
       7 <- 12        -0.00055
       7 <- 15        -0.00816
       7 <- 18         0.00116
       7 <- 22         0.00747
       7 <- 25         0.00012
       7 <- 30         0.00404
       7 <- 33        -0.00117
       7 <- 35         0.00208
       7 <- 40         0.00089
       7 <- 50         0.00021
       7 <- 53         0.00136
       8 <-  9        -0.02953
       8 <- 13         0.00219
       8 <- 17        -0.00487
       8 <- 23         0.00073
       8 <- 29        -0.00135
       8 <- 31        -0.00060
       8 <- 37        -0.00112
       8 <- 52         0.00051
 This state for optimization and/or second-order correction.
 Total Energy, E(TD-HF/TD-DFT) =  -114.404338331
 Copying the excited state density for this state as the 1-particle RhoCI density.

 Excited State   2:      Singlet-B2     6.9449 eV  178.53 nm  f=0.0185  <S**2>=0.000
       3 -> 12         0.00168
       3 -> 15         0.00063
       3 -> 18         0.00131
       3 -> 22        -0.00034
       3 -> 25         0.00119
       3 -> 33         0.00026
       3 -> 35        -0.00053
       3 -> 40        -0.00022
       3 -> 49         0.00016
       4 -> 12        -0.00244
       4 -> 15         0.00206
       4 -> 18         0.00181
       4 -> 22        -0.00321
       4 -> 25         0.00306
       4 -> 30         0.00034
       4 -> 33        -0.00029
       4 -> 35         0.00042
       4 -> 40         0.00043
       4 -> 42        -0.00013
       5 -> 10        -0.00831
       5 -> 11        -0.00670
       5 -> 14         0.00714
       5 -> 16        -0.00062
       5 -> 19        -0.00298
       5 -> 20         0.00263
       5 -> 21         0.00573
       5 -> 24        -0.00068
       5 -> 26         0.00206
       5 -> 28         0.00098
       5 -> 32        -0.00107
       5 -> 34        -0.00098
       5 -> 36        -0.00018
       5 -> 39        -0.00022
       5 -> 41        -0.00050
       5 -> 43        -0.00046
       5 -> 46        -0.00018
       5 -> 54         0.00013
       6 -> 12        -0.00090
       6 -> 15         0.00138
       6 -> 18         0.00111
       6 -> 22        -0.00219
       6 -> 25         0.00093
       6 -> 30        -0.00051
       6 -> 33        -0.00029
       6 -> 35         0.00063
       6 -> 42        -0.00016
       6 -> 49         0.00041
       6 -> 50        -0.00020
       7 -> 38        -0.00069
       7 -> 45         0.00014
       8 -> 10         0.70267
       8 -> 11        -0.07278
       8 -> 14         0.02067
       8 -> 16        -0.00363
       8 -> 19        -0.00070
       8 -> 20         0.01762
       8 -> 21        -0.00226
       8 -> 26         0.00302
       8 -> 28         0.00114
       8 -> 32         0.00093
       8 -> 34         0.00067
       8 -> 36         0.00028
       8 -> 39         0.00031
       8 -> 41        -0.00025
       8 -> 43         0.00059
       8 -> 46        -0.00031
       8 -> 47         0.00017
       8 -> 51        -0.00018
       8 -> 54         0.00022
       3 <- 12         0.00037
       3 <- 15         0.00050
       3 <- 18         0.00049
       3 <- 22        -0.00053
       3 <- 25         0.00065
       3 <- 30        -0.00010
       3 <- 33         0.00022
       3 <- 35        -0.00047
       3 <- 40        -0.00023
       3 <- 49         0.00021
       4 <- 12         0.00078
       4 <- 15         0.00197
       4 <- 18         0.00172
       4 <- 22        -0.00202
       4 <- 25         0.00206
       4 <- 30         0.00024
       4 <- 33        -0.00012
       4 <- 35         0.00018
       4 <- 40         0.00011
       4 <- 42        -0.00022
       4 <- 50        -0.00014
       5 <- 10         0.00224
       5 <- 11        -0.00023
       5 <- 14         0.00458
       5 <- 16        -0.00051
       5 <- 19        -0.00041
       5 <- 20         0.00071
       5 <- 21         0.00164
       5 <- 24        -0.00216
       5 <- 26         0.00140
       5 <- 28         0.00011
       5 <- 32        -0.00080
       5 <- 34        -0.00087
       5 <- 36        -0.00023
       5 <- 39        -0.00013
       5 <- 41        -0.00032
       5 <- 43        -0.00037
       5 <- 46        -0.00016
       6 <- 15        -0.00030
       6 <- 18         0.00093
       6 <- 22        -0.00040
       6 <- 25         0.00031
       6 <- 30         0.00039
       6 <- 33        -0.00034
       6 <- 35         0.00066
       6 <- 42        -0.00014
       6 <- 49         0.00033
       6 <- 50        -0.00022
       6 <- 53         0.00017
       7 <- 38        -0.00051
       7 <- 45         0.00015
       8 <- 10        -0.00140
       8 <- 11        -0.00066
       8 <- 14        -0.00417
       8 <- 16        -0.00059
       8 <- 19         0.00050
       8 <- 20        -0.00072
       8 <- 21        -0.00142
       8 <- 24         0.00171
       8 <- 26        -0.00088
       8 <- 28        -0.00039
       8 <- 32         0.00087
       8 <- 36         0.00031
       8 <- 39         0.00018
       8 <- 43         0.00035
       8 <- 46        -0.00014

 Excited State   3:      Singlet-B2     7.6726 eV  161.59 nm  f=0.0283  <S**2>=0.000
       3 -> 12        -0.00036
       3 -> 15        -0.00110
       3 -> 18         0.00125
       3 -> 22         0.00053
       3 -> 30         0.00269
       3 -> 33         0.00016
       3 -> 35        -0.00071
       3 -> 40        -0.00060
       3 -> 49         0.00069
       3 -> 50        -0.00017
       4 -> 12         0.00232
       4 -> 15         0.00055
       4 -> 18         0.00160
       4 -> 22        -0.00149
       4 -> 25         0.00268
       4 -> 30        -0.00147
       4 -> 33         0.00048
       4 -> 35        -0.00060
       4 -> 49         0.00022
       5 -> 10        -0.00472
       5 -> 11        -0.00013
       5 -> 14         0.01035
       5 -> 16        -0.00658
       5 -> 20        -0.00463
       5 -> 21         0.00290
       5 -> 24        -0.00071
       5 -> 26         0.00176
       5 -> 28         0.00152
       5 -> 34        -0.00075
       5 -> 36        -0.00046
       5 -> 39         0.00050
       5 -> 41        -0.00064
       5 -> 43         0.00022
       5 -> 46         0.00092
       5 -> 47         0.00010
       5 -> 51        -0.00044
       6 -> 12        -0.00270
       6 -> 15        -0.00126
       6 -> 18        -0.00072
       6 -> 22         0.00102
       6 -> 25         0.00017
       6 -> 30         0.00122
       6 -> 33        -0.00055
       6 -> 35         0.00149
       6 -> 40         0.00118
       6 -> 49        -0.00136
       6 -> 50         0.00025
       6 -> 53         0.00012
       7 -> 27         0.00033
       7 -> 38        -0.00078
       7 -> 45        -0.00215
       8 -> 10         0.07267
       8 -> 11         0.70214
       8 -> 14         0.00112
       8 -> 16         0.00841
       8 -> 19        -0.03813
       8 -> 20        -0.00397
       8 -> 21        -0.00251
       8 -> 24         0.00086
       8 -> 26        -0.00033
       8 -> 28         0.00259
       8 -> 32         0.00010
       8 -> 34        -0.00021
       8 -> 36        -0.00031
       8 -> 39        -0.00027
       8 -> 41        -0.00104
       8 -> 43         0.00040
       8 -> 46         0.00258
       8 -> 51        -0.00118
       3 <- 12         0.00034
       3 <- 15        -0.00035
       3 <- 18         0.00107
       3 <- 25         0.00017
       3 <- 30         0.00142
       3 <- 33         0.00027
       3 <- 35        -0.00071
       3 <- 40        -0.00055
       3 <- 49         0.00063
       3 <- 50        -0.00012
       3 <- 53        -0.00036
       4 <- 12         0.00027
       4 <- 15         0.00090
       4 <- 18         0.00032
       4 <- 22        -0.00118
       4 <- 25         0.00116
       4 <- 30        -0.00080
       4 <- 33         0.00046
       4 <- 35        -0.00033
       4 <- 49         0.00016
       5 <- 10         0.00114
       5 <- 11        -0.00144
       5 <- 14         0.00276
       5 <- 16        -0.00043
       5 <- 19         0.00164
       5 <- 20        -0.00032
       5 <- 21         0.00088
       5 <- 24        -0.00143
       5 <- 26         0.00017
       5 <- 28         0.00062
       5 <- 32        -0.00079
       5 <- 34         0.00014
       5 <- 36         0.00011
       5 <- 39         0.00012
       5 <- 41        -0.00068
       5 <- 43         0.00012
       5 <- 46         0.00089
       5 <- 51        -0.00030
       6 <- 12        -0.00025
       6 <- 15        -0.00124
       6 <- 18         0.00046
       6 <- 22         0.00103
       6 <- 25        -0.00015
       6 <- 30         0.00132
       6 <- 33        -0.00050
       6 <- 35         0.00134
       6 <- 40         0.00096
       6 <- 49        -0.00112
       6 <- 50         0.00019
       6 <- 53         0.00010
       7 <- 27         0.00042
       7 <- 38        -0.00062
       7 <- 45        -0.00179
       8 <- 10        -0.00094
       8 <- 11        -0.00232
       8 <- 14        -0.00366
       8 <- 16         0.00038
       8 <- 19         0.00576
       8 <- 20         0.00077
       8 <- 21        -0.00191
       8 <- 24        -0.00052
       8 <- 26        -0.00165
       8 <- 28         0.00071
       8 <- 32        -0.00137
       8 <- 34         0.00172
       8 <- 39        -0.00079
       8 <- 41        -0.00099
       8 <- 43         0.00018
       8 <- 46         0.00209
       8 <- 47        -0.00028
       8 <- 51        -0.00077

 Excited State   4:      Singlet-B1     7.9167 eV  156.61 nm  f=0.0013  <S**2>=0.000
       3 ->  9        -0.03352
       3 -> 13         0.00441
       3 -> 17        -0.00676
       3 -> 23         0.00365
       3 -> 29        -0.00232
       3 -> 31        -0.00036
       3 -> 44         0.00059
       3 -> 48         0.00028
       3 -> 52         0.00112
       4 ->  9         0.01665
       4 -> 13        -0.00274
       4 -> 17         0.00090
       4 -> 23        -0.00249
       4 -> 29         0.00010
       4 -> 31        -0.00234
       4 -> 37        -0.00043
       4 -> 48        -0.00158
       4 -> 52        -0.00094
       5 -> 27        -0.00159
       5 -> 38         0.00206
       5 -> 45         0.00256
       6 ->  9         0.70530
       6 -> 13        -0.03191
       6 -> 17         0.02191
       6 -> 23        -0.01232
       6 -> 29         0.00738
       6 -> 31         0.00386
       6 -> 37        -0.00262
       6 -> 44        -0.00351
       6 -> 48         0.00541
       6 -> 52         0.00192
       7 -> 10         0.00203
       7 -> 11         0.00574
       7 -> 14        -0.00021
       7 -> 16        -0.01216
       7 -> 19        -0.00282
       7 -> 20         0.00219
       7 -> 21         0.00326
       7 -> 24         0.00223
       7 -> 26         0.00160
       7 -> 28        -0.00474
       7 -> 32        -0.00128
       7 -> 34         0.00014
       7 -> 36        -0.00156
       7 -> 39         0.00025
       7 -> 41        -0.00193
       7 -> 43         0.00098
       7 -> 46         0.00483
       7 -> 47         0.00240
       7 -> 51         0.00111
       7 -> 54         0.00056
       8 -> 27         0.00258
       8 -> 38         0.00087
       8 -> 45         0.00676
       3 <-  9        -0.01051
       3 <- 13         0.00058
       3 <- 17        -0.00336
       3 <- 23         0.00036
       3 <- 29        -0.00142
       3 <- 31        -0.00025
       3 <- 37        -0.00014
       3 <- 44        -0.00014
       3 <- 48         0.00056
       3 <- 52         0.00091
       4 <-  9         0.00559
       4 <- 17         0.00249
       4 <- 23        -0.00030
       4 <- 29         0.00225
       4 <- 31        -0.00220
       4 <- 37         0.00013
       4 <- 44         0.00020
       4 <- 48        -0.00136
       4 <- 52        -0.00051
       5 <- 27        -0.00166
       5 <- 38         0.00156
       5 <- 45         0.00226
       6 <-  9        -0.02154
       6 <- 13         0.00290
       6 <- 17        -0.00304
       6 <- 23         0.00049
       6 <- 29        -0.00220
       6 <- 31         0.00298
       6 <- 37        -0.00262
       6 <- 44        -0.00217
       6 <- 48         0.00473
       6 <- 52         0.00070
       7 <- 10         0.00189
       7 <- 11         0.00313
       7 <- 14         0.00097
       7 <- 16         0.00061
       7 <- 19        -0.00956
       7 <- 20         0.00826
       7 <- 21         0.00704
       7 <- 24         0.00653
       7 <- 26         0.00396
       7 <- 28         0.00062
       7 <- 32        -0.00120
       7 <- 34         0.00154
       7 <- 36        -0.00249
       7 <- 39         0.00047
       7 <- 41        -0.00135
       7 <- 43         0.00095
       7 <- 46         0.00434
       7 <- 47         0.00196
       7 <- 51         0.00077
       7 <- 54         0.00103
       8 <- 27         0.00237
       8 <- 38         0.00090
       8 <- 45         0.00596

 Excited State   5:      Singlet-A1     7.9675 eV  155.61 nm  f=0.0205  <S**2>=0.000
       3 -> 10         0.00285
       3 -> 11         0.00149
       3 -> 14         0.00225
       3 -> 16        -0.00019
       3 -> 19        -0.00547
       3 -> 20         0.00247
       3 -> 21         0.00188
       3 -> 24         0.00169
       3 -> 26         0.00242
       3 -> 28         0.00099
       3 -> 32         0.00057
       3 -> 34        -0.00137
       3 -> 36        -0.00038
       3 -> 39         0.00027
       3 -> 41        -0.00015
       3 -> 43         0.00017
       3 -> 46         0.00043
       3 -> 47        -0.00021
       3 -> 51        -0.00012
       3 -> 54        -0.00012
       4 -> 10         0.00817
       4 -> 11         0.00210
       4 -> 14         0.00616
       4 -> 16         0.00091
       4 -> 19         0.00146
       4 -> 20         0.00374
       4 -> 21        -0.00087
       4 -> 24        -0.00742
       4 -> 26         0.00305
       4 -> 28        -0.00012
       4 -> 32        -0.00074
       4 -> 34         0.00073
       4 -> 36         0.00020
       4 -> 43         0.00015
       4 -> 46        -0.00028
       4 -> 47        -0.00024
       4 -> 51        -0.00012
       5 -> 12         0.00907
       5 -> 15         0.00806
       5 -> 18         0.00851
       5 -> 22        -0.00274
       5 -> 25         0.00710
       5 -> 30        -0.00086
       5 -> 33        -0.00058
       5 -> 35         0.00085
       5 -> 40         0.00028
       5 -> 53        -0.00015
       6 -> 10         0.00590
       6 -> 11        -0.00767
       6 -> 14         0.00183
       6 -> 16        -0.00467
       6 -> 19         0.01170
       6 -> 20        -0.00503
       6 -> 21        -0.00603
       6 -> 24        -0.00839
       6 -> 26        -0.00246
       6 -> 28        -0.00387
       6 -> 32        -0.00018
       6 -> 34        -0.00061
       6 -> 36         0.00032
       6 -> 39         0.00025
       6 -> 41        -0.00013
       6 -> 43         0.00020
       6 -> 47         0.00090
       6 -> 51         0.00027
       6 -> 54        -0.00014
       7 ->  9         0.11810
       7 -> 13         0.01657
       7 -> 17        -0.00398
       7 -> 23         0.00597
       7 -> 29        -0.00173
       7 -> 31        -0.00114
       7 -> 37         0.00056
       7 -> 44         0.00049
       7 -> 48        -0.00023
       8 -> 12         0.69563
       8 -> 15         0.02504
       8 -> 18         0.02510
       8 -> 22        -0.00489
       8 -> 25         0.00576
       8 -> 30        -0.00313
       8 -> 33         0.00249
       8 -> 35        -0.00293
       8 -> 40        -0.00011
       8 -> 49        -0.00040
       8 -> 50         0.00027
       8 -> 53        -0.00039
       3 <- 10         0.00096
       3 <- 11         0.00147
       3 <- 14         0.00127
       3 <- 16         0.00015
       3 <- 19        -0.00325
       3 <- 20         0.00115
       3 <- 21         0.00137
       3 <- 24         0.00083
       3 <- 26         0.00165
       3 <- 28         0.00067
       3 <- 32         0.00063
       3 <- 34        -0.00091
       3 <- 36        -0.00025
       3 <- 39         0.00020
       3 <- 43         0.00016
       3 <- 46         0.00052
       3 <- 47        -0.00011
       3 <- 54        -0.00010
       4 <- 10         0.00494
       4 <- 14         0.00383
       4 <- 16         0.00013
       4 <- 19         0.00065
       4 <- 20         0.00211
       4 <- 21        -0.00064
       4 <- 24        -0.00402
       4 <- 26         0.00188
       4 <- 32        -0.00099
       4 <- 34         0.00023
       4 <- 41        -0.00016
       4 <- 43         0.00012
       4 <- 46        -0.00015
       4 <- 47        -0.00022
       5 <- 12         0.00371
       5 <- 15         0.00454
       5 <- 18         0.00316
       5 <- 22        -0.00109

 The electronic state is 1-A1.
 Alpha  occ. eigenvalues --  -19.15792 -10.29537  -1.02348  -0.66150  -0.49503
 Alpha  occ. eigenvalues --   -0.45090  -0.38378  -0.28736
 Alpha virt. eigenvalues --   -0.09121   0.00442   0.03609   0.04201   0.06300
 Alpha virt. eigenvalues --    0.12405   0.16695   0.18785   0.21873   0.23537
 Alpha virt. eigenvalues --    0.24489   0.30774   0.42704   0.44658   0.50928

 Mulliken charges:
               1
     1  C   -0.004865
     2  H    0.137132
     3  H    0.137132
     4  O   -0.269400
 Sum of Mulliken charges =  -0.00000

 Dipole moment (field-independent basis, Debye):
    X=             -0.0000    Y=              0.0000    Z=             -2.9336  Tot=              2.9336
 Quadrupole moment (field-independent basis, Debye-Ang):
   XX=            -12.0634   YY=            -11.7344   ZZ=            -12.1491
   XY=              0.0000   XZ=              0.0000   YZ=              0.0000

 Normal termination of Gaussian 16 at Fri Sep 17 10:52:47 2021.
