 Gaussian 16, Revision C.01,
 Gaussian 16:  ES64L-G16RevC.01  3-Jul-2019

 ----------------------------------------
 #P wB97XD/6-311+G* NoSymm #P Field=Z+194
 ----------------------------------------

 -------
 TitleMe
 -------
 Symbolic Z-matrix:
 Charge =  1 Multiplicity = 1

                          Input orientation:
 ---------------------------------------------------------------------
 Center     Atomic      Atomic             Coordinates (Angstroms)
 Number     Number       Type             X           Y           Z
 ---------------------------------------------------------------------
      1          6           0        0.519300    1.233000   -0.031900
      2          6           0        1.944500    1.269200   -0.036700
      3          6           0        2.620400    0.092800   -0.025000
      4          6           0       -0.196000    0.030100    0.001000
      5          1           0       -0.020700    2.174200   -0.043400
      6          1           0        2.482800    2.208900   -0.036100
      7          1           0       -1.277700    0.039900    0.011700
      8          7           0        4.092100    0.095900    0.036600
      9          8           0        4.639300   -1.021700    0.144600
     10          8           0        4.664900    1.198400   -0.023300
     11          6           0        0.494300   -1.167100    0.021000
     12          1           0       -0.032500   -2.114900    0.054500
     13          6           0        1.962900   -1.216500   -0.021100
     14          1           0        2.443600   -1.963100    0.615100
     15         35           0        2.173000   -1.949100   -1.906200
 ---------------------------------------------------------------------

 SCF Done:  E(RwB97XD) =  -3010.55102278     A.U. after   21 cycles

 Alpha  occ. eigenvalues -- -483.28157 -62.83119 -56.62872 -56.62229 -56.62206
 Alpha  occ. eigenvalues --  -19.45779 -19.45772 -14.85145 -10.58066 -10.56274
 Alpha  occ. eigenvalues --  -10.56071 -10.55521 -10.52281 -10.51702  -8.98881
 Alpha  occ. eigenvalues --   -6.81715  -6.79621  -6.79552  -2.91581  -2.91042
 Alpha  occ. eigenvalues --   -2.90987  -2.89314  -2.89312  -1.49441  -1.32418
 Alpha  occ. eigenvalues --   -1.21113  -1.11704  -1.10821  -1.02642  -0.98796
 Alpha  occ. eigenvalues --   -0.94035  -0.89463  -0.84210  -0.80112  -0.79401
 Alpha  occ. eigenvalues --   -0.79146  -0.76884  -0.75534  -0.74441  -0.70337
 Alpha  occ. eigenvalues --   -0.67352  -0.66419  -0.61415  -0.58191  -0.56908
 Alpha  occ. eigenvalues --   -0.56141  -0.55451  -0.52462  -0.51564
 Alpha virt. eigenvalues --   -0.28531  -0.19668  -0.13956  -0.12634  -0.11250
 Alpha virt. eigenvalues --   -0.08764  -0.08501  -0.06085  -0.04744  -0.04081
 Alpha virt. eigenvalues --   -0.02303  -0.01089   0.00333   0.00852   0.01440

 Mulliken charges:
               1
     1  C   -0.161571
     2  C    0.242027
     3  C   -0.029011
     4  C   -0.338658
     5  H    0.343981
     6  H    0.349110
     7  H    0.327588
     8  N   -0.282547
     9  O    0.088717
    10  O    0.070436
    11  C   -0.248963
    12  H    0.352037
    13  C   -0.434837
    14  H    0.348566
    15  Br   0.373126
 Sum of Mulliken charges =   1.00000

 Dipole moment (field-independent basis, Debye):
    X=              3.0883    Y=             -1.7135    Z=             -4.2785  Tot=              5.5479
 Quadrupole moment (field-independent basis, Debye-Ang):
   XX=            -67.8916   YY=            -49.9123   ZZ=            -58.0017
   XY=             -4.6190   XZ=             -9.8273   YZ=              5.8863

 Normal termination of Gaussian 16 at Thu May  2 14:21:15 2024.
