 Gaussian 16, Revision C.01,
 Gaussian 16:  ES64L-G16RevC.01  3-Jul-2019

 ----------------------------------------
 #P wB97XD/6-311+G* NoSymm #P Field=Z-145
 ----------------------------------------

 -------
 TitleMe
 -------
 Symbolic Z-matrix:
 Charge =  1 Multiplicity = 1

                          Input orientation:
 ---------------------------------------------------------------------
 Center     Atomic      Atomic             Coordinates (Angstroms)
 Number     Number       Type             X           Y           Z
 ---------------------------------------------------------------------
      1          6           0        0.029500    1.339700    0.068200
      2          6           0        1.434800    1.286700    0.006400
      3          6           0        2.111800    0.051100   -0.005400
      4          6           0        1.445100   -1.137200    0.031200
      5          6           0       -0.687900    0.168200    0.110000
      6          1           0       -0.471300    2.298400    0.078100
      7          1           0        2.027300    2.196500   -0.032200
      8          1           0        1.989700   -2.076400    0.023200
      9          1           0       -1.771600    0.180400    0.158200
     10          7           0        3.586400    0.051000   -0.067500
     11          8           0        4.147100   -1.059700   -0.088100
     12          8           0        4.145000    1.163900   -0.090100
     13          6           0       -0.023600   -1.145800    0.083500
     14          1           0       -0.436700   -1.872500    0.788900
     15         35           0       -0.535900   -1.869700   -1.740800
 ---------------------------------------------------------------------

 SCF Done:  E(RwB97XD) =  -3010.54238401     A.U. after   18 cycles

 Alpha  occ. eigenvalues -- -483.33458 -62.88516 -56.68163 -56.67654 -56.67653
 Alpha  occ. eigenvalues --  -19.46303 -19.46217 -14.85798 -10.59327 -10.58161
 Alpha  occ. eigenvalues --  -10.57722 -10.57541 -10.57242 -10.53394  -9.04345
 Alpha  occ. eigenvalues --   -6.86899  -6.85219  -6.85207  -2.96833  -2.96384
 Alpha  occ. eigenvalues --   -2.96372  -2.95028  -2.95027  -1.50049  -1.33022
 Alpha  occ. eigenvalues --   -1.23294  -1.15046  -1.12340  -1.06087  -1.01507
 Alpha  occ. eigenvalues --   -0.96100  -0.91464  -0.85689  -0.81235  -0.81088
 Alpha  occ. eigenvalues --   -0.80419  -0.78722  -0.76534  -0.76403  -0.73352
 Alpha  occ. eigenvalues --   -0.69879  -0.68077  -0.64678  -0.61537  -0.59081
 Alpha  occ. eigenvalues --   -0.57489  -0.56971  -0.56465  -0.56004
 Alpha virt. eigenvalues --   -0.30513  -0.21748  -0.17292  -0.14152  -0.13076
 Alpha virt. eigenvalues --   -0.09539  -0.08630  -0.07529  -0.05986  -0.05108
 Alpha virt. eigenvalues --   -0.04047  -0.03416  -0.02822  -0.02267  -0.01742

 Mulliken charges:
               1
     1  C   -0.606698
     2  C    0.562135
     3  C   -0.729143
     4  C    0.303645
     5  C    0.047873
     6  H    0.340108
     7  H    0.368587
     8  H    0.378835
     9  H    0.357526
    10  N   -0.106944
    11  O    0.033096
    12  O    0.029157
    13  C   -0.472311
    14  H    0.453993
    15  Br   0.040143
 Sum of Mulliken charges =   1.00000

 Dipole moment (field-independent basis, Debye):
    X=             -0.4767    Y=             -0.0496    Z=              2.4899  Tot=              2.5356
 Quadrupole moment (field-independent basis, Debye-Ang):
   XX=            -70.7698   YY=            -52.7546   ZZ=            -65.5077
   XY=              0.9112   XZ=              2.2629   YZ=             -0.4857

 Normal termination of Gaussian 16 at Wed May  1 15:18:14 2024.
