 Gaussian 16, Revision A.03,
 Gaussian 16:  ES64L-G16RevA.03 25-Dec-2016

 --------------------------------------------------------------------
 #p B3LYP/6-311+G** #p TD=(singlets,nstates=30)IOp(6/8=3) IOp(9/40=4)
 --------------------------------------------------------------------

 --------------------------------------------
 Scan Step 93, Bond Length 0.9650000000000001
 --------------------------------------------
 Symbolic Z-matrix:
 Charge =  0 Multiplicity = 1

                         Standard orientation:
 ---------------------------------------------------------------------
 Center     Atomic      Atomic             Coordinates (Angstroms)
 Number     Number       Type             X           Y           Z
 ---------------------------------------------------------------------
      1          6           0        0.000000    0.000000   -0.408581
      2          1           0        0.000000    0.937260   -0.999931
      3          1           0       -0.000000   -0.937260   -0.999931
      4          8           0        0.000000   -0.000000    0.556419
 ---------------------------------------------------------------------

 SCF Done:  E(RB3LYP) =  -114.387178768     A.U. after    9 cycles

 Excitation energies and oscillator strengths:

 Excited State   1:      Singlet-A2     5.2677 eV  235.37 nm  f=0.0000  <S**2>=0.000
       3 -> 27         0.00299
       3 -> 36         0.00244
       3 -> 46         0.00155
       4 -> 27         0.00319
       4 -> 36        -0.00075
       4 -> 46        -0.00086
       5 ->  9         0.01378
       5 -> 13        -0.00930
       5 -> 17         0.00621
       5 -> 23        -0.00316
       5 -> 28         0.00340
       5 -> 31         0.00255
       5 -> 37         0.00393
       5 -> 43         0.00063
       5 -> 52         0.00081
       6 -> 12        -0.00061
       6 -> 16         0.00153
       6 -> 18        -0.00101
       6 -> 22         0.00173
       6 -> 24         0.00087
       6 -> 29        -0.00057
       6 -> 33         0.00031
       6 -> 35         0.00054
       6 -> 40        -0.00019
       6 -> 42         0.00045
       6 -> 48         0.00066
       6 -> 50        -0.00017
       6 -> 53         0.00034
       7 -> 27         0.00080
       7 -> 36        -0.00045
       7 -> 46         0.00143
       8 ->  9         0.69748
       8 -> 13        -0.11191
       8 -> 17         0.02792
       8 -> 23        -0.01068
       8 -> 28         0.00608
       8 -> 31         0.00351
       8 -> 37        -0.00195
       8 -> 43        -0.00025
       8 -> 52         0.00114
       3 <- 27         0.00215
       3 <- 36         0.00208
       3 <- 46         0.00161
       4 <- 27         0.00383
       4 <- 36        -0.00034
       4 <- 46        -0.00081
       5 <-  9         0.00023
       5 <- 13        -0.00107
       5 <- 17        -0.00031
       5 <- 23         0.00038
       5 <- 28        -0.00024
       5 <- 31        -0.00112
       5 <- 37         0.00176
       5 <- 43         0.00043
       5 <- 49         0.00014
       5 <- 52         0.00021
       6 <- 12        -0.00096
       6 <- 16        -0.00350
       6 <- 18        -0.00274
       6 <- 22         0.00562
       6 <- 24        -0.00129
       6 <- 29         0.00195
       6 <- 33        -0.00111
       6 <- 35         0.00230
       6 <- 40        -0.00029
       6 <- 42         0.00097
       6 <- 48         0.00049
       6 <- 53         0.00091
       7 <- 27         0.00107
       7 <- 36        -0.00047
       7 <- 46         0.00112
       8 <-  9        -0.01282
       8 <- 13         0.00731
       8 <- 17        -0.00393
       8 <- 23         0.00061
       8 <- 28        -0.00043
       8 <- 31         0.00238
       8 <- 37        -0.00224
       8 <- 52         0.00035
 This state for optimization and/or second-order correction.
 Total Energy, E(TD-HF/TD-DFT) =  -114.193594846
 Copying the excited state density for this state as the 1-particle RhoCI density.

 Excited State   2:      Singlet-B2     6.2263 eV  199.13 nm  f=0.0726  <S**2>=0.000
       3 -> 12         0.00102
       3 -> 16         0.00016
       3 -> 18         0.00113
       3 -> 22        -0.00013
       3 -> 24         0.00123
       3 -> 29        -0.00016
       3 -> 35        -0.00016
       3 -> 42         0.00010
       3 -> 50        -0.00013
       4 -> 12        -0.00546
       4 -> 16        -0.00030
       4 -> 18         0.00215
       4 -> 22        -0.00296
       4 -> 24         0.00400
       4 -> 29        -0.00031
       4 -> 33        -0.00093
       4 -> 35         0.00089
       4 -> 40        -0.00025
       4 -> 42         0.00043
       5 -> 11        -0.00806
       5 -> 14         0.00602
       5 -> 15         0.00150
       5 -> 19         0.00357
       5 -> 20        -0.00073
       5 -> 21         0.00357
       5 -> 25         0.00085
       5 -> 26        -0.00158
       5 -> 30         0.00250
       5 -> 32        -0.00019
       5 -> 38        -0.00066
       5 -> 39         0.00021
       5 -> 41         0.00021
       5 -> 44        -0.00047
       5 -> 45        -0.00058
       5 -> 47         0.00031
       6 -> 27         0.00077
       6 -> 46         0.00081
       7 -> 12         0.00190
       7 -> 16        -0.00103
       7 -> 18         0.00431
       7 -> 22        -0.00254
       7 -> 24         0.00213
       7 -> 42        -0.00038
       7 -> 48         0.00036
       7 -> 50         0.00051
       8 -> 10         0.70598
       8 -> 11        -0.02916
       8 -> 14        -0.00996
       8 -> 15         0.01112
       8 -> 19         0.01924
       8 -> 20         0.00911
       8 -> 21        -0.00664
       8 -> 25         0.00082
       8 -> 26        -0.00083
       8 -> 30         0.00025
       8 -> 32         0.00228
       8 -> 34         0.00179
       8 -> 38         0.00069
       8 -> 39        -0.00058
       8 -> 41        -0.00023
       8 -> 44         0.00064
       8 -> 45        -0.00098
       8 -> 47         0.00023
       8 -> 54         0.00016
       3 <- 12         0.00031
       3 <- 16         0.00028
       3 <- 18         0.00058
       3 <- 22        -0.00021
       3 <- 24         0.00085
       3 <- 29        -0.00014
       3 <- 35        -0.00016
       4 <- 12         0.00025
       4 <- 16         0.00019
       4 <- 18         0.00278
       4 <- 22        -0.00180
       4 <- 24         0.00296
       4 <- 29        -0.00024
       4 <- 33        -0.00067
       4 <- 35         0.00064
       4 <- 40        -0.00025
       4 <- 42         0.00013
       5 <- 10         0.00229
       5 <- 14         0.00459
       5 <- 15         0.00151
       5 <- 19         0.00090
       5 <- 21         0.00202
       5 <- 25         0.00168
       5 <- 26        -0.00132
       5 <- 30         0.00088
       5 <- 32        -0.00049
       5 <- 34        -0.00016
       5 <- 38        -0.00048
       5 <- 39         0.00017
       5 <- 41         0.00029
       5 <- 44        -0.00032
       5 <- 45        -0.00050
       5 <- 47         0.00028
       6 <- 27         0.00059
       6 <- 46         0.00069
       7 <- 12         0.00054
       7 <- 16        -0.00110
       7 <- 18         0.00178
       7 <- 22        -0.00098
       7 <- 24         0.00091
       7 <- 29         0.00055
       7 <- 33        -0.00014
       7 <- 35         0.00015
       7 <- 42        -0.00034
       7 <- 48         0.00032
       7 <- 50         0.00054
       8 <- 10        -0.00362
       8 <- 11        -0.00137
       8 <- 14        -0.01086
       8 <- 15        -0.00105
       8 <- 19        -0.00078
       8 <- 20        -0.00034
       8 <- 21        -0.00377
       8 <- 25        -0.00303
       8 <- 26        -0.00050
       8 <- 30        -0.00059
       8 <- 32         0.00099
       8 <- 34         0.00161
       8 <- 38         0.00071
       8 <- 39        -0.00047
       8 <- 44         0.00053
       8 <- 45        -0.00067
       8 <- 47         0.00024

 Excited State   3:      Singlet-B2     7.0135 eV  176.78 nm  f=0.0206  <S**2>=0.000
       3 -> 12        -0.00015
       3 -> 16        -0.00070
       3 -> 18         0.00023
       3 -> 22         0.00019
       3 -> 24         0.00039
       3 -> 29         0.00118
       3 -> 33         0.00014
       3 -> 35        -0.00031
       3 -> 42        -0.00033
       3 -> 48         0.00021
       3 -> 50         0.00024
       4 -> 12         0.00306
       4 -> 16        -0.00288
       4 -> 18         0.00299
       4 -> 22        -0.00154
       4 -> 24         0.00353
       4 -> 29        -0.00109
       4 -> 33         0.00055
       4 -> 35        -0.00026
       4 -> 40        -0.00021
       4 -> 48         0.00016
       4 -> 50         0.00015
       5 -> 10        -0.00628
       5 -> 11         0.00024
       5 -> 14         0.00402
       5 -> 15         0.00551
       5 -> 19        -0.00375
       5 -> 20        -0.00155
       5 -> 21         0.00120
       5 -> 25         0.00117
       5 -> 26         0.00122
       5 -> 30         0.00088
       5 -> 32        -0.00192
       5 -> 34        -0.00073
       5 -> 39        -0.00062
       5 -> 41        -0.00083
       5 -> 45         0.00065
       5 -> 47        -0.00044
       5 -> 51        -0.00026
       6 -> 27        -0.00072
       6 -> 36        -0.00128
       6 -> 46        -0.00122
       7 -> 12        -0.00309
       7 -> 16        -0.00103
       7 -> 18        -0.00222
       7 -> 22         0.00142
       7 -> 24        -0.00013
       7 -> 29         0.00017
       7 -> 33        -0.00032
       7 -> 35         0.00133
       7 -> 40        -0.00038
       7 -> 42         0.00073
       7 -> 48        -0.00069
       7 -> 50        -0.00065
       7 -> 53         0.00015
       8 -> 10         0.02974
       8 -> 11         0.70549
       8 -> 14        -0.01492
       8 -> 15        -0.02100
       8 -> 19        -0.02044
       8 -> 20         0.01404
       8 -> 21        -0.00227
       8 -> 25         0.00032
       8 -> 26         0.00045
       8 -> 30        -0.00159
       8 -> 34         0.00042
       8 -> 38        -0.00011
       8 -> 39        -0.00036
       8 -> 41        -0.00141
       8 -> 45         0.00083
       8 -> 47        -0.00074
       8 -> 51        -0.00025
       8 -> 54        -0.00017
       3 <- 12         0.00028
       3 <- 16        -0.00050
       3 <- 18         0.00052
       3 <- 24         0.00046
       3 <- 29         0.00076
       3 <- 33         0.00019
       3 <- 35        -0.00035
       3 <- 42        -0.00028
       3 <- 48         0.00017
       3 <- 50         0.00014
       3 <- 53        -0.00022
       4 <- 12         0.00033
       4 <- 16        -0.00012
       4 <- 18         0.00121
       4 <- 22        -0.00126
       4 <- 24         0.00157
       4 <- 29        -0.00045
       4 <- 33         0.00054
       4 <- 40        -0.00020
       4 <- 42        -0.00013
       4 <- 50         0.00022
       5 <- 10         0.00135
       5 <- 11        -0.00049
       5 <- 14         0.00198
       5 <- 15         0.00050
       5 <- 19         0.00066
       5 <- 20         0.00013
       5 <- 21         0.00099
       5 <- 25         0.00098
       5 <- 26         0.00087
       5 <- 30         0.00079
       5 <- 32        -0.00048
       5 <- 34        -0.00119
       5 <- 38         0.00013
       5 <- 39        -0.00040
       5 <- 41        -0.00084
       5 <- 44        -0.00013
       5 <- 45         0.00064
       5 <- 47        -0.00031
       5 <- 51        -0.00025
       6 <- 27        -0.00028
       6 <- 36        -0.00105
       6 <- 46        -0.00105
       7 <- 12        -0.00036
       7 <- 16         0.00013
       7 <- 18        -0.00030
       7 <- 22         0.00032
       7 <- 29        -0.00016
       7 <- 33        -0.00012
       7 <- 35         0.00095
       7 <- 40        -0.00029
       7 <- 42         0.00051
       7 <- 48        -0.00059
       7 <- 50        -0.00058
       8 <- 10        -0.00132
       8 <- 11         0.00097
       8 <- 14        -0.00548
       8 <- 15        -0.00101
       8 <- 19         0.00232
       8 <- 20        -0.00170
       8 <- 21        -0.00241
       8 <- 25        -0.00023
       8 <- 26         0.00114
       8 <- 30        -0.00095
       8 <- 32         0.00114
       8 <- 34        -0.00011
       8 <- 38        -0.00027
       8 <- 39        -0.00013
       8 <- 41        -0.00119
       8 <- 45         0.00070
       8 <- 47        -0.00048
       8 <- 51        -0.00024

 Excited State   4:      Singlet-A1     7.1523 eV  173.35 nm  f=0.0496  <S**2>=0.000
       3 -> 10         0.00143
       3 -> 11        -0.00093
       3 -> 14         0.00027
       3 -> 15         0.00051
       3 -> 19         0.00122
       3 -> 20         0.00061
       3 -> 26        -0.00027
       3 -> 30         0.00115
       3 -> 32        -0.00030
       3 -> 34        -0.00021
       3 -> 38        -0.00035
       3 -> 39        -0.00020
       3 -> 41        -0.00017
       3 -> 47        -0.00015
       3 -> 51        -0.00032
       3 -> 54        -0.00021
       4 -> 10         0.00554
       4 -> 11         0.00952
       4 -> 14         0.00619
       4 -> 15         0.00106
       4 -> 19         0.00074
       4 -> 20         0.00629
       4 -> 21         0.00250
       4 -> 25         0.00699
       4 -> 26        -0.00080
       4 -> 30        -0.00064
       4 -> 32        -0.00041
       4 -> 34        -0.00092
       4 -> 38        -0.00014
       4 -> 39         0.00061
       4 -> 41         0.00021
       4 -> 45        -0.00031
       4 -> 47        -0.00024
       5 -> 12         0.00775
       5 -> 16        -0.00496
       5 -> 18         0.01019
       5 -> 24         0.00459
       5 -> 29         0.00046
       5 -> 33        -0.00016
       5 -> 35         0.00090
       5 -> 42        -0.00019
       5 -> 50        -0.00036
       5 -> 53        -0.00015
       6 ->  9         0.00917
       6 -> 13         0.00504
       6 -> 17         0.00510
       6 -> 23         0.00458
       6 -> 28         0.00040
       6 -> 31         0.00086
       6 -> 37         0.00054
       6 -> 43         0.00058
       6 -> 49        -0.00037
       7 -> 10         0.01335
       7 -> 11        -0.00481
       7 -> 14         0.00355
       7 -> 15        -0.00135
       7 -> 19         0.00673
       7 -> 20         0.00383
       7 -> 21         0.00154
       7 -> 25         0.00216
       7 -> 26        -0.00045
       7 -> 30        -0.00021
       7 -> 32         0.00057
       7 -> 34        -0.00085
       7 -> 39         0.00018
       7 -> 44         0.00010
       7 -> 47        -0.00019
       7 -> 51         0.00051
       8 -> 12         0.70558
       8 -> 16        -0.03575
       8 -> 18         0.01528
       8 -> 22         0.00466
       8 -> 24         0.00152
       8 -> 29         0.00257
       8 -> 33         0.00151
       8 -> 35        -0.00236
       8 -> 42         0.00123
       8 -> 48        -0.00039
       8 -> 50        -0.00019
       8 -> 53        -0.00015
       3 <- 10         0.00057
       3 <- 11        -0.00030
       3 <- 14         0.00019
       3 <- 15         0.00021
       3 <- 19         0.00062
       3 <- 20         0.00027
       3 <- 25         0.00024
       3 <- 26        -0.00010
       3 <- 30         0.00069
       3 <- 32        -0.00023
       3 <- 34        -0.00012
       3 <- 38        -0.00027
       3 <- 39        -0.00017
       3 <- 41        -0.00016
       3 <- 45         0.00011
       3 <- 47        -0.00016
       3 <- 51        -0.00028
       3 <- 54        -0.00019
       4 <- 10         0.00545
       4 <- 11         0.00307
       4 <- 14         0.00456
       4 <- 15         0.00127
       4 <- 19         0.00057
       4 <- 20         0.00355
       4 <- 21         0.00095
       4 <- 25         0.00412
       4 <- 26        -0.00038
       4 <- 32        -0.00069
       4 <- 34        -0.00093
       4 <- 38        -0.00022
       4 <- 39         0.00055
       4 <- 45        -0.00029
       4 <- 47        -0.00020
       5 <- 12         0.00272
       5 <- 16        -0.00067
       5 <- 18         0.00431
       5 <- 22         0.00034
       5 <- 24         0.00249
       5 <- 33        -0.00031
       5 <- 35         0.00080
       5 <- 42        -0.00017
       5 <- 50        -0.00027
       5 <- 53        -0.00014
       6 <-  9         0.00254
       6 <- 13         0.00177
       6 <- 17         0.00209
       6 <- 23         0.00260
       6 <- 28         0.00020
       6 <- 31         0.00064
       6 <- 37         0.00043
       6 <- 43         0.00049
       6 <- 49        -0.00032
       7 <- 10         0.00425
       7 <- 11        -0.00093
       7 <- 14         0.00164
       7 <- 15        -0.00045
       7 <- 19         0.00269
       7 <- 20         0.00209
       7 <- 21         0.00059
       7 <- 25         0.00124
       7 <- 26        -0.00046
       7 <- 32         0.00031
       7 <- 34        -0.00063
       7 <- 39         0.00025
       7 <- 41         0.00013
       7 <- 51         0.00047
       8 <- 12        -0.00279
       8 <- 16        -0.00780
       8 <- 18        -0.00712
       8 <- 24        -0.00237
       8 <- 29         0.00103
       8 <- 33         0.00102
       8 <- 35        -0.00155
       8 <- 42         0.00101
       8 <- 48        -0.00046
       8 <- 50        -0.00017
       8 <- 53        -0.00017

 Excited State   5:      Singlet-A2     7.7419 eV  160.15 nm  f=0.0000  <S**2>=0.000
       3 -> 27        -0.00120
       3 -> 36        -0.00103
       3 -> 46        -0.00056
       4 -> 27        -0.00030
       4 -> 36         0.00066
       4 -> 46         0.00019
       5 ->  9        -0.00975
       5 -> 13         0.00418
       5 -> 17         0.00401
       5 -> 31        -0.00210
       5 -> 37        -0.00190
       5 -> 43        -0.00029
       5 -> 52        -0.00029
       6 -> 12        -0.00038
       6 -> 16        -0.00203
       6 -> 18         0.00107
       6 -> 22        -0.00099
       6 -> 24        -0.00026
       6 -> 29         0.00029
       6 -> 35        -0.00028
       6 -> 42        -0.00024
       6 -> 48        -0.00024
       6 -> 53        -0.00014
       7 -> 36         0.00026
       7 -> 46        -0.00059
       8 ->  9         0.11225
       8 -> 13         0.69772
       8 -> 17         0.00416
       8 -> 23         0.02146
       8 -> 28        -0.00099
       8 -> 31        -0.00130
       8 -> 37         0.00044
       8 -> 43         0.00011
       8 -> 49         0.00018
       8 -> 52        -0.00034
       3 <- 27        -0.00064
       3 <- 36        -0.00082
       3 <- 46        -0.00066
       4 <- 27        -0.00081
       4 <- 46         0.00020
       5 <-  9        -0.00027
       5 <- 17         0.00062
       5 <- 23        -0.00011
       5 <- 31         0.00011
       5 <- 37        -0.00055
       5 <- 43        -0.00014
       6 <- 12        -0.00057
       6 <- 16        -0.00053
       6 <- 18         0.00060
       6 <- 22        -0.00200
       6 <- 33         0.00061
       6 <- 35        -0.00107
       6 <- 40         0.00013
       6 <- 42        -0.00058
       6 <- 53        -0.00028
       7 <- 27        -0.00025
       7 <- 36         0.00025
       7 <- 46        -0.00026
       8 <-  9         0.00530
       8 <- 13         0.00050
       8 <- 17         0.00045
       8 <- 23        -0.00043
       8 <- 28         0.00017
       8 <- 31        -0.00055
       8 <- 37         0.00060
       8 <- 52        -0.00014

 Excited State   6:      Singlet-B2    10.1105 eV  122.63 nm  f=0.2613  <S**2>=0.000
       3 -> 12        -0.00041
       3 -> 16        -0.00187
       3 -> 18        -0.00026
       3 -> 22         0.00142
       3 -> 24         0.00076
       3 -> 29         0.00132
       3 -> 33        -0.00088
       3 -> 40         0.00029
       3 -> 42         0.00065
       3 -> 48         0.00032

 The electronic state is 1-A1.
 Alpha  occ. eigenvalues --  -19.13838 -10.24174  -1.22348  -0.60748  -0.57334
 Alpha  occ. eigenvalues --   -0.51586  -0.50460  -0.25437
 Alpha virt. eigenvalues --    0.00016   0.01348   0.04309   0.04396   0.07815
 Alpha virt. eigenvalues --    0.13958   0.17925   0.20358   0.21958   0.22613
 Alpha virt. eigenvalues --    0.26663   0.36026   0.49637   0.51785   0.51853

 Mulliken charges:
               1
     1  C    0.141597
     2  H    0.032642
     3  H    0.032642
     4  O   -0.206881
 Sum of Mulliken charges =   0.00000

 Dipole moment (field-independent basis, Debye):
    X=              0.0000    Y=              0.0000    Z=             -1.0838  Tot=              1.0838
 Quadrupole moment (field-independent basis, Debye-Ang):
   XX=            -11.0127   YY=            -12.0898   ZZ=            -13.0378
   XY=             -0.0000   XZ=             -0.0000   YZ=              0.0000

 Normal termination of Gaussian 16 at Fri Sep 17 10:52:34 2021.
