 Gaussian 16, Revision A.03,
 Gaussian 16:  ES64L-G16RevA.03 25-Dec-2016

 --------------------------------------------------------------------
 #p B3LYP/6-311+G** #p TD=(singlets,nstates=30)IOp(6/8=3) IOp(9/40=4)
 --------------------------------------------------------------------

 --------------------------------
 Scan Step 151, Bond Length 1.255
 --------------------------------
 Symbolic Z-matrix:
 Charge =  0 Multiplicity = 1

                         Standard orientation:
 ---------------------------------------------------------------------
 Center     Atomic      Atomic             Coordinates (Angstroms)
 Number     Number       Type             X           Y           Z
 ---------------------------------------------------------------------
      1          6           0        0.000000    0.000000   -0.553581
      2          1           0        0.000000    0.937260   -1.144931
      3          1           0       -0.000000   -0.937260   -1.144931
      4          8           0        0.000000   -0.000000    0.701419
 ---------------------------------------------------------------------

 SCF Done:  E(RB3LYP) =  -114.537745727     A.U. after    9 cycles

 Excitation energies and oscillator strengths:

 Excited State   1:      Singlet-A2     3.6519 eV  339.51 nm  f=0.0000  <S**2>=0.000
       3 -> 27         0.00232
       3 -> 38         0.00195
       3 -> 45         0.00262
       4 -> 27         0.00172
       4 -> 38        -0.00050
       4 -> 45        -0.00135
       5 ->  9         0.02018
       5 -> 13        -0.00229
       5 -> 17         0.00538
       5 -> 23         0.00022
       5 -> 29         0.00436
       5 -> 31        -0.00193
       5 -> 37         0.00318
       5 -> 44         0.00059
       5 -> 47         0.00014
       5 -> 52         0.00073
       6 -> 27        -0.00023
       6 -> 38        -0.00086
       6 -> 45         0.00177
       7 -> 12        -0.00062
       7 -> 15         0.00309
       7 -> 18        -0.00296
       7 -> 22         0.00050
       7 -> 25         0.00142
       7 -> 30        -0.00098
       7 -> 33         0.00044
       7 -> 35         0.00022
       7 -> 40         0.00020
       7 -> 42        -0.00011
       7 -> 49         0.00029
       7 -> 50         0.00033
       7 -> 53         0.00047
       8 ->  9         0.70587
       8 -> 13        -0.03757
       8 -> 17         0.02280
       8 -> 23        -0.00956
       8 -> 29         0.00957
       8 -> 31        -0.00213
       8 -> 47        -0.00026
       8 -> 52         0.00174
       3 <- 27         0.00147
       3 <- 38         0.00160
       3 <- 45         0.00271
       4 <- 27         0.00253
       4 <- 45        -0.00113
       5 <-  9        -0.00049
       5 <- 13        -0.00080
       5 <- 17        -0.00100
       5 <- 23         0.00052
       5 <- 29        -0.00070
       5 <- 31         0.00082
       5 <- 37         0.00155
       5 <- 44         0.00023
       5 <- 47         0.00015
       5 <- 52         0.00019
       6 <- 27         0.00036
       6 <- 38        -0.00076
       6 <- 45         0.00138
       7 <- 12        -0.00070
       7 <- 15        -0.00764
       7 <- 18         0.00065
       7 <- 22         0.00741
       7 <- 30         0.00368
       7 <- 33        -0.00127
       7 <- 35         0.00227
       7 <- 40         0.00094
       7 <- 50         0.00022
       7 <- 53         0.00132
       8 <-  9        -0.02640
       8 <- 13         0.00266
       8 <- 17        -0.00455
       8 <- 23         0.00078
       8 <- 29        -0.00112
       8 <- 31        -0.00072
       8 <- 37        -0.00131
       8 <- 52         0.00050
 This state for optimization and/or second-order correction.
 Total Energy, E(TD-HF/TD-DFT) =  -114.403540858
 Copying the excited state density for this state as the 1-particle RhoCI density.

 Excited State   2:      Singlet-B2     6.9111 eV  179.40 nm  f=0.0243  <S**2>=0.000
       3 -> 12         0.00158
       3 -> 15         0.00070
       3 -> 18         0.00122
       3 -> 22        -0.00033
       3 -> 25         0.00125
       3 -> 33         0.00022
       3 -> 35        -0.00045
       3 -> 40        -0.00015
       4 -> 12        -0.00285
       4 -> 15         0.00194
       4 -> 18         0.00197
       4 -> 22        -0.00328
       4 -> 25         0.00323
       4 -> 30         0.00033
       4 -> 33        -0.00042
       4 -> 35         0.00053
       4 -> 40         0.00045
       4 -> 42        -0.00012
       5 -> 10        -0.00752
       5 -> 11        -0.00796
       5 -> 14         0.00701
       5 -> 16        -0.00074
       5 -> 19        -0.00101
       5 -> 20         0.00270
       5 -> 21         0.00586
       5 -> 24        -0.00031
       5 -> 26         0.00230
       5 -> 28         0.00108
       5 -> 32        -0.00100
       5 -> 34        -0.00100
       5 -> 36        -0.00018
       5 -> 39        -0.00027
       5 -> 41        -0.00042
       5 -> 43        -0.00051
       5 -> 46        -0.00027
       5 -> 54         0.00012
       6 -> 12        -0.00034
       6 -> 15         0.00149
       6 -> 18         0.00167
       6 -> 22        -0.00241
       6 -> 25         0.00107
       6 -> 30        -0.00053
       6 -> 33        -0.00025
       6 -> 35         0.00047
       6 -> 42        -0.00018
       6 -> 49         0.00046
       6 -> 50        -0.00026
       7 -> 27         0.00012
       7 -> 38        -0.00062
       7 -> 45         0.00032
       8 -> 10         0.70270
       8 -> 11        -0.07343
       8 -> 14         0.01664
       8 -> 16        -0.00517
       8 -> 19         0.00685
       8 -> 20         0.01641
       8 -> 21        -0.00264
       8 -> 26         0.00269
       8 -> 28         0.00087
       8 -> 32         0.00099
       8 -> 34         0.00098
       8 -> 36         0.00035
       8 -> 39         0.00034
       8 -> 41        -0.00021
       8 -> 43         0.00060
       8 -> 46        -0.00051
       8 -> 48         0.00015
       8 -> 51        -0.00011
       8 -> 54         0.00020
       3 <- 12         0.00037
       3 <- 15         0.00053
       3 <- 18         0.00046
       3 <- 22        -0.00049
       3 <- 25         0.00071
       3 <- 30        -0.00011
       3 <- 33         0.00019
       3 <- 35        -0.00041
       3 <- 40        -0.00016
       3 <- 49         0.00013
       4 <- 12         0.00076
       4 <- 15         0.00195
       4 <- 18         0.00188
       4 <- 22        -0.00203
       4 <- 25         0.00220
       4 <- 30         0.00024
       4 <- 33        -0.00022
       4 <- 35         0.00027
       4 <- 40         0.00012
       4 <- 42        -0.00023
       4 <- 50        -0.00013
       5 <- 10         0.00233
       5 <- 11        -0.00025
       5 <- 14         0.00474
       5 <- 16        -0.00063
       5 <- 19        -0.00017
       5 <- 20         0.00083
       5 <- 21         0.00192
       5 <- 24        -0.00202
       5 <- 26         0.00149
       5 <- 28         0.00013
       5 <- 32        -0.00072
       5 <- 34        -0.00093
       5 <- 36        -0.00026
       5 <- 39        -0.00015
       5 <- 41        -0.00023
       5 <- 43        -0.00039
       5 <- 46        -0.00025
       6 <- 15        -0.00016
       6 <- 18         0.00107
       6 <- 22        -0.00060
       6 <- 25         0.00036
       6 <- 30         0.00031
       6 <- 33        -0.00030
       6 <- 35         0.00054
       6 <- 42        -0.00016
       6 <- 49         0.00038
       6 <- 50        -0.00028
       6 <- 53         0.00015
       7 <- 27         0.00012
       7 <- 38        -0.00046
       7 <- 45         0.00030
       8 <- 10        -0.00158
       8 <- 11        -0.00053
       8 <- 14        -0.00484
       8 <- 16        -0.00049
       8 <- 20        -0.00066
       8 <- 21        -0.00165
       8 <- 24         0.00205
       8 <- 26        -0.00079
       8 <- 28        -0.00049
       8 <- 32         0.00101
       8 <- 34         0.00010
       8 <- 36         0.00033
       8 <- 39         0.00025
       8 <- 43         0.00039
       8 <- 46        -0.00031

 Excited State   3:      Singlet-B2     7.6766 eV  161.51 nm  f=0.0270  <S**2>=0.000
       3 -> 12        -0.00033
       3 -> 15        -0.00091
       3 -> 18         0.00101
       3 -> 22         0.00047
       3 -> 30         0.00237
       3 -> 33         0.00015
       3 -> 35        -0.00057
       3 -> 40        -0.00050
       3 -> 49         0.00055
       3 -> 50        -0.00020
       4 -> 12         0.00256
       4 -> 15         0.00029
       4 -> 18         0.00205
       4 -> 22        -0.00149
       4 -> 25         0.00287
       4 -> 30        -0.00134
       4 -> 33         0.00049
       4 -> 35        -0.00057
       4 -> 42        -0.00011
       4 -> 49         0.00024
       5 -> 10        -0.00626
       5 -> 11        -0.00020
       5 -> 14         0.00945
       5 -> 16        -0.00698
       5 -> 19        -0.00119
       5 -> 20        -0.00479
       5 -> 21         0.00212
       5 -> 24        -0.00090
       5 -> 26         0.00141
       5 -> 28         0.00157
       5 -> 32        -0.00016
       5 -> 34        -0.00093
       5 -> 36        -0.00034
       5 -> 39         0.00043
       5 -> 41        -0.00069
       5 -> 43         0.00017
       5 -> 46         0.00090
       5 -> 51        -0.00042
       6 -> 12        -0.00293
       6 -> 15        -0.00156
       6 -> 18        -0.00078
       6 -> 22         0.00117
       6 -> 25         0.00016
       6 -> 30         0.00111
       6 -> 33        -0.00055
       6 -> 35         0.00149
       6 -> 40         0.00109
       6 -> 49        -0.00123
       6 -> 50         0.00034
       6 -> 53         0.00011
       7 -> 27         0.00014
       7 -> 38        -0.00086
       7 -> 45        -0.00193
       8 -> 10         0.07367
       8 -> 11         0.70226
       8 -> 14        -0.00318
       8 -> 16         0.00927
       8 -> 19        -0.03320
       8 -> 20         0.00214
       8 -> 21        -0.00293
       8 -> 26        -0.00089
       8 -> 28         0.00178
       8 -> 32         0.00014
       8 -> 34        -0.00020
       8 -> 36        -0.00018
       8 -> 39        -0.00025
       8 -> 41        -0.00114
       8 -> 43         0.00036
       8 -> 46         0.00221
       8 -> 48        -0.00013
       8 -> 51        -0.00104
       3 <- 12         0.00034
       3 <- 15        -0.00028
       3 <- 18         0.00097
       3 <- 25         0.00025
       3 <- 30         0.00129
       3 <- 33         0.00026
       3 <- 35        -0.00060
       3 <- 40        -0.00046
       3 <- 49         0.00049
       3 <- 50        -0.00013
       3 <- 53        -0.00031
       4 <- 12         0.00031
       4 <- 15         0.00082
       4 <- 18         0.00046
       4 <- 22        -0.00115
       4 <- 25         0.00122
       4 <- 30        -0.00068
       4 <- 33         0.00046
       4 <- 35        -0.00026
       4 <- 42        -0.00011
       4 <- 49         0.00018
       5 <- 10         0.00122
       5 <- 11        -0.00131
       5 <- 14         0.00270
       5 <- 16        -0.00043
       5 <- 19         0.00133
       5 <- 20        -0.00045
       5 <- 21         0.00078
       5 <- 24        -0.00140
       5 <- 28         0.00067
       5 <- 32        -0.00094
       5 <- 36         0.00014
       5 <- 39         0.00011
       5 <- 41        -0.00073
       5 <- 46         0.00085
       5 <- 48        -0.00013
       5 <- 51        -0.00030
       6 <- 12        -0.00029
       6 <- 15        -0.00094
       6 <- 18         0.00028
       6 <- 22         0.00084
       6 <- 25        -0.00014
       6 <- 30         0.00100
       6 <- 33        -0.00045
       6 <- 35         0.00127
       6 <- 40         0.00086
       6 <- 49        -0.00101
       6 <- 50         0.00026
       7 <- 27         0.00031
       7 <- 38        -0.00068
       7 <- 45        -0.00161
       8 <- 10        -0.00076
       8 <- 11        -0.00149
       8 <- 14        -0.00362
       8 <- 16         0.00042
       8 <- 19         0.00496
       8 <- 20        -0.00031
       8 <- 21        -0.00198
       8 <- 24        -0.00043
       8 <- 26        -0.00166
       8 <- 28         0.00051
       8 <- 32        -0.00122
       8 <- 34         0.00154
       8 <- 39        -0.00066
       8 <- 41        -0.00104
       8 <- 43         0.00018
       8 <- 46         0.00177
       8 <- 48        -0.00029
       8 <- 51        -0.00069

 Excited State   4:      Singlet-A1     7.9134 eV  156.68 nm  f=0.0425  <S**2>=0.000
       3 -> 10         0.00213
       3 -> 11        -0.00048
       3 -> 14         0.00120
       3 -> 19        -0.00150
       3 -> 20         0.00217
       3 -> 21         0.00102
       3 -> 24         0.00080
       3 -> 26         0.00129
       3 -> 28         0.00085
       3 -> 32         0.00014
       3 -> 34        -0.00080
       3 -> 36        -0.00016
       3 -> 41        -0.00020
       3 -> 46         0.00019
       3 -> 48        -0.00030
       3 -> 51        -0.00016
       3 -> 54        -0.00017
       4 -> 10         0.00482
       4 -> 11         0.00453
       4 -> 14         0.00453
       4 -> 16         0.00062
       4 -> 19         0.00022
       4 -> 20         0.00319
       4 -> 21        -0.00034
       4 -> 24        -0.00688
       4 -> 26         0.00213
       4 -> 28        -0.00030
       4 -> 32        -0.00062
       4 -> 34         0.00020
       4 -> 43         0.00016
       4 -> 46        -0.00020
       4 -> 51        -0.00013
       5 -> 12         0.00563
       5 -> 15         0.00325
       5 -> 18         0.00933
       5 -> 22        -0.00258
       5 -> 25         0.00546
       5 -> 30        -0.00031
       5 -> 33        -0.00020
       5 -> 35         0.00074
       5 -> 50         0.00017
       5 -> 53        -0.00012
       6 -> 10         0.01086
       6 -> 11        -0.00238
       6 -> 14         0.00409
       6 -> 16        -0.00013
       6 -> 19         0.00196
       6 -> 20         0.00233
       6 -> 21        -0.00097
       6 -> 24        -0.00452
       6 -> 26        -0.00041
       6 -> 28        -0.00223
       6 -> 32        -0.00028
       6 -> 34        -0.00012
       6 -> 39         0.00019
       6 -> 43         0.00015
       6 -> 48         0.00070
       6 -> 51         0.00019
       6 -> 54        -0.00012
       7 ->  9         0.03029
       7 -> 13         0.01201
       7 -> 17         0.00085
       7 -> 23         0.00517
       7 -> 29        -0.00084
       7 -> 31        -0.00097
       7 -> 37         0.00058
       7 -> 44         0.00062
       7 -> 47        -0.00032
       7 -> 52        -0.00010
       8 -> 12         0.70545
       8 -> 15         0.00022
       8 -> 18         0.02958
       8 -> 22         0.00270
       8 -> 25         0.00461
       8 -> 30        -0.00070
       8 -> 33         0.00168
       8 -> 35        -0.00200
       8 -> 40         0.00040
       8 -> 42         0.00010
       8 -> 49        -0.00047
       8 -> 50         0.00025
       8 -> 53        -0.00025
       3 <- 10         0.00066
       3 <- 11         0.00032
       3 <- 14         0.00063
       3 <- 16         0.00014
       3 <- 19        -0.00095
       3 <- 20         0.00095
       3 <- 21         0.00069
       3 <- 24         0.00020
       3 <- 26         0.00088
       3 <- 28         0.00057
       3 <- 32         0.00025
       3 <- 34        -0.00055
       3 <- 36        -0.00011
       3 <- 41        -0.00012
       3 <- 46         0.00027
       3 <- 48        -0.00024
       3 <- 51        -0.00013
       3 <- 54        -0.00016
       4 <- 10         0.00399
       4 <- 11         0.00089
       4 <- 14         0.00332
       4 <- 20         0.00185
       4 <- 21        -0.00036
       4 <- 24        -0.00371
       4 <- 26         0.00130
       4 <- 32        -0.00081
       4 <- 34        -0.00021
       4 <- 41        -0.00012
       4 <- 43         0.00012
       4 <- 46        -0.00014
       4 <- 51        -0.00012
       5 <- 12         0.00271
       5 <- 15         0.00294
       5 <- 18         0.00331
       5 <- 22        -0.00099
       5 <- 25         0.00297
       5 <- 30        -0.00017
       5 <- 33        -0.00036
       5 <- 35         0.00067
       5 <- 53        -0.00010
       6 <- 10         0.00257
       6 <- 14         0.00154
       6 <- 19         0.00047
       6 <- 20         0.00105
       6 <- 21        -0.00066
       6 <- 24        -0.00218
       6 <- 28        -0.00146
       6 <- 32        -0.00034
       6 <- 34        -0.00016
       6 <- 46        -0.00016
       6 <- 48         0.00058
       6 <- 51         0.00022
       6 <- 54        -0.00010
       7 <-  9        -0.00171
       7 <- 13         0.00246
       7 <- 17        -0.00014
       7 <- 23         0.00260
       7 <- 29        -0.00067
       7 <- 31        -0.00065
       7 <- 37         0.00045
       7 <- 44         0.00052
       7 <- 47        -0.00028
       8 <- 12        -0.00046
       8 <- 15        -0.00405
       8 <- 18        -0.00163
       8 <- 22         0.00024
       8 <- 25        -0.00136
       8 <- 30        -0.00109
       8 <- 33         0.00064
       8 <- 35        -0.00075
       8 <- 40         0.00046
       8 <- 42         0.00012
       8 <- 49        -0.00046
       8 <- 50         0.00016
       8 <- 53        -0.00025

 Excited State   5:      Singlet-A2     8.4298 eV  147.08 nm  f=0.0000  <S**2>=0.000
       3 -> 27        -0.00039
       3 -> 38        -0.00034
       3 -> 45        -0.00016
       4 -> 27         0.00016
       4 -> 38         0.00044
       5 ->  9        -0.00190
       5 -> 13        -0.00574
       5 -> 17         0.00665
       5 -> 23        -0.00223
       5 -> 29        -0.00023
       5 -> 31         0.00126
       5 -> 37        -0.00086
       5 -> 44        -0.00018
       6 -> 27         0.00023
       6 -> 38         0.00030
       6 -> 45        -0.00016
       7 -> 12         0.00018
       7 -> 15        -0.00193
       7 -> 18         0.00203
       7 -> 22        -0.00074
       7 -> 35        -0.00012
       8 ->  9         0.03701
       8 -> 13         0.70554
       8 -> 17         0.02246
       8 -> 23         0.01585
       8 -> 29         0.00021
       8 -> 31         0.00174
       8 -> 37        -0.00040
       8 -> 47         0.00016
       3 <- 38        -0.00020
       3 <- 45        -0.00023
       5 <-  9        -0.00041
       5 <- 13        -0.00031
       5 <- 17         0.00046
       5 <- 37        -0.00018
       6 <- 38         0.00018
       7 <- 12        -0.00053
       7 <- 15        -0.00109
       7 <- 18         0.00079
       7 <- 22        -0.00084
       7 <- 25        -0.00043
       7 <- 30         0.00024
       7 <- 33         0.00033
       7 <- 35        -0.00053
       7 <- 40        -0.00034
       8 <-  9         0.00123
       8 <- 13         0.00118
       8 <- 17         0.00024
       8 <- 23        -0.00011
       8 <- 37         0.00010

 Excited State   6:      Singlet-B1     8.5000 eV  145.86 nm  f=0.0011  <S**2>=0.000
       3 ->  9        -0.03330
       3 -> 13         0.00524
       3 -> 17        -0.00711
       3 -> 23         0.00413
       3 -> 29        -0.00266
       3 -> 31        -0.00019
       3 -> 44         0.00067
       3 -> 47         0.00012
       3 -> 52         0.00113
       4 ->  9         0.01693
       4 -> 13        -0.00277
       4 -> 17         0.00101
       4 -> 23        -0.00249
       4 -> 31        -0.00257
       4 -> 37        -0.00038
       4 -> 47        -0.00163
       4 -> 52        -0.00098
       5 -> 27        -0.00179
       5 -> 38         0.00215
       5 -> 45         0.00300
       6 ->  9         0.70489
       6 -> 13        -0.03634
       6 -> 17         0.02318
       6 -> 23        -0.01247
       6 -> 29         0.00822

 The electronic state is 1-A1.
 Alpha  occ. eigenvalues --  -19.15447 -10.28730  -1.04931  -0.65347  -0.50011
 Alpha  occ. eigenvalues --   -0.45791  -0.39834  -0.28505
 Alpha virt. eigenvalues --   -0.07799   0.00618   0.03789   0.04231   0.06375
 Alpha virt. eigenvalues --    0.12678   0.17246   0.18688   0.21934   0.23379
 Alpha virt. eigenvalues --    0.26159   0.31712   0.44137   0.45571   0.50920

 Mulliken charges:
               1
     1  C    0.006447
     2  H    0.124859
     3  H    0.124859
     4  O   -0.256165
 Sum of Mulliken charges =  -0.00000

 Dipole moment (field-independent basis, Debye):
    X=             -0.0000    Y=              0.0000    Z=             -2.7149  Tot=              2.7149
 Quadrupole moment (field-independent basis, Debye-Ang):
   XX=            -11.9067   YY=            -11.7306   ZZ=            -12.2995
   XY=              0.0000   XZ=              0.0000   YZ=             -0.0000

 Normal termination of Gaussian 16 at Fri Sep 17 10:52:45 2021.
