 Q-Chem 6.0, Q-Chem, Inc., Pleasanton, CA (2022)
 Q-Chem 6.0.2 for Intel X86 EM64T Linux

User input:
--------------------------------------------------------------
$molecule
0 1
C                  0.78808821    1.24068913    0.02492945
C                  2.17658059    1.20482783    0.01961732
C                  2.84604848   -0.01987894   -0.00618268
C                  0.06874473    0.04470619    0.01965705
H                  0.27342680    2.19328085    0.03465240
H                  2.76334949    2.11354885    0.03637404
H                 -1.01469187    0.05821664    0.02642497
N                  4.30685693    0.04595834   -0.03962592
O                  4.93785288   -0.87773037   -0.59362170
O                  4.84651823    1.05363205    0.47829467
C                  0.74008238   -1.17504363    0.01238440
H                  0.18852059   -2.10639187    0.02395406
C                  2.13307197   -1.21959994   -0.00494717
Br                 2.92645518   -2.95940256    0.03206369
$end

$rem
!SCF_GUESS         read
!SKIP_CIS_RPA      TRUE
METHOD             wB97XD
RPA                TRUE
BASIS              6-311+G*
CIS_N_ROOTS        100
CIS_SINGLETS       TRUE
CIS_TRIPLETS       FALSE
MAKE_CUBE_FILES    TRUE
PLOTS              TRUE
STS_MOM            TRUE
SYM_IGNORE         TRUE
SYMMETRY           FALSE
NTO_PAIRS          1
$end

$plots
grid_points                    75 75 75
total_density                  0-100
transition_density             1-100
natural_transition_orbital     1-100
$end

--------------------------------------------------------------

             Standard Nuclear Orientation (Angstroms)
    I     Atom           X                Y                Z
 ----------------------------------------------------------------
    1      C       0.7880882100     1.2406891300     0.0249294500
    2      C       2.1765805900     1.2048278300     0.0196173200
    3      C       2.8460484800    -0.0198789400    -0.0061826800
    4      C       0.0687447300     0.0447061900     0.0196570500
    5      H       0.2734268000     2.1932808500     0.0346524000
    6      H       2.7633494900     2.1135488500     0.0363740400
    7      H      -1.0146918700     0.0582166400     0.0264249700
    8      N       4.3068569300     0.0459583400    -0.0396259200
    9      O       4.9378528800    -0.8777303700    -0.5936217000
   10      O       4.8465182300     1.0536320500     0.4782946700
   11      C       0.7400823800    -1.1750436300     0.0123844000
   12      H       0.1885205900    -2.1063918700     0.0239540600
   13      C       2.1330719700    -1.2195999400    -0.0049471700
   14      Br      2.9264551800    -2.9594025600     0.0320636900
 ----------------------------------------------------------------

   16   -3010.2578640362      5.49e-09  Convergence criterion met
 Total energy in the final basis set =    -3010.2578640362
 Excited state 100: excitation energy (eV) =   10.7462

             TDDFT Excitation Energies
 ---------------------------------------------------

 Excited state   1: excitation energy (eV) =    3.5057
 Total energy for state  1:                 -3010.12903224 au
    Multiplicity: Singlet
    Trans. Mom.: -0.2484 X  -0.0211 Y  -0.0112 Z
    Strength   :     0.0053494101
    X: D(   45) --> V(    1) amplitude = -0.2993
    X: D(   46) --> V(    1) amplitude = -0.4677
    X: D(   48) --> V(    1) amplitude =  0.7404

 Excited state   2: excitation energy (eV) =    4.1348
 Total energy for state  2:                 -3010.10591465 au
    Multiplicity: Singlet
    Trans. Mom.:  0.1402 X   0.0626 Y  -0.0552 Z
    Strength   :     0.0026956821
    X: D(   43) --> V(    1) amplitude = -0.3372
    X: D(   44) --> V(    1) amplitude = -0.3820
    X: D(   45) --> V(    1) amplitude =  0.6498
    X: D(   47) --> V(    1) amplitude =  0.4470

 Excited state   3: excitation energy (eV) =    4.3717
 Total energy for state  3:                 -3010.09720879 au
    Multiplicity: Singlet
    Trans. Mom.: -0.2641 X  -0.6613 Y   0.0224 Z
    Strength   :     0.0543664621
    X: D(   49) --> V(    1) amplitude =  0.9624

 Excited state   4: excitation energy (eV) =    5.0520
 Total energy for state  4:                 -3010.07220624 au
    Multiplicity: Singlet
    Trans. Mom.:  0.8815 X  -0.0243 Y  -0.0179 Z
    Strength   :     0.0962993187
    X: D(   45) --> V(    1) amplitude = -0.3195
    X: D(   46) --> V(    1) amplitude = -0.2397
    X: D(   47) --> V(    1) amplitude =  0.7883
    X: D(   48) --> V(    1) amplitude = -0.2271
    X: D(   49) --> V(    2) amplitude = -0.2523

 Excited state   5: excitation energy (eV) =    5.3869
 Total energy for state  5:                 -3010.05989850 au
    Multiplicity: Singlet
    Trans. Mom.: -0.3747 X  -0.3573 Y  -0.1103 Z
    Strength   :     0.0369899842
    X: D(   43) --> V(    1) amplitude =  0.2270
    X: D(   44) --> V(    1) amplitude =  0.3936
    X: D(   46) --> V(    1) amplitude =  0.5705
    X: D(   47) --> V(    1) amplitude =  0.2825
    X: D(   48) --> V(    1) amplitude =  0.5650

 Excited state   6: excitation energy (eV) =    5.6860
 Total energy for state  6:                 -3010.04890581 au
    Multiplicity: Singlet
    Trans. Mom.: -0.1844 X   0.0574 Y  -0.0212 Z
    Strength   :     0.0052554489
    X: D(   49) --> V(    3) amplitude =  0.8257
    X: D(   49) --> V(    4) amplitude =  0.3160
    X: D(   49) --> V(    5) amplitude = -0.2441

 Excited state   7: excitation energy (eV) =    5.8892
 Total energy for state  7:                 -3010.04144008 au
    Multiplicity: Singlet
    Trans. Mom.: -0.6450 X   0.4376 Y  -0.1150 Z
    Strength   :     0.0895568124
    X: D(   44) --> V(    1) amplitude = -0.2656
    X: D(   46) --> V(    1) amplitude =  0.2124
    X: D(   47) --> V(    1) amplitude = -0.2211
    X: D(   47) --> V(    2) amplitude =  0.3839
    X: D(   48) --> V(    2) amplitude = -0.3875
    X: D(   49) --> V(    2) amplitude = -0.4566
    X: D(   49) --> V(    3) amplitude = -0.2659
    X: D(   49) --> V(    4) amplitude =  0.3414

 Excited state   8: excitation energy (eV) =    6.0785
 Total energy for state  8:                 -3010.03448323 au
    Multiplicity: Singlet
    Trans. Mom.: -0.1360 X   0.3319 Y   0.1827 Z
    Strength   :     0.0241333019
    X: D(   44) --> V(    1) amplitude =  0.2679
    X: D(   45) --> V(    1) amplitude =  0.2660
    X: D(   46) --> V(    1) amplitude = -0.2523
    X: D(   47) --> V(    3) amplitude =  0.4002
    X: D(   48) --> V(    3) amplitude =  0.5771

 Excited state   9: excitation energy (eV) =    6.1137
 Total energy for state  9:                 -3010.03319076 au
    Multiplicity: Singlet
    Trans. Mom.:  0.7705 X  -0.2391 Y   0.0766 Z
    Strength   :     0.0983508662
    X: D(   43) --> V(    1) amplitude =  0.3008
    X: D(   47) --> V(    2) amplitude =  0.3187
    X: D(   49) --> V(    2) amplitude =  0.7011
    X: D(   49) --> V(    4) amplitude =  0.3331

 Excited state  10: excitation energy (eV) =    6.1482
 Total energy for state 10:                 -3010.03192222 au
    Multiplicity: Singlet
    Trans. Mom.: -0.6009 X   0.5845 Y   0.2915 Z
    Strength   :     0.1186409969
    X: D(   44) --> V(    1) amplitude =  0.4144
    X: D(   45) --> V(    1) amplitude =  0.4135
    X: D(   46) --> V(    1) amplitude = -0.4081
    X: D(   47) --> V(    3) amplitude = -0.2476
    X: D(   48) --> V(    2) amplitude =  0.2823
    X: D(   48) --> V(    3) amplitude = -0.2731
    X: D(   49) --> V(    2) amplitude = -0.3300

 Excited state  11: excitation energy (eV) =    6.4975
 Total energy for state 11:                 -3010.01908360 au
    Multiplicity: Singlet
    Trans. Mom.: -0.4395 X   0.0202 Y  -0.0772 Z
    Strength   :     0.0317554933
    X: D(   43) --> V(    1) amplitude =  0.6650
    X: D(   44) --> V(    1) amplitude = -0.5176
    X: D(   48) --> V(    2) amplitude =  0.2405
    X: D(   49) --> V(    4) amplitude = -0.3887

 Excited state  12: excitation energy (eV) =    6.5802
 Total energy for state 12:                 -3010.01604702 au
    Multiplicity: Singlet
    Trans. Mom.: -0.2778 X   0.2358 Y   0.0984 Z
    Strength   :     0.0229670049
    X: D(   47) --> V(    2) amplitude = -0.5622
    X: D(   48) --> V(    2) amplitude = -0.6951

 Excited state  13: excitation energy (eV) =    6.9459
 Total energy for state 13:                 -3010.00260607 au
    Multiplicity: Singlet
    Trans. Mom.: -0.2901 X  -0.4836 Y  -0.0106 Z
    Strength   :     0.0541330701
    X: D(   47) --> V(    2) amplitude = -0.2882
    X: D(   47) --> V(    3) amplitude =  0.6234
    X: D(   48) --> V(    3) amplitude = -0.5137
    X: D(   49) --> V(    4) amplitude =  0.3184

 Excited state  14: excitation energy (eV) =    7.0351
 Total energy for state 14:                 -3009.99932945 au
    Multiplicity: Singlet
    Trans. Mom.: -0.4984 X  -0.3449 Y   0.0725 Z
    Strength   :     0.0642142953
    X: D(   47) --> V(    2) amplitude = -0.2534
    X: D(   47) --> V(    3) amplitude = -0.2980
    X: D(   47) --> V(    4) amplitude = -0.2168
    X: D(   48) --> V(    4) amplitude =  0.7480
    X: D(   49) --> V(    4) amplitude =  0.2660

 Excited state  15: excitation energy (eV) =    7.0418
 Total energy for state 15:                 -3009.99908357 au
    Multiplicity: Singlet
    Trans. Mom.:  0.0133 X   1.3828 Y   0.0282 Z
    Strength   :     0.3300561245
    X: D(   42) --> V(    1) amplitude = -0.2128
    X: D(   43) --> V(    1) amplitude = -0.2319
    X: D(   47) --> V(    2) amplitude =  0.4257
    X: D(   48) --> V(    2) amplitude = -0.2903
    X: D(   48) --> V(    3) amplitude = -0.2939
    X: D(   48) --> V(    4) amplitude =  0.3744
    X: D(   49) --> V(    4) amplitude = -0.4721

 Excited state  16: excitation energy (eV) =    7.1810
 Total energy for state 16:                 -3009.99396781 au
    Multiplicity: Singlet
    Trans. Mom.: -0.4228 X   0.3123 Y  -0.0592 Z
    Strength   :     0.0492191086
    X: D(   42) --> V(    1) amplitude =  0.8064
    X: D(   47) --> V(    4) amplitude = -0.4178

 Excited state  17: excitation energy (eV) =    7.2658
 Total energy for state 17:                 -3009.99085233 au
    Multiplicity: Singlet
    Trans. Mom.:  0.0139 X   0.0177 Y   0.3798 Z
    Strength   :     0.0257638794
    X: D(   49) --> V(    5) amplitude =  0.8336
    X: D(   49) --> V(    7) amplitude = -0.2705

 Excited state  18: excitation energy (eV) =    7.2749
 Total energy for state 18:                 -3009.99051583 au
    Multiplicity: Singlet
    Trans. Mom.:  0.2515 X  -0.1622 Y   0.0375 Z
    Strength   :     0.0162157160
    X: D(   42) --> V(    1) amplitude =  0.4374
    X: D(   47) --> V(    3) amplitude = -0.2604
    X: D(   47) --> V(    4) amplitude =  0.6966
    X: D(   48) --> V(    4) amplitude =  0.2358

 Excited state  19: excitation energy (eV) =    7.5663
 Total energy for state 19:                 -3009.97980910 au
    Multiplicity: Singlet
    Trans. Mom.: -0.2166 X  -0.2451 Y  -0.0355 Z
    Strength   :     0.0200699934
    X: D(   45) --> V(    2) amplitude =  0.2438
    X: D(   46) --> V(    2) amplitude =  0.8509

 Excited state  20: excitation energy (eV) =    7.6436
 Total energy for state 20:                 -3009.97696595 au
    Multiplicity: Singlet
    Trans. Mom.:  0.0476 X  -0.4457 Y   0.0576 Z
    Strength   :     0.0382520171
    X: D(   43) --> V(    3) amplitude = -0.2708
    X: D(   44) --> V(    3) amplitude =  0.3639
    X: D(   45) --> V(    2) amplitude =  0.4904
    X: D(   46) --> V(    3) amplitude =  0.3851

 Excited state  21: excitation energy (eV) =    7.6913
 Total energy for state 21:                 -3009.97521485 au
    Multiplicity: Singlet
    Trans. Mom.:  0.2678 X  -0.1236 Y  -0.0029 Z
    Strength   :     0.0163934089
    X: D(   41) --> V(    1) amplitude =  0.3955
    X: D(   43) --> V(    3) amplitude =  0.2575
    X: D(   44) --> V(    3) amplitude = -0.2376
    X: D(   45) --> V(    2) amplitude =  0.4320
    X: D(   45) --> V(    4) amplitude =  0.4378
    X: D(   46) --> V(    3) amplitude = -0.2599

 Excited state  22: excitation energy (eV) =    7.7353
 Total energy for state 22:                 -3009.97359672 au
    Multiplicity: Singlet
    Trans. Mom.:  0.4655 X  -0.1795 Y  -0.0048 Z
    Strength   :     0.0471718583
    X: D(   41) --> V(    1) amplitude = -0.4104
    X: D(   45) --> V(    2) amplitude =  0.6189
    X: D(   45) --> V(    4) amplitude = -0.3678
    X: D(   46) --> V(    2) amplitude = -0.3029

 Excited state  23: excitation energy (eV) =    7.8146
 Total energy for state 23:                 -3009.97068367 au
    Multiplicity: Singlet
    Trans. Mom.: -0.0493 X  -0.2745 Y   0.0093 Z
    Strength   :     0.0149081498
    X: D(   43) --> V(    2) amplitude = -0.2825
    X: D(   46) --> V(    3) amplitude =  0.3704
    X: D(   46) --> V(    4) amplitude = -0.5083
    X: D(   48) --> V(    5) amplitude =  0.3595
    X: D(   49) --> V(    6) amplitude =  0.3104

 Excited state  24: excitation energy (eV) =    7.8372
 Total energy for state 24:                 -3009.96985271 au
    Multiplicity: Singlet
    Trans. Mom.:  0.3363 X   0.4974 Y   0.2585 Z
    Strength   :     0.0820618423
    X: D(   46) --> V(    4) amplitude =  0.4960
    X: D(   48) --> V(    5) amplitude =  0.5598
    X: D(   48) --> V(    7) amplitude = -0.2288
    X: D(   49) --> V(    6) amplitude =  0.2628

 Excited state  25: excitation energy (eV) =    7.9005
 Total energy for state 25:                 -3009.96752474 au
    Multiplicity: Singlet
    Trans. Mom.: -0.0557 X  -0.1160 Y  -0.0853 Z
    Strength   :     0.0046150393
    X: D(   47) --> V(    5) amplitude =  0.3099
    X: D(   48) --> V(    5) amplitude = -0.3219
    X: D(   49) --> V(    6) amplitude =  0.6206

 Excited state  26: excitation energy (eV) =    7.9220
 Total energy for state 26:                 -3009.96673572 au
    Multiplicity: Singlet
    Trans. Mom.:  0.1511 X   0.3939 Y  -0.1740 Z
    Strength   :     0.0404197562
    X: D(   44) --> V(    2) amplitude =  0.3826
    X: D(   47) --> V(    5) amplitude =  0.6799
    X: D(   48) --> V(    6) amplitude = -0.2364
    X: D(   48) --> V(    7) amplitude = -0.2177

 Excited state  27: excitation energy (eV) =    7.9744
 Total energy for state 27:                 -3009.96481185 au
    Multiplicity: Singlet
    Trans. Mom.: -0.3484 X   0.0358 Y   0.0919 Z
    Strength   :     0.0256189175
    X: D(   41) --> V(    1) amplitude =  0.5067
    X: D(   44) --> V(    2) amplitude =  0.5250
    X: D(   45) --> V(    4) amplitude = -0.3163
    X: D(   46) --> V(    4) amplitude =  0.3272

 Excited state  28: excitation energy (eV) =    7.9828
 Total energy for state 28:                 -3009.96450109 au
    Multiplicity: Singlet
    Trans. Mom.: -0.5307 X  -0.0862 Y  -0.0391 Z
    Strength   :     0.0568336630
    X: D(   41) --> V(    1) amplitude = -0.4159
    X: D(   44) --> V(    2) amplitude =  0.5759
    X: D(   45) --> V(    3) amplitude = -0.2234
    X: D(   45) --> V(    4) amplitude =  0.3679
    X: D(   47) --> V(    5) amplitude = -0.2128

 Excited state  29: excitation energy (eV) =    8.0451
 Total energy for state 29:                 -3009.96221076 au
    Multiplicity: Singlet
    Trans. Mom.:  0.8456 X  -0.3719 Y  -0.1131 Z
    Strength   :     0.1707088996
    X: D(   43) --> V(    2) amplitude =  0.8099
    X: D(   46) --> V(    4) amplitude = -0.2870

 Excited state  30: excitation energy (eV) =    8.1178
 Total energy for state 30:                 -3009.95953909 au
    Multiplicity: Singlet
    Trans. Mom.: -0.0491 X  -0.0757 Y  -0.1408 Z
    Strength   :     0.0055646472
    X: D(   43) --> V(    3) amplitude =  0.2230
    X: D(   46) --> V(    3) amplitude =  0.2727
    X: D(   49) --> V(    6) amplitude = -0.2858
    X: D(   49) --> V(    7) amplitude =  0.5867
    X: D(   49) --> V(    8) amplitude =  0.4356

 Excited state  31: excitation energy (eV) =    8.1758
 Total energy for state 31:                 -3009.95741056 au
    Multiplicity: Singlet
    Trans. Mom.:  0.1018 X  -0.1148 Y   0.0756 Z
    Strength   :     0.0058569841
    X: D(   43) --> V(    3) amplitude =  0.4941
    X: D(   45) --> V(    3) amplitude =  0.3314
    X: D(   46) --> V(    3) amplitude =  0.2803
    X: D(   49) --> V(    7) amplitude = -0.3985

 Excited state  32: excitation energy (eV) =    8.2711
 Total energy for state 32:                 -3009.95390513 au
    Multiplicity: Singlet
    Trans. Mom.: -0.1403 X   0.0847 Y  -0.1727 Z
    Strength   :     0.0114889959
    X: D(   42) --> V(    2) amplitude =  0.8972

 Excited state  33: excitation energy (eV) =    8.3121
 Total energy for state 33:                 -3009.95240018 au
    Multiplicity: Singlet
    Trans. Mom.: -0.0037 X   0.0248 Y   0.0248 Z
    Strength   :     0.0002529906
    X: D(   44) --> V(    3) amplitude =  0.5247
    X: D(   45) --> V(    3) amplitude =  0.4865
    X: D(   46) --> V(    3) amplitude = -0.4274

 Excited state  34: excitation energy (eV) =    8.4085
 Total energy for state 34:                 -3009.94885792 au
    Multiplicity: Singlet
    Trans. Mom.:  0.0338 X  -0.0538 Y  -0.0929 Z
    Strength   :     0.0026088378
    X: D(   44) --> V(    4) amplitude =  0.8035
    X: D(   45) --> V(    4) amplitude =  0.2769

 Excited state  35: excitation energy (eV) =    8.4419
 Total energy for state 35:                 -3009.94762990 au
    Multiplicity: Singlet
    Trans. Mom.:  0.2825 X   0.1932 Y   0.1743 Z
    Strength   :     0.0305112698
    X: D(   40) --> V(    1) amplitude = -0.4447
    X: D(   43) --> V(    4) amplitude = -0.4614
    X: D(   48) --> V(    7) amplitude =  0.2259
    X: D(   49) --> V(    8) amplitude =  0.2485
    X: D(   49) --> V(    9) amplitude =  0.4500

 Excited state  36: excitation energy (eV) =    8.4718
 Total energy for state 36:                 -3009.94653094 au
    Multiplicity: Singlet
    Trans. Mom.: -0.1604 X  -0.0446 Y  -0.1185 Z
    Strength   :     0.0086684685
    X: D(   40) --> V(    1) amplitude = -0.2347
    X: D(   43) --> V(    3) amplitude =  0.3387
    X: D(   43) --> V(    4) amplitude = -0.2249
    X: D(   47) --> V(    7) amplitude =  0.3734
    X: D(   48) --> V(    7) amplitude = -0.4034
    X: D(   49) --> V(    9) amplitude =  0.2618

 Excited state  37: excitation energy (eV) =    8.4862
 Total energy for state 37:                 -3009.94600109 au
    Multiplicity: Singlet
    Trans. Mom.: -0.0620 X  -0.0729 Y   0.2598 Z
    Strength   :     0.0159351739
    X: D(   49) --> V(    6) amplitude =  0.2538
    X: D(   49) --> V(    7) amplitude = -0.3299
    X: D(   49) --> V(    8) amplitude =  0.6134
    X: D(   49) --> V(   11) amplitude =  0.2853

 Excited state  38: excitation energy (eV) =    8.5623
 Total energy for state 38:                 -3009.94320635 au
    Multiplicity: Singlet
    Trans. Mom.: -0.0650 X  -0.3069 Y   0.0220 Z
    Strength   :     0.0207413953
    X: D(   40) --> V(    1) amplitude =  0.4975
    X: D(   49) --> V(    9) amplitude =  0.5629

 Excited state  39: excitation energy (eV) =    8.6051
 Total energy for state 39:                 -3009.94163115 au
    Multiplicity: Singlet
    Trans. Mom.:  0.1762 X   0.0583 Y  -0.0810 Z
    Strength   :     0.0086443860
    X: D(   40) --> V(    1) amplitude =  0.2203
    X: D(   43) --> V(    3) amplitude = -0.2977
    X: D(   44) --> V(    3) amplitude = -0.2548
    X: D(   44) --> V(    4) amplitude = -0.2123
    X: D(   45) --> V(    3) amplitude =  0.3498
    X: D(   47) --> V(    7) amplitude =  0.2559
    X: D(   49) --> V(    9) amplitude =  0.3666

 Excited state  40: excitation energy (eV) =    8.6637
 Total energy for state 40:                 -3009.93948010 au
    Multiplicity: Singlet
    Trans. Mom.: -0.1449 X  -0.3171 Y   0.0967 Z
    Strength   :     0.0277832308
    X: D(   43) --> V(    4) amplitude =  0.2182
    X: D(   45) --> V(    3) amplitude = -0.2768

 Excited state 100: excitation energy (eV) =   10.7332
  Excited state 1:   3.5369 eV (singlet)
  Excited state 2:   4.1645 eV (singlet)
  Excited state 3:   4.4486 eV (singlet)
  Excited state 4:   5.1521 eV (singlet)
  Excited state 5:   5.4574 eV (singlet)
  Excited state 6:   5.7349 eV (singlet)
  Excited state 7:   5.9768 eV (singlet)
  Excited state 8:   6.1458 eV (singlet)
  Excited state 9:   6.2953 eV (singlet)
  Excited state 10:   6.4772 eV (singlet)
  Excited state 11:   6.5611 eV (singlet)
  Excited state 12:   6.6883 eV (singlet)
  Excited state 13:   6.9699 eV (singlet)
  Excited state 14:   7.1024 eV (singlet)
  Excited state 15:   7.2187 eV (singlet)
  Excited state 16:   7.2675 eV (singlet)
  Excited state 17:   7.3290 eV (singlet)
  Excited state 18:   7.3608 eV (singlet)
  Excited state 19:   7.6102 eV (singlet)
  Excited state 20:   7.6916 eV (singlet)
  Excited state 21:   7.7172 eV (singlet)
  Excited state 22:   7.7801 eV (singlet)
  Excited state 23:   7.8306 eV (singlet)
  Excited state 24:   7.9008 eV (singlet)
  Excited state 25:   7.9107 eV (singlet)
  Excited state 26:   7.9351 eV (singlet)
  Excited state 27:   7.9865 eV (singlet)
  Excited state 28:   8.0045 eV (singlet)
  Excited state 29:   8.1233 eV (singlet)
  Excited state 30:   8.1803 eV (singlet)
  Excited state 31:   8.2543 eV (singlet)
  Excited state 32:   8.3019 eV (singlet)
  Excited state 33:   8.3228 eV (singlet)
  Excited state 34:   8.4574 eV (singlet)
  Excited state 35:   8.4690 eV (singlet)
  Excited state 36:   8.5033 eV (singlet)
  Excited state 37:   8.5143 eV (singlet)
  Excited state 38:   8.5968 eV (singlet)
  Excited state 61:   9.6923 eV (singlet)
  Excited state 62:   9.7140 eV (singlet)
  Excited state 63:   9.7428 eV (singlet)
  Excited state 64:   9.7586 eV (singlet)
  Excited state 65:   9.7766 eV (singlet)
  Excited state 66:   9.8045 eV (singlet)
  Excited state 67:   9.8585 eV (singlet)
  Excited state 68:   9.8884 eV (singlet)
  Excited state 69:   9.8964 eV (singlet)
  Excited state 70:   9.9235 eV (singlet)
  Excited state 71:   9.9919 eV (singlet)
  Excited state 72:  10.0144 eV (singlet)
  Excited state 73:  10.0778 eV (singlet)
  Excited state 74:  10.0802 eV (singlet)
  Excited state 75:  10.1042 eV (singlet)
  Excited state 76:  10.1320 eV (singlet)
  Excited state 77:  10.1534 eV (singlet)
  Excited state 78:  10.1916 eV (singlet)
  Excited state 79:  10.2366 eV (singlet)
  Excited state 80:  10.2752 eV (singlet)
  Excited state 81:  10.3213 eV (singlet)
  Excited state 82:  10.3388 eV (singlet)
  Excited state 83:  10.3567 eV (singlet)
  Excited state 84:  10.3675 eV (singlet)
  Excited state 85:  10.3954 eV (singlet)
  Excited state 86:  10.4028 eV (singlet)
  Excited state 87:  10.4439 eV (singlet)
  Excited state 88:  10.4502 eV (singlet)
  Excited state 89:  10.4784 eV (singlet)
  Excited state 90:  10.4907 eV (singlet)
  Excited state 91:  10.5096 eV (singlet)
  Excited state 92:  10.5144 eV (singlet)
  Excited state 93:  10.5553 eV (singlet)
  Excited state 94:  10.5760 eV (singlet)
  Excited state 95:  10.5936 eV (singlet)
  Excited state 96:  10.6320 eV (singlet)
  Excited state 97:  10.6435 eV (singlet)
  Excited state 98:  10.6764 eV (singlet)
  Excited state 99:  10.7207 eV (singlet)
  Excited state 100:  10.7332 eV (singlet)

                    Orbital Energies (a.u.)
 --------------------------------------------------------------

 Alpha MOs
 -- Occupied --
******** -62.6745 -56.4706 -56.4664 -56.4660 -19.2990 -19.2960 -14.6921
-10.3907 -10.3827 -10.3383 -10.3358 -10.3340 -10.3305  -8.8325  -6.6568
 -6.6426  -6.6415  -2.7566  -2.7529  -2.7520  -2.7406  -2.7405  -1.3337
 -1.1602  -1.0256  -0.9362  -0.9322  -0.8643  -0.8180  -0.7465  -0.7137
 -0.6651  -0.6368  -0.6217  -0.6147  -0.5835  -0.5690  -0.5391  -0.5134
 -0.4942  -0.4714  -0.4279  -0.4206  -0.4092  -0.4028  -0.3777  -0.3691
 -0.3504

          Ground-State Mulliken Net Atomic Charges

     Atom                 Charge (a.u.)
  ----------------------------------------
      1 C                    -0.516386
      2 C                     0.120530
      3 C                    -1.573650
      4 C                    -0.021685
      5 H                     0.265880
      6 H                     0.296375
      7 H                     0.264180
      8 N                    -0.082988
      9 O                    -0.011946
     10 O                    -0.022229
     11 C                    -0.731828
     12 H                     0.291129
     13 C                     1.816574
     14 Br                   -0.093955
  ----------------------------------------
  Sum of atomic charges =     0.000000

                    Cartesian Multipole Moments
 -----------------------------------------------------------------
    Charge (ESU x 10^10)
                 0.0000
    Dipole Moment (Debye)
         X      -5.2718      Y       0.8669      Z      -0.0001
       Tot       5.3426
    Quadrupole Moments (Debye-Ang)
        XX     -98.3156     XY       1.0790     YY     -65.6006
        XZ       0.1122     YZ      -1.6723     ZZ     -72.1387

 Total job time:  1350.99s(wall), 13278.32s(cpu)
        *  Thank you very much for using Q-Chem.  Have a nice day.  *
