 Gaussian 16, Revision C.01,
 Gaussian 16:  ES64L-G16RevC.01  3-Jul-2019

 ---------------------------------------
 #P wB97XD/6-311+G* NoSymm #P Field=Y-19
 ---------------------------------------

 -------
 TitleMe
 -------
 Symbolic Z-matrix:
 Charge =  1 Multiplicity = 1

                          Input orientation:
 ---------------------------------------------------------------------
 Center     Atomic      Atomic             Coordinates (Angstroms)
 Number     Number       Type             X           Y           Z
 ---------------------------------------------------------------------
      1          6           0        0.519300    1.233000   -0.031900
      2          6           0        1.944500    1.269200   -0.036700
      3          6           0        2.620400    0.092800   -0.025000
      4          6           0       -0.196000    0.030100    0.001000
      5          1           0       -0.020700    2.174200   -0.043400
      6          1           0        2.482800    2.208900   -0.036100
      7          1           0       -1.277700    0.039900    0.011700
      8          7           0        4.092100    0.095900    0.036600
      9          8           0        4.639300   -1.021700    0.144600
     10          8           0        4.664900    1.198400   -0.023300
     11          6           0        0.494300   -1.167100    0.021000
     12          1           0       -0.032500   -2.114900    0.054500
     13          6           0        1.962900   -1.216500   -0.021100
     14          1           0        2.443600   -1.963100    0.615100
     15         35           0        2.173000   -1.949100   -1.906200
 ---------------------------------------------------------------------

 SCF Done:  E(RwB97XD) =  -3010.53143642     A.U. after   19 cycles

 Alpha  occ. eigenvalues -- -483.31317 -62.86342 -56.66033 -56.65467 -56.65457
 Alpha  occ. eigenvalues --  -19.46196 -19.46172 -14.85617 -10.59173 -10.58182
 Alpha  occ. eigenvalues --  -10.57341 -10.56889 -10.53253 -10.52730  -9.02149
 Alpha  occ. eigenvalues --   -6.84823  -6.82963  -6.82934  -2.94728  -2.94238
 Alpha  occ. eigenvalues --   -2.94214  -2.92726  -2.92725  -1.49876  -1.32835
 Alpha  occ. eigenvalues --   -1.22437  -1.12858  -1.12451  -1.04843  -1.00314
 Alpha  occ. eigenvalues --   -0.95345  -0.90551  -0.84930  -0.80875  -0.80144
 Alpha  occ. eigenvalues --   -0.80016  -0.77907  -0.76152  -0.75579  -0.71997
 Alpha  occ. eigenvalues --   -0.68518  -0.67525  -0.63335  -0.59879  -0.57383
 Alpha  occ. eigenvalues --   -0.56780  -0.56350  -0.55883  -0.54659
 Alpha virt. eigenvalues --   -0.30102  -0.20333  -0.15748  -0.13043  -0.08727
 Alpha virt. eigenvalues --   -0.06007  -0.05620  -0.04727  -0.04298  -0.03140
 Alpha virt. eigenvalues --   -0.02363  -0.01695  -0.01558  -0.00780   0.00366

 Mulliken charges:
               1
     1  C   -0.110599
     2  C    0.184294
     3  C   -0.071379
     4  C   -0.328292
     5  H    0.353264
     6  H    0.357449
     7  H    0.331144
     8  N   -0.239317
     9  O    0.077852
    10  O    0.080761
    11  C   -0.204743
    12  H    0.349764
    13  C   -0.356001
    14  H    0.406619
    15  Br   0.169185
 Sum of Mulliken charges =   1.00000

 Dipole moment (field-independent basis, Debye):
    X=              2.7538    Y=             -0.3482    Z=             -0.6751  Tot=              2.8566
 Quadrupole moment (field-independent basis, Debye-Ang):
   XX=            -67.8799   YY=            -51.4299   ZZ=            -62.3687
   XY=             -1.8079   XZ=             -2.3957   YZ=              2.1640

 Normal termination of Gaussian 16 at Thu May  2 14:18:06 2024.
