 Gaussian 16, Revision C.01,
 Gaussian 16:  ES64L-G16RevC.01  3-Jul-2019

 ---------------------------------------
 #P wB97XD/6-311+G* NoSymm #P Field=Y+68
 ---------------------------------------

 -------
 TitleMe
 -------
 Symbolic Z-matrix:
 Charge =  1 Multiplicity = 1

                          Input orientation:
 ---------------------------------------------------------------------
 Center     Atomic      Atomic             Coordinates (Angstroms)
 Number     Number       Type             X           Y           Z
 ---------------------------------------------------------------------
      1          6           0        0.519300    1.233000   -0.031900
      2          6           0        1.944500    1.269200   -0.036700
      3          6           0        2.620400    0.092800   -0.025000
      4          6           0       -0.196000    0.030100    0.001000
      5          1           0       -0.020700    2.174200   -0.043400
      6          1           0        2.482800    2.208900   -0.036100
      7          1           0       -1.277700    0.039900    0.011700
      8          7           0        4.092100    0.095900    0.036600
      9          8           0        4.639300   -1.021700    0.144600
     10          8           0        4.664900    1.198400   -0.023300
     11          6           0        0.494300   -1.167100    0.021000
     12          1           0       -0.032500   -2.114900    0.054500
     13          6           0        1.962900   -1.216500   -0.021100
     14          1           0        2.443600   -1.963100    0.615100
     15         35           0        2.173000   -1.949100   -1.906200
 ---------------------------------------------------------------------

 SCF Done:  E(RwB97XD) =  -3010.53699700     A.U. after   20 cycles

 Alpha  occ. eigenvalues -- -483.30032 -62.85037 -56.64747 -56.64158 -56.64143
 Alpha  occ. eigenvalues --  -19.46202 -19.46053 -14.85529 -10.58943 -10.56975
 Alpha  occ. eigenvalues --  -10.56760 -10.56667 -10.53396 -10.52375  -9.00830
 Alpha  occ. eigenvalues --   -6.83555  -6.81622  -6.81576  -2.93447  -2.92943
 Alpha  occ. eigenvalues --   -2.92907  -2.91361  -2.91360  -1.49806  -1.32770
 Alpha  occ. eigenvalues --   -1.21953  -1.12462  -1.11894  -1.04033  -0.99817
 Alpha  occ. eigenvalues --   -0.94895  -0.90233  -0.84710  -0.80664  -0.79897
 Alpha  occ. eigenvalues --   -0.79771  -0.77536  -0.76041  -0.75153  -0.71443
 Alpha  occ. eigenvalues --   -0.68102  -0.67236  -0.62871  -0.59163  -0.57266
 Alpha  occ. eigenvalues --   -0.56507  -0.55821  -0.54843  -0.53649
 Alpha virt. eigenvalues --   -0.29534  -0.20212  -0.14770  -0.12712  -0.09990
 Alpha virt. eigenvalues --   -0.06413  -0.05983  -0.04661  -0.04050  -0.03236
 Alpha virt. eigenvalues --   -0.01980  -0.01070  -0.00325  -0.00104   0.00926

 Mulliken charges:
               1
     1  C   -0.106003
     2  C    0.185093
     3  C   -0.088801
     4  C   -0.351780
     5  H    0.316356
     6  H    0.323612
     7  H    0.328937
     8  N   -0.242688
     9  O    0.126286
    10  O    0.030798
    11  C   -0.193323
    12  H    0.380698
    13  C   -0.371071
    14  H    0.427517
    15  Br   0.234369
 Sum of Mulliken charges =   1.00000

 Dipole moment (field-independent basis, Debye):
    X=              2.8832    Y=             -2.9018    Z=             -1.0260  Tot=              4.2174
 Quadrupole moment (field-independent basis, Debye-Ang):
   XX=            -67.7521   YY=            -50.1879   ZZ=            -61.4409
   XY=             -7.1383   XZ=             -3.1628   YZ=              3.5129

 Normal termination of Gaussian 16 at Thu May  2 14:19:11 2024.
