 Gaussian 16, Revision C.01,
 Gaussian 16:  ES64L-G16RevC.01  3-Jul-2019

 ----------------------------------------
 #P wB97XD/6-311+G* NoSymm #P Field=Z+107
 ----------------------------------------

 -------
 TitleMe
 -------
 Symbolic Z-matrix:
 Charge =  1 Multiplicity = 1

                          Input orientation:
 ---------------------------------------------------------------------
 Center     Atomic      Atomic             Coordinates (Angstroms)
 Number     Number       Type             X           Y           Z
 ---------------------------------------------------------------------
      1          6           0        0.029500    1.339700    0.068200
      2          6           0        1.434800    1.286700    0.006400
      3          6           0        2.111800    0.051100   -0.005400
      4          6           0        1.445100   -1.137200    0.031200
      5          6           0       -0.687900    0.168200    0.110000
      6          1           0       -0.471300    2.298400    0.078100
      7          1           0        2.027300    2.196500   -0.032200
      8          1           0        1.989700   -2.076400    0.023200
      9          1           0       -1.771600    0.180400    0.158200
     10          7           0        3.586400    0.051000   -0.067500
     11          8           0        4.147100   -1.059700   -0.088100
     12          8           0        4.145000    1.163900   -0.090100
     13          6           0       -0.023600   -1.145800    0.083500
     14          1           0       -0.436700   -1.872500    0.788900
     15         35           0       -0.535900   -1.869700   -1.740800
 ---------------------------------------------------------------------

 SCF Done:  E(RwB97XD) =  -3010.53933530     A.U. after   18 cycles

 Alpha  occ. eigenvalues -- -483.29506 -62.84505 -56.64226 -56.63614 -56.63612
 Alpha  occ. eigenvalues --  -19.45258 -19.45194 -14.84760 -10.57311 -10.56717
 Alpha  occ. eigenvalues --  -10.56483 -10.56272 -10.56058 -10.52311  -9.00292
 Alpha  occ. eigenvalues --   -6.83045  -6.81052  -6.81039  -2.92931  -2.92403
 Alpha  occ. eigenvalues --   -2.92391  -2.90798  -2.90798  -1.49024  -1.32002
 Alpha  occ. eigenvalues --   -1.21858  -1.13127  -1.10984  -1.02901  -1.00365
 Alpha  occ. eigenvalues --   -0.94648  -0.90241  -0.84644  -0.80128  -0.79935
 Alpha  occ. eigenvalues --   -0.79339  -0.77668  -0.75454  -0.75230  -0.71278
 Alpha  occ. eigenvalues --   -0.68615  -0.66847  -0.62585  -0.59102  -0.56466
 Alpha  occ. eigenvalues --   -0.55545  -0.55018  -0.54311  -0.53501
 Alpha virt. eigenvalues --   -0.28693  -0.20693  -0.14611  -0.12606  -0.09967
 Alpha virt. eigenvalues --   -0.07209  -0.06878  -0.05419  -0.03570  -0.03241
 Alpha virt. eigenvalues --   -0.02312  -0.00966  -0.00611   0.00238   0.01245

 Mulliken charges:
               1
     1  C   -0.558149
     2  C    0.477743
     3  C   -0.702922
     4  C    0.270647
     5  C   -0.031809
     6  H    0.331341
     7  H    0.366347
     8  H    0.371491
     9  H    0.347470
    10  N   -0.109836
    11  O    0.031771
    12  O    0.029047
    13  C   -0.463211
    14  H    0.366329
    15  Br   0.273740
 Sum of Mulliken charges =   1.00000

 Dipole moment (field-independent basis, Debye):
    X=             -1.0906    Y=             -0.9971    Z=             -1.8800  Tot=              2.3912
 Quadrupole moment (field-independent basis, Debye-Ang):
   XX=            -71.6250   YY=            -51.4433   ZZ=            -60.7204
   XY=              1.6018   XZ=              0.2521   YZ=              3.2424

 Normal termination of Gaussian 16 at Wed May  1 15:26:29 2024.
