 Gaussian 16, Revision A.03,
 Gaussian 16:  ES64L-G16RevA.03 25-Dec-2016

 --------------------------------------------------------------------
 #p B3LYP/6-311+G** #p TD=(singlets,nstates=30)IOp(6/8=3) IOp(9/40=4)
 --------------------------------------------------------------------

 --------------------------------
 Scan Step 277, Bond Length 1.885
 --------------------------------
 Symbolic Z-matrix:
 Charge =  0 Multiplicity = 1

                         Standard orientation:
 ---------------------------------------------------------------------
 Center     Atomic      Atomic             Coordinates (Angstroms)
 Number     Number       Type             X           Y           Z
 ---------------------------------------------------------------------
      1          6           0        0.000000   -0.000000   -0.868581
      2          1           0        0.000000    0.937260   -1.459931
      3          1           0       -0.000000   -0.937260   -1.459931
      4          8           0        0.000000    0.000000    1.016419
 ---------------------------------------------------------------------

 SCF Done:  E(RB3LYP) =  -114.329481427     A.U. after   12 cycles

 Excitation energies and oscillator strengths:

 Excited State   1:      Singlet-A2     1.1762 eV 1054.09 nm  f=0.0000  <S**2>=0.000
       3 -> 27         0.00065
       3 -> 38         0.00039
       3 -> 46         0.00332
       4 -> 27         0.00033
       4 -> 46        -0.00088
       5 ->  9         0.00089
       5 -> 13         0.00108
       5 -> 18         0.00151
       5 -> 23         0.00128
       5 -> 28         0.00113
       5 -> 37         0.00066
       5 -> 44         0.00019
       5 -> 52         0.00015
       6 -> 27        -0.00055
       6 -> 38        -0.00052
       6 -> 46         0.00087
       7 -> 12        -0.00136
       7 -> 16         0.00536
       7 -> 19        -0.00481
       7 -> 22        -0.00114
       7 -> 25        -0.00050
       7 -> 29        -0.00198
       7 -> 33         0.00026
       7 -> 49         0.00013
       7 -> 53         0.00037
       8 ->  9         0.71142
       8 -> 13        -0.00590
       8 -> 18         0.02057
       8 -> 23        -0.00063
       8 -> 28         0.01004
       8 -> 31         0.00161
       8 -> 37         0.00047
       8 -> 47        -0.00028
       8 -> 52         0.00183
       3 <- 27         0.00015
       3 <- 38         0.00018
       3 <- 46         0.00334
       4 <- 27         0.00064
       4 <- 38         0.00018
       4 <- 46        -0.00068
       5 <-  9         0.00048
       5 <- 13        -0.00030
       5 <- 18        -0.00033
       5 <- 23         0.00015
       5 <- 28        -0.00025
       5 <- 31         0.00020
       5 <- 37         0.00038
       6 <- 38        -0.00039
       6 <- 46         0.00062
       7 <- 12         0.00203
       7 <- 16        -0.01053
       7 <- 19         0.00591
       7 <- 22         0.00542
       7 <- 25        -0.00064
       7 <- 29         0.00565
       7 <- 33        -0.00034
       7 <- 49        -0.00048
       7 <- 53         0.00144
       8 <-  9        -0.08037
       8 <- 13        -0.00059
       8 <- 18        -0.00790
       8 <- 23        -0.00040
       8 <- 28        -0.00279
       8 <- 31        -0.00084
       8 <- 37        -0.00017
       8 <- 47         0.00013
       8 <- 52         0.00042
 This state for optimization and/or second-order correction.
 Total Energy, E(TD-HF/TD-DFT) =  -114.286255973
 Copying the excited state density for this state as the 1-particle RhoCI density.

 Excited State   2:      Singlet-A1     3.0906 eV  401.17 nm  f=0.0254  <S**2>=0.000
       3 -> 10        -0.01312
       3 -> 11        -0.00246
       3 -> 14         0.00063
       3 -> 15         0.00020
       3 -> 17        -0.00296
       3 -> 20        -0.00333
       3 -> 21         0.00059
       3 -> 24         0.00028
       3 -> 26         0.00098
       3 -> 30        -0.00018
       3 -> 32         0.00269
       3 -> 34         0.00098
       3 -> 36        -0.00092
       3 -> 39        -0.00035
       3 -> 43         0.00048
       3 -> 45        -0.00114
       3 -> 48         0.00231
       3 -> 50         0.00161
       3 -> 54        -0.00011
       4 -> 10        -0.00072
       4 -> 11         0.00963
       4 -> 14         0.00153
       4 -> 15        -0.00729
       4 -> 17         0.00205
       4 -> 20         0.00174
       4 -> 21         0.00023
       4 -> 24        -0.00365
       4 -> 26         0.00296
       4 -> 30         0.00016
       4 -> 32        -0.00112
       4 -> 34        -0.00070
       4 -> 39        -0.00025
       4 -> 43        -0.00043
       4 -> 45         0.00075
       4 -> 48        -0.00071
       4 -> 50        -0.00025
       4 -> 54         0.00014
       5 -> 12         0.00858
       5 -> 16         0.00181
       5 -> 19         0.00105
       5 -> 22         0.00647
       5 -> 25        -0.00403
       5 -> 29         0.00034
       5 -> 33        -0.00231
       5 -> 35         0.00271
       5 -> 40        -0.00091
       5 -> 42        -0.00099
       5 -> 51        -0.00088
       6 -> 10         0.25860
       6 -> 11         0.03188
       6 -> 14        -0.03516
       6 -> 15        -0.02017
       6 -> 17        -0.01493
       6 -> 20        -0.00069
       6 -> 21         0.00445
       6 -> 24        -0.00709
       6 -> 26        -0.00269
       6 -> 30        -0.00295
       6 -> 32         0.00456
       6 -> 34         0.00137
       6 -> 36         0.00064
       6 -> 39        -0.00145
       6 -> 43         0.00079
       6 -> 45        -0.00093
       6 -> 48         0.00073
       6 -> 50         0.00049
       6 -> 54        -0.00098
       7 ->  9         0.67434
       7 -> 13        -0.00761
       7 -> 18        -0.00920
       7 -> 23        -0.00289
       7 -> 28         0.00154
       7 -> 31        -0.00329
       7 -> 37         0.00135
       7 -> 44        -0.00095
       7 -> 52         0.00105
       8 -> 12        -0.00721
       8 -> 16         0.03238
       8 -> 19        -0.01741
       8 -> 22        -0.01078
       8 -> 29        -0.00735
       8 -> 33         0.00084
       8 -> 35        -0.00053
       8 -> 40         0.00018
       8 -> 42         0.00020
       8 -> 51         0.00013
       8 -> 53        -0.00048
       3 <- 10        -0.01064
       3 <- 11        -0.00233
       3 <- 14         0.00052
       3 <- 15        -0.00025
       3 <- 17        -0.00173
       3 <- 20        -0.00297
       3 <- 21         0.00015
       3 <- 24        -0.00018
       3 <- 26         0.00014
       3 <- 30         0.00017
       3 <- 32         0.00230
       3 <- 34         0.00050
       3 <- 36        -0.00096
       3 <- 39        -0.00029
       3 <- 43         0.00052
       3 <- 45        -0.00125
       3 <- 48         0.00231
       3 <- 50         0.00162
       4 <- 10         0.00066
       4 <- 11         0.00728
       4 <- 14         0.00131
       4 <- 15        -0.00514
       4 <- 17         0.00127
       4 <- 20         0.00230
       4 <- 24        -0.00285
       4 <- 26         0.00267
       4 <- 30        -0.00038
       4 <- 32        -0.00112
       4 <- 34        -0.00059
       4 <- 36         0.00031
       4 <- 39        -0.00029
       4 <- 43        -0.00038
       4 <- 45         0.00068
       4 <- 48        -0.00042
       4 <- 50        -0.00012
       4 <- 54         0.00011
       5 <- 12         0.00542
       5 <- 16         0.00127
       5 <- 19         0.00088
       5 <- 22         0.00479
       5 <- 25        -0.00323
       5 <- 29         0.00035
       5 <- 33        -0.00195
       5 <- 35         0.00237
       5 <- 40        -0.00084
       5 <- 42        -0.00089
       5 <- 51        -0.00083
       6 <- 10         0.09010
       6 <- 11         0.01398
       6 <- 14        -0.01783
       6 <- 15        -0.01126
       6 <- 17        -0.00937
       6 <- 20        -0.00176
       6 <- 21         0.00325
       6 <- 24        -0.00477
       6 <- 26        -0.00127
       6 <- 30        -0.00171
       6 <- 32         0.00431
       6 <- 34         0.00152
       6 <- 36         0.00014
       6 <- 39        -0.00130
       6 <- 43         0.00066
       6 <- 45        -0.00067
       6 <- 48         0.00041
       6 <- 50         0.00035
       6 <- 54        -0.00091
       7 <-  9        -0.13043
       7 <- 13         0.00269
       7 <- 18        -0.01078
       7 <- 23         0.00038
       7 <- 28        -0.00137
       7 <- 31        -0.00158
       7 <- 37         0.00065
       7 <- 44        -0.00082
       7 <- 47        -0.00044
       7 <- 52         0.00097
       8 <- 12        -0.00324
       8 <- 16         0.01724
       8 <- 19        -0.01057
       8 <- 22        -0.00740
       8 <- 25         0.00013
       8 <- 29        -0.00601
       8 <- 33         0.00068
       8 <- 35        -0.00041
       8 <- 40         0.00014
       8 <- 42         0.00015
       8 <- 49        -0.00010
       8 <- 51         0.00011
       8 <- 53        -0.00046

 Excited State   3:      Singlet-B2     3.2683 eV  379.35 nm  f=0.0019  <S**2>=0.000
       3 -> 12        -0.00113
       3 -> 16         0.00109
       3 -> 19        -0.00368
       3 -> 22         0.00110
       3 -> 25        -0.00088
       3 -> 29        -0.00241
       3 -> 33         0.00029
       3 -> 35         0.00124
       3 -> 40        -0.00118
       3 -> 42        -0.00043
       3 -> 49        -0.00396
       3 -> 51         0.00016
       3 -> 53         0.00025
       4 -> 12         0.00036
       4 -> 16        -0.00132
       4 -> 19         0.00033
       4 -> 22         0.00161
       4 -> 25         0.00053
       4 -> 29         0.00079
       4 -> 33        -0.00030
       4 -> 35         0.00041
       4 -> 40         0.00024
       4 -> 42         0.00010
       4 -> 49         0.00073
       5 -> 10         0.00954
       5 -> 11         0.00106
       5 -> 14        -0.00279
       5 -> 15         0.00286
       5 -> 17        -0.00052
       5 -> 20         0.00190
       5 -> 21         0.00273
       5 -> 24         0.00134
       5 -> 26        -0.00039
       5 -> 30        -0.00211
       5 -> 32        -0.00097
       5 -> 34        -0.00019
       5 -> 39         0.00059
       5 -> 41         0.00038
       5 -> 48        -0.00034
       5 -> 50         0.00022
       5 -> 54        -0.00018
       6 -> 12         0.00241
       6 -> 16        -0.00282
       6 -> 19         0.00423
       6 -> 22        -0.00066
       6 -> 25         0.00115
       6 -> 29         0.00028
       6 -> 33        -0.00017
       6 -> 35        -0.00113
       6 -> 40         0.00071
       6 -> 42         0.00060
       6 -> 49         0.00111
       6 -> 53        -0.00045
       7 -> 27        -0.00050
       7 -> 38         0.00029
       7 -> 46         0.00287
       8 -> 10         0.70477
       8 -> 11         0.05057
       8 -> 14        -0.04799
       8 -> 15        -0.01997
       8 -> 17        -0.01647
       8 -> 20         0.00579
       8 -> 21         0.00543
       8 -> 24        -0.00545
       8 -> 26        -0.00411
       8 -> 30        -0.01339
       8 -> 34        -0.00105
       8 -> 36         0.00162
       8 -> 39         0.00040
       8 -> 41        -0.00017
       8 -> 45        -0.00078
       8 -> 48        -0.00354
       8 -> 50         0.00128
       8 -> 54        -0.00247
       3 <- 12        -0.00040
       3 <- 16         0.00040
       3 <- 19        -0.00184
       3 <- 22         0.00091
       3 <- 25        -0.00079
       3 <- 29        -0.00099
       3 <- 33         0.00028
       3 <- 35         0.00080
       3 <- 40        -0.00102
       3 <- 42        -0.00027
       3 <- 49        -0.00402
       3 <- 51         0.00015
       3 <- 53         0.00069
       4 <- 12         0.00011
       4 <- 16        -0.00160
       4 <- 19         0.00019
       4 <- 22         0.00198
       4 <- 25         0.00028
       4 <- 29         0.00105
       4 <- 33        -0.00031
       4 <- 35         0.00059
       4 <- 40         0.00010
       4 <- 49         0.00051
       5 <- 10        -0.00094
       5 <- 11        -0.00055
       5 <- 14        -0.00042
       5 <- 15         0.00229
       5 <- 17         0.00019
       5 <- 20         0.00077
       5 <- 21         0.00154
       5 <- 24         0.00150
       5 <- 30        -0.00046
       5 <- 32        -0.00025
       5 <- 39         0.00028
       5 <- 41         0.00040
       5 <- 45        -0.00020
       5 <- 48        -0.00036
       5 <- 50         0.00012
       6 <- 12        -0.00093
       6 <- 16         0.00801
       6 <- 19        -0.00446
       6 <- 22        -0.00520
       6 <- 25         0.00130
       6 <- 29        -0.00618
       6 <- 33         0.00018
       6 <- 35        -0.00093
       6 <- 40         0.00070
       6 <- 42         0.00060
       6 <- 49         0.00163
       6 <- 53        -0.00143
       7 <- 27        -0.00050
       7 <- 38         0.00024
       7 <- 46         0.00250
       8 <- 10        -0.04903
       8 <- 11        -0.00714
       8 <- 14         0.00718
       8 <- 15         0.00221
       8 <- 17         0.00230
       8 <- 20        -0.00341
       8 <- 21        -0.00117
       8 <- 24         0.00146
       8 <- 26         0.00107
       8 <- 30         0.00227
       8 <- 32         0.00251
       8 <- 34         0.00079
       8 <- 36        -0.00086
       8 <- 39        -0.00095
       8 <- 41         0.00018
       8 <- 43         0.00036
       8 <- 45        -0.00149
       8 <- 48        -0.00295
       8 <- 50         0.00113
       8 <- 54        -0.00066

 Excited State   4:      Singlet-B1     3.5050 eV  353.73 nm  f=0.0000  <S**2>=0.000
       3 ->  9        -0.02108
       3 -> 13         0.00070
       3 -> 18        -0.00364
       3 -> 23         0.00117
       3 -> 28        -0.00124
       3 -> 31        -0.00098
       3 -> 37         0.00017
       3 -> 44         0.00031
       3 -> 47        -0.00048
       3 -> 52         0.00061
       4 ->  9         0.00121
       4 -> 13        -0.00051
       4 -> 18         0.00022
       4 -> 23        -0.00051
       4 -> 28         0.00065
       4 -> 31        -0.00101
       4 -> 37        -0.00015
       4 -> 47        -0.00019
       4 -> 52        -0.00021
       5 -> 27        -0.00118
       5 -> 38         0.00077
       5 -> 46         0.00038
       6 ->  9         0.57858
       6 -> 13        -0.01486
       6 -> 18         0.01294
       6 -> 23        -0.00904
       6 -> 28         0.00376
       6 -> 31         0.00124
       6 -> 37        -0.00083
       6 -> 44        -0.00132
       6 -> 47         0.00284
       6 -> 52         0.00065
       7 -> 10         0.41084
       7 -> 11         0.03150
       7 -> 14        -0.03104
       7 -> 15        -0.01309
       7 -> 17        -0.01172
       7 -> 20         0.00413
       7 -> 21         0.00235
       7 -> 24        -0.00477
       7 -> 26        -0.00395
       7 -> 30        -0.00671
       7 -> 32         0.00090
       7 -> 34        -0.00019
       7 -> 36         0.00116
       7 -> 41        -0.00015
       7 -> 43         0.00048
       7 -> 45        -0.00090
       7 -> 48         0.00332
       7 -> 50         0.00112
       7 -> 54        -0.00070
       8 -> 27         0.00012
       8 -> 46         0.00404
       3 <-  9        -0.00701
       3 <- 13        -0.00067
       3 <- 18        -0.00238
       3 <- 23        -0.00033
       3 <- 28        -0.00074
       3 <- 31        -0.00075
       3 <- 37         0.00012
       3 <- 47        -0.00041
       3 <- 52         0.00067
       4 <-  9         0.00164
       4 <- 13         0.00021
       4 <- 18         0.00126
       4 <- 28         0.00145
       4 <- 31        -0.00075
       4 <- 44        -0.00028
       4 <- 47        -0.00023
       5 <- 27        -0.00133
       5 <- 38         0.00071
       5 <- 46         0.00035
       6 <-  9        -0.05275
       6 <- 13         0.00231
       6 <- 18        -0.00601
       6 <- 23         0.00055
       6 <- 28        -0.00420
       6 <- 31        -0.00117
       6 <- 37        -0.00053
       6 <- 47         0.00267
       6 <- 52        -0.00040
       7 <- 10        -0.06037
       7 <- 11        -0.00894
       7 <- 14         0.01228
       7 <- 15         0.00688
       7 <- 17         0.00354
       7 <- 20         0.00112
       7 <- 21        -0.00311
       7 <- 24         0.00344
       7 <- 26         0.00177
       7 <- 30         0.00233
       7 <- 32         0.00015
       7 <- 34         0.00046
       7 <- 36         0.00050
       7 <- 39        -0.00052
       7 <- 41         0.00023
       7 <- 43         0.00027
       7 <- 45        -0.00061
       7 <- 48         0.00306
       7 <- 50         0.00131
       7 <- 54         0.00052
       8 <- 27         0.00050
       8 <- 46         0.00373

 Excited State   5:      Singlet-B1     4.0448 eV  306.52 nm  f=0.0062  <S**2>=0.000
       3 ->  9         0.00165
       3 -> 13        -0.00012
       3 -> 18        -0.00099
       3 -> 28        -0.00206
       3 -> 31        -0.00112
       3 -> 44        -0.00013
       3 -> 47        -0.00328
       3 -> 52        -0.00034
       4 ->  9        -0.02965
       4 -> 13         0.00595
       4 -> 18         0.00071
       4 -> 23         0.00471
       4 -> 28         0.00067
       4 -> 31         0.00063
       4 -> 37         0.00036
       4 -> 44        -0.00039
       4 -> 47         0.00094
       4 -> 52         0.00020
       5 -> 27        -0.00594
       5 -> 38        -0.00369
       6 ->  9        -0.40921
       6 -> 13         0.00660
       6 -> 18        -0.00265
       6 -> 23         0.00445
       6 -> 28         0.00196
       6 -> 31        -0.00425
       6 -> 37         0.00268
       6 -> 44         0.00118
       6 -> 47        -0.00124
       6 -> 52        -0.00100
       7 -> 10         0.57372
       7 -> 11         0.03433
       7 -> 14        -0.03500
       7 -> 15        -0.02321
       7 -> 17        -0.00647
       7 -> 20        -0.00214
       7 -> 21         0.00221
       7 -> 24        -0.00766
       7 -> 26        -0.00429
       7 -> 30        -0.00655
       7 -> 32        -0.00051
       7 -> 34        -0.00341
       7 -> 36        -0.00141
       7 -> 39         0.00062
       7 -> 43         0.00036
       7 -> 45        -0.00073
       7 -> 48        -0.00015
       7 -> 50        -0.00011
       7 -> 54        -0.00162
       8 -> 27         0.00049
       8 -> 38         0.00018
       8 -> 46        -0.00016
       3 <-  9         0.00089
       3 <- 13         0.00086
       3 <- 18        -0.00012
       3 <- 23         0.00067
       3 <- 28        -0.00150
       3 <- 37        -0.00029
       3 <- 44        -0.00022
       3 <- 47        -0.00339
       4 <-  9        -0.01484
       4 <- 13         0.00294
       4 <- 18        -0.00012
       4 <- 23         0.00297
       4 <- 28         0.00053
       4 <- 31         0.00043
       4 <- 37         0.00035
       4 <- 44        -0.00053
       4 <- 47         0.00056
       4 <- 52         0.00015
       5 <- 27        -0.00433
       5 <- 38        -0.00311
       6 <-  9        -0.01992
       6 <- 13        -0.00081
       6 <- 18        -0.00225
       6 <- 23         0.00057
       6 <- 28         0.00075
       6 <- 31        -0.00475
       6 <- 37         0.00256
       6 <- 44         0.00095
       6 <- 47        -0.00054
       6 <- 52        -0.00126
       7 <- 10        -0.00624
       7 <- 11        -0.00033
       7 <- 14        -0.00118
       7 <- 15        -0.00618
       7 <- 20        -0.00498
       7 <- 21        -0.00036
       7 <- 24        -0.00314
       7 <- 26        -0.00053
       7 <- 30        -0.00045
       7 <- 32         0.00115
       7 <- 34        -0.00214

 The electronic state is 1-A1.
 Alpha  occ. eigenvalues --  -19.17790 -10.34150  -0.88664  -0.71743  -0.49355
 Alpha  occ. eigenvalues --   -0.38277  -0.30305  -0.28627
 Alpha virt. eigenvalues --   -0.17654  -0.08791  -0.00182   0.04036   0.06087
 Alpha virt. eigenvalues --    0.06231   0.11623   0.13104   0.18659   0.20925
 Alpha virt. eigenvalues --    0.23915   0.30423   0.38485   0.39329   0.50516

 Mulliken charges:
               1
     1  C   -0.104314
     2  H    0.193806
     3  H    0.193806
     4  O   -0.283299
 Sum of Mulliken charges =  -0.00000

 Dipole moment (field-independent basis, Debye):
    X=             -0.0000    Y=              0.0000    Z=             -4.2692  Tot=              4.2692
 Quadrupole moment (field-independent basis, Debye-Ang):
   XX=            -13.0854   YY=            -12.0747   ZZ=            -10.4747
   XY=              0.0000   XZ=              0.0000   YZ=              0.0000

 Normal termination of Gaussian 16 at Fri Sep 17 10:53:13 2021.
