 Gaussian 16, Revision A.03,
 Gaussian 16:  ES64L-G16RevA.03 25-Dec-2016

 --------------------------------------------------------------------
 #p B3LYP/6-311+G** #p TD=(singlets,nstates=30)IOp(6/8=3) IOp(9/40=4)
 --------------------------------------------------------------------

 ------------------------------
 Scan Step 30, Bond Length 0.65
 ------------------------------
 Symbolic Z-matrix:
 Charge =  0 Multiplicity = 1

                         Standard orientation:
 ---------------------------------------------------------------------
 Center     Atomic      Atomic             Coordinates (Angstroms)
 Number     Number       Type             X           Y           Z
 ---------------------------------------------------------------------
      1          6           0        0.000000    0.000000   -0.251081
      2          1           0        0.000000    0.937260   -0.842431
      3          1           0       -0.000000   -0.937260   -0.842431
      4          8           0        0.000000   -0.000000    0.398919
 ---------------------------------------------------------------------

 SCF Done:  E(RB3LYP) =  -112.426685673     A.U. after   10 cycles

 Excitation energies and oscillator strengths:

 Excited State   1:      Singlet-B2     4.7246 eV  262.42 nm  f=0.1291  <S**2>=0.000
       3 -> 11         0.00075
       3 -> 16         0.00070
       3 -> 19         0.00075
       3 -> 22         0.00054
       3 -> 24        -0.00104
       3 -> 29         0.00018
       3 -> 32        -0.00021
       3 -> 40        -0.00026
       3 -> 43         0.00022
       3 -> 54         0.00016
       4 ->  9        -0.00280
       4 -> 12         0.00267
       4 -> 13         0.00337
       4 -> 15         0.00147
       4 -> 18         0.00258
       4 -> 20         0.00208
       4 -> 21         0.00165
       4 -> 25         0.00141
       4 -> 26        -0.00077
       4 -> 30         0.00090
       4 -> 31         0.00145
       4 -> 33         0.00019
       4 -> 38        -0.00063
       4 -> 42         0.00048
       4 -> 44        -0.00029
       4 -> 47        -0.00076
       4 -> 49        -0.00013
       4 -> 51        -0.00011
       5 -> 28         0.00189
       5 -> 35         0.00085
       5 -> 45         0.00077
       6 -> 11        -0.00529
       6 -> 16         0.00353
       6 -> 19         0.00036
       6 -> 22        -0.00057
       6 -> 24        -0.00460
       6 -> 29         0.00070
       6 -> 32        -0.00069
       6 -> 37         0.00014
       6 -> 40        -0.00010
       6 -> 43         0.00015
       6 -> 46         0.00035
       7 -> 11         0.00861
       7 -> 16         0.00354
       7 -> 19         0.00314
       7 -> 22         0.00019
       7 -> 24        -0.00060
       7 -> 29        -0.00115
       7 -> 32         0.00093
       7 -> 37        -0.00070
       7 -> 43        -0.00040
       7 -> 46         0.00040
       7 -> 50         0.00042
       7 -> 54        -0.00011
       8 ->  9         0.70510
       8 -> 12        -0.00061
       8 -> 13         0.05146
       8 -> 15        -0.00580
       8 -> 18        -0.02235
       8 -> 20         0.00539
       8 -> 21         0.01051
       8 -> 25        -0.00024
       8 -> 26        -0.00052
       8 -> 30        -0.00323
       8 -> 31        -0.00198
       8 -> 33        -0.00096
       8 -> 38        -0.00111
       8 -> 42         0.00075
       8 -> 44         0.00037
       8 -> 47         0.00072
       8 -> 49         0.00027
       8 -> 51         0.00011
       3 <- 11         0.00033
       3 <- 16         0.00036
       3 <- 19         0.00049
       3 <- 22         0.00044
       3 <- 24        -0.00078
       3 <- 29         0.00014
       3 <- 32        -0.00022
       3 <- 40        -0.00027
       3 <- 43         0.00021
       3 <- 54         0.00016
       4 <-  9        -0.00120
       4 <- 12        -0.00021
       4 <- 13         0.00277
       4 <- 15         0.00172
       4 <- 18         0.00047
       4 <- 20         0.00124
       4 <- 21         0.00131
       4 <- 25         0.00109
       4 <- 26        -0.00133
       4 <- 30         0.00069
       4 <- 31         0.00061
       4 <- 33         0.00020
       4 <- 38        -0.00041
       4 <- 39         0.00015
       4 <- 42         0.00039
       4 <- 44        -0.00023
       4 <- 47        -0.00068
       5 <- 28         0.00159
       5 <- 35         0.00069
       5 <- 45         0.00065
       6 <- 11        -0.00111
       6 <- 16         0.00313
       6 <- 19         0.00059
       6 <- 24        -0.00339
       6 <- 29         0.00021
       6 <- 32        -0.00060
       6 <- 37         0.00020
       6 <- 43         0.00011
       6 <- 46         0.00032
       6 <- 50         0.00017
       7 <- 11         0.00192
       7 <- 16         0.00146
       7 <- 19         0.00041
       7 <- 29        -0.00165
       7 <- 32         0.00076
       7 <- 37        -0.00043
       7 <- 43        -0.00028
       7 <- 46         0.00043
       7 <- 50         0.00049
       8 <-  9        -0.00949
       8 <- 12        -0.00581
       8 <- 13         0.02134
       8 <- 15         0.00663
       8 <- 18         0.00124
       8 <- 20         0.00070
       8 <- 21         0.00540
       8 <- 25         0.00302
       8 <- 26        -0.00017
       8 <- 30        -0.00214
       8 <- 31        -0.00138
       8 <- 33        -0.00133
       8 <- 38        -0.00107
       8 <- 42         0.00065
       8 <- 44         0.00010
       8 <- 47         0.00062
       8 <- 49         0.00018
 This state for optimization and/or second-order correction.
 Total Energy, E(TD-HF/TD-DFT) =  -112.253059869
 Copying the excited state density for this state as the 1-particle RhoCI density.

 Excited State   2:      Singlet-A2     5.0669 eV  244.70 nm  f=0.0000  <S**2>=0.000
       3 -> 28        -0.00184
       3 -> 35        -0.00110
       3 -> 45        -0.00038
       4 -> 10        -0.00083
       4 -> 14         0.00038
       4 -> 17        -0.00330
       4 -> 23         0.00138
       4 -> 27        -0.00215
       4 -> 36        -0.00136
       4 -> 41        -0.00013
       4 -> 48        -0.00014
       4 -> 52        -0.00025
       5 -> 11         0.00026
       5 -> 16        -0.00017
       5 -> 19         0.00034
       5 -> 22        -0.00085
       5 -> 24        -0.00024
       5 -> 29         0.00026
       5 -> 32        -0.00010
       5 -> 37        -0.00032
       5 -> 40         0.00011
       5 -> 43        -0.00037
       5 -> 46        -0.00033
       5 -> 50         0.00018
       6 -> 28        -0.00316
       6 -> 35         0.00049
       7 -> 28         0.00163
       7 -> 35        -0.00035
       7 -> 45        -0.00041
       8 -> 10         0.70630
       8 -> 14        -0.02039
       8 -> 17         0.02752
       8 -> 23         0.00334
       8 -> 27         0.00120
       8 -> 34         0.00326
       8 -> 36        -0.00182
       8 -> 41         0.00033
       8 -> 48         0.00014
       8 -> 52         0.00034
       3 <- 28        -0.00152
       3 <- 35        -0.00096
       3 <- 45        -0.00036
       4 <- 10        -0.00018
       4 <- 14         0.00060
       4 <- 17        -0.00078
       4 <- 23         0.00013
       4 <- 27        -0.00040
       4 <- 34         0.00072
       4 <- 36        -0.00077
       4 <- 41        -0.00020
       5 <- 11         0.00057
       5 <- 16        -0.00054
       5 <- 19         0.00138
       5 <- 22        -0.00119
       5 <- 24        -0.00105
       5 <- 29         0.00129
       5 <- 32         0.00019
       5 <- 37        -0.00069
       5 <- 43        -0.00042
       5 <- 46        -0.00034
       5 <- 54        -0.00023
       6 <- 28        -0.00306
       6 <- 35         0.00063
       7 <- 28         0.00168
       7 <- 35        -0.00045
       7 <- 45        -0.00042
       8 <- 10         0.00185
       8 <- 14         0.00458
       8 <- 17        -0.00651
       8 <- 23         0.00018
       8 <- 27        -0.00058
       8 <- 34         0.00312
       8 <- 36        -0.00145
       8 <- 41         0.00021
       8 <- 52         0.00012

 Excited State   3:      Singlet-B2     5.6950 eV  217.71 nm  f=0.0351  <S**2>=0.000
       3 -> 11        -0.00016
       3 -> 16         0.00045
       3 -> 19        -0.00032
       3 -> 22         0.00030
       3 -> 24        -0.00029
       3 -> 29        -0.00034
       3 -> 32         0.00012
       3 -> 37        -0.00020
       3 -> 40         0.00012
       3 -> 43        -0.00020
       3 -> 46         0.00013
       3 -> 54        -0.00018
       4 ->  9         0.00154
       4 -> 12         0.00029
       4 -> 13         0.00115
       4 -> 15         0.00227
       4 -> 18        -0.00119
       4 -> 20        -0.00054
       4 -> 21         0.00115
       4 -> 25         0.00086
       4 -> 26         0.00049
       4 -> 30        -0.00217
       4 -> 31        -0.00039
       4 -> 38         0.00029
       4 -> 39        -0.00096
       4 -> 42        -0.00031
       4 -> 47         0.00049
       5 -> 28        -0.00100
       5 -> 35        -0.00120
       5 -> 45        -0.00066
       6 -> 11        -0.00067
       6 -> 16         0.00359
       6 -> 19        -0.00183
       6 -> 24        -0.00175
       6 -> 29         0.00187
       6 -> 32         0.00040
       6 -> 37         0.00061
       6 -> 40         0.00043
       6 -> 43         0.00029
       6 -> 46        -0.00031
       6 -> 50        -0.00025
       6 -> 54         0.00014
       7 -> 11        -0.00187
       7 -> 16        -0.00436
       7 -> 19        -0.00110
       7 -> 22         0.00052
       7 -> 24         0.00319
       7 -> 29        -0.00109
       7 -> 32        -0.00048
       7 -> 37         0.00052
       7 -> 43         0.00013
       7 -> 46        -0.00056
       7 -> 50        -0.00028
       7 -> 54         0.00014
       8 ->  9        -0.00109
       8 -> 12         0.70565
       8 -> 13         0.03367
       8 -> 15         0.02695
       8 -> 18         0.00736
       8 -> 20         0.01578
       8 -> 21         0.00541
       8 -> 25        -0.00091
       8 -> 26         0.00186
       8 -> 30        -0.00268
       8 -> 31         0.00052
       8 -> 33        -0.00022
       8 -> 38        -0.00047
       8 -> 39         0.00143
       8 -> 42         0.00087
       8 -> 47        -0.00039
       8 -> 53        -0.00015
       3 <- 16         0.00043
       3 <- 22         0.00015
       3 <- 24        -0.00035
       3 <- 29        -0.00019
       3 <- 32         0.00013
       3 <- 37        -0.00021
       3 <- 43        -0.00019
       3 <- 54        -0.00023
       4 <-  9        -0.00116
       4 <- 12        -0.00017
       4 <- 13         0.00121
       4 <- 15         0.00068
       4 <- 18         0.00059
       4 <- 20        -0.00042
       4 <- 21         0.00079
       4 <- 25         0.00097
       4 <- 26         0.00056
       4 <- 30        -0.00144
       4 <- 33        -0.00057
       4 <- 38         0.00020
       4 <- 39        -0.00071
       4 <- 42        -0.00032
       4 <- 47         0.00046
       5 <- 28        -0.00060
       5 <- 35        -0.00104
       5 <- 45        -0.00059
       6 <- 11        -0.00049
       6 <- 16         0.00073
       6 <- 19         0.00027
       6 <- 22        -0.00056
       6 <- 24        -0.00151
       6 <- 29         0.00143
       6 <- 32         0.00058
       6 <- 37         0.00057
       6 <- 40         0.00036
       6 <- 43         0.00021
       6 <- 46        -0.00026
       6 <- 50        -0.00019
       7 <- 16        -0.00143
       7 <- 19        -0.00058
       7 <- 22         0.00036
       7 <- 24         0.00186
       7 <- 29        -0.00027
       7 <- 32        -0.00039
       7 <- 37         0.00017
       7 <- 46        -0.00049
       7 <- 50        -0.00036
       8 <-  9        -0.00533
       8 <- 12         0.00096
       8 <- 13         0.01142
       8 <- 15         0.00449
       8 <- 18        -0.00118
       8 <- 20        -0.00309
       8 <- 21         0.00331
       8 <- 25         0.00065
       8 <- 30        -0.00225
       8 <- 31         0.00050
       8 <- 33        -0.00012
       8 <- 38        -0.00030
       8 <- 39         0.00125
       8 <- 42         0.00076
       8 <- 47        -0.00032

 Excited State   4:      Singlet-A1     5.8767 eV  210.98 nm  f=0.0061  <S**2>=0.000
       3 ->  9         0.00130
       3 -> 12        -0.00047
       3 -> 13         0.00021
       3 -> 15        -0.00074
       3 -> 18        -0.00154
       3 -> 20        -0.00013
       3 -> 21         0.00083
       3 -> 25        -0.00069
       3 -> 26        -0.00031
       3 -> 30         0.00068
       3 -> 31        -0.00079
       3 -> 33         0.00045
       3 -> 38         0.00038
       3 -> 39         0.00033
       3 -> 47        -0.00012
       3 -> 51         0.00019
       3 -> 53        -0.00011
       4 -> 11        -0.00601
       4 -> 16        -0.00606
       4 -> 19        -0.00467
       4 -> 22        -0.00248
       4 -> 24         0.00325
       4 -> 37        -0.00101
       4 -> 40        -0.00013
       4 -> 43         0.00025
       4 -> 50         0.00017
       5 -> 10        -0.00321
       5 -> 14        -0.00365
       5 -> 17        -0.00245
       5 -> 23        -0.00347
       5 -> 27        -0.00084
       5 -> 34        -0.00086
       5 -> 36        -0.00059
       5 -> 48         0.00019
       6 ->  9         0.01155
       6 -> 12         0.00606
       6 -> 13        -0.00390
       6 -> 15        -0.00439
       6 -> 18        -0.00728
       6 -> 20         0.00434
       6 -> 21         0.00147
       6 -> 25        -0.00559
       6 -> 26         0.00090
       6 -> 30        -0.00036
       6 -> 31         0.00164
       6 -> 33         0.00201
       6 -> 38         0.00128
       6 -> 39        -0.00112
       6 -> 42        -0.00016
       6 -> 44         0.00064
       6 -> 49        -0.00043
       7 ->  9         0.00693
       7 -> 12        -0.01235
       7 -> 13         0.00111
       7 -> 15         0.00548
       7 -> 18        -0.00705
       7 -> 20        -0.00388
       7 -> 21        -0.00091
       7 -> 25         0.00172
       7 -> 26        -0.00320
       7 -> 30        -0.00072
       7 -> 31        -0.00183
       7 -> 33         0.00011
       7 -> 38        -0.00078
       7 -> 39         0.00057
       7 -> 42         0.00015
       7 -> 44        -0.00037
       7 -> 51        -0.00016
       8 -> 11         0.70466
       8 -> 16         0.05343
       8 -> 19        -0.01995
       8 -> 22        -0.00076
       8 -> 24        -0.00736
       8 -> 29        -0.00373
       8 -> 32         0.00201
       8 -> 37        -0.00333
       8 -> 40        -0.00042
       8 -> 43         0.00186
       8 -> 46        -0.00096
       8 -> 50         0.00020
       3 <-  9         0.00073
       3 <- 12        -0.00023
       3 <- 13         0.00017
       3 <- 15        -0.00047
       3 <- 18        -0.00099
       3 <- 20        -0.00010
       3 <- 21         0.00056
       3 <- 25        -0.00053
       3 <- 26        -0.00025
       3 <- 30         0.00052
       3 <- 31        -0.00054
       3 <- 33         0.00039
       3 <- 38         0.00029
       3 <- 39         0.00027
       3 <- 47        -0.00015
       3 <- 51         0.00016
       3 <- 53        -0.00010
       4 <- 11        -0.00250
       4 <- 16        -0.00251
       4 <- 19        -0.00269
       4 <- 22        -0.00177
       4 <- 24         0.00179
       4 <- 32         0.00013
       4 <- 37        -0.00085
       4 <- 40        -0.00012
       4 <- 43         0.00023
       4 <- 50         0.00015
       5 <- 10        -0.00180
       5 <- 14        -0.00214
       5 <- 17        -0.00151
       5 <- 23        -0.00243
       5 <- 27        -0.00061
       5 <- 34        -0.00071
       5 <- 36        -0.00050
       5 <- 48         0.00018
       6 <-  9         0.00814
       6 <- 12         0.00311
       6 <- 13        -0.00309
       6 <- 15        -0.00352
       6 <- 18        -0.00393
       6 <- 20         0.00243
       6 <- 21         0.00181
       6 <- 25        -0.00377
       6 <- 26         0.00057
       6 <- 31         0.00121
       6 <- 33         0.00145
       6 <- 38         0.00126
       6 <- 39        -0.00087
       6 <- 42        -0.00015
       6 <- 44         0.00062
       6 <- 49        -0.00036
       7 <-  9        -0.00013
       7 <- 12        -0.00508
       7 <- 13         0.00164
       7 <- 15         0.00381
       7 <- 18        -0.00331
       7 <- 20        -0.00185
       7 <- 21        -0.00103
       7 <- 25         0.00122
       7 <- 26        -0.00211
       7 <- 30        -0.00073
       7 <- 31        -0.00139
       7 <- 38        -0.00071
       7 <- 39         0.00033
       7 <- 44        -0.00037
       7 <- 47         0.00011
       7 <- 51        -0.00015
       8 <- 11        -0.01060
       8 <- 16         0.00510
       8 <- 19        -0.01571
       8 <- 22        -0.00415
       8 <- 24        -0.00323
       8 <- 29        -0.00270
       8 <- 32         0.00182
       8 <- 37        -0.00265
       8 <- 40        -0.00016
       8 <- 43         0.00149
       8 <- 46        -0.00092
       8 <- 50         0.00020

 Excited State   5:      Singlet-A2     8.2198 eV  150.84 nm  f=0.0000  <S**2>=0.000
       3 -> 28         0.00256
       3 -> 35         0.00163
       3 -> 45         0.00053
       4 -> 10         0.00014
       4 -> 14        -0.00682
       4 -> 17         0.00170
       4 -> 23        -0.00331
       4 -> 27         0.00064
       4 -> 34         0.00085
       4 -> 36         0.00247
       4 -> 52         0.00030
       5 -> 16        -0.00041
       5 -> 19        -0.00048
       5 -> 22         0.00133
       5 -> 24         0.00072
       5 -> 37         0.00044
       5 -> 40        -0.00015
       5 -> 43         0.00061
       5 -> 46         0.00044
       5 -> 50        -0.00013
       5 -> 54         0.00013
       6 -> 28         0.00275
       6 -> 35        -0.00065
       6 -> 45         0.00012
       7 -> 28        -0.00147
       7 -> 35         0.00042
       7 -> 45         0.00048
       8 -> 10         0.02272
       8 -> 14         0.70347
       8 -> 17        -0.06491
       8 -> 23         0.01947
       8 -> 27        -0.00247
       8 -> 34        -0.00282
       8 -> 36         0.00283
       8 -> 41        -0.00014
       8 -> 52        -0.00038
       3 <- 28         0.00177
       3 <- 35         0.00133
       3 <- 45         0.00058
       4 <- 10         0.00032
       4 <- 14        -0.00066
       4 <- 17         0.00055
       4 <- 23        -0.00022
       4 <- 27         0.00028
       4 <- 34        -0.00063
       4 <- 36         0.00095
       4 <- 41         0.00027
       4 <- 52         0.00011
       5 <- 11         0.00038
       5 <- 16        -0.00019
       5 <- 19        -0.00045
       5 <- 22         0.00164
       5 <- 24         0.00152
       5 <- 29        -0.00040
       5 <- 32        -0.00055
       5 <- 37         0.00111
       5 <- 43         0.00069
       5 <- 46         0.00017
       5 <- 54         0.00027
       6 <- 28         0.00288
       6 <- 35        -0.00056
       6 <- 45        -0.00011
       7 <- 28        -0.00144
       7 <- 35         0.00011
       7 <- 45         0.00030
       8 <- 10         0.00497
       8 <- 14        -0.00288
       8 <- 17         0.00439
       8 <- 23        -0.00079
       8 <- 27         0.00047
       8 <- 34        -0.00310
       8 <- 36         0.00157
       8 <- 41        -0.00022
       8 <- 52        -0.00016

 Excited State   6:      Singlet-B2     8.9245 eV  138.92 nm  f=0.0958  <S**2>=0.000
       3 -> 11         0.00045
       3 -> 16        -0.00083
       3 -> 19         0.00098
       3 -> 22        -0.00053
       3 -> 24         0.00024

 The electronic state is 1-A1.
 Alpha  occ. eigenvalues --  -19.21527 -10.34965  -1.30522  -0.81603  -0.78664
 Alpha  occ. eigenvalues --   -0.58199  -0.53980  -0.20191
 Alpha virt. eigenvalues --    0.00647   0.02738   0.04428   0.04686   0.14342
 Alpha virt. eigenvalues --    0.15226   0.17857   0.18264   0.21737   0.22998
 Alpha virt. eigenvalues --    0.27483   0.36584   0.50707   0.57482   0.59124

 Mulliken charges:
               1
     1  C    0.286076
     2  H   -0.107850
     3  H   -0.107850
     4  O   -0.070376
 Sum of Mulliken charges =  -0.00000

 Dipole moment (field-independent basis, Debye):
    X=              0.0000    Y=              0.0000    Z=              1.2872  Tot=              1.2872
 Quadrupole moment (field-independent basis, Debye-Ang):
   XX=            -10.1709   YY=            -13.8091   ZZ=            -13.6655
   XY=             -0.0000   XZ=             -0.0000   YZ=             -0.0000

 Normal termination of Gaussian 16 at Fri Sep 17 10:52:24 2021.
