 Gaussian 16, Revision C.01,
 Gaussian 16:  ES64L-G16RevC.01  3-Jul-2019

 ----------------------------------------
 #P wB97XD/6-311+G* NoSymm #P Field=Y-184
 ----------------------------------------

 -------
 TitleMe
 -------
 Symbolic Z-matrix:
 Charge =  1 Multiplicity = 1

                          Input orientation:
 ---------------------------------------------------------------------
 Center     Atomic      Atomic             Coordinates (Angstroms)
 Number     Number       Type             X           Y           Z
 ---------------------------------------------------------------------
      1          6           0        0.519300    1.233000   -0.031900
      2          6           0        1.944500    1.269200   -0.036700
      3          6           0        2.620400    0.092800   -0.025000
      4          6           0       -0.196000    0.030100    0.001000
      5          1           0       -0.020700    2.174200   -0.043400
      6          1           0        2.482800    2.208900   -0.036100
      7          1           0       -1.277700    0.039900    0.011700
      8          7           0        4.092100    0.095900    0.036600
      9          8           0        4.639300   -1.021700    0.144600
     10          8           0        4.664900    1.198400   -0.023300
     11          6           0        0.494300   -1.167100    0.021000
     12          1           0       -0.032500   -2.114900    0.054500
     13          6           0        1.962900   -1.216500   -0.021100
     14          1           0        2.443600   -1.963100    0.615100
     15         35           0        2.173000   -1.949100   -1.906200
 ---------------------------------------------------------------------

 SCF Done:  E(RwB97XD) =  -3010.54491858     A.U. after   21 cycles

 Alpha  occ. eigenvalues -- -483.34096 -62.89149 -56.68801 -56.68285 -56.68283
 Alpha  occ. eigenvalues --  -19.46675 -19.46312 -14.85857 -10.60666 -10.59676
 Alpha  occ. eigenvalues --  -10.58667 -10.57286 -10.53707 -10.53121  -9.04976
 Alpha  occ. eigenvalues --   -6.87543  -6.85843  -6.85830  -2.97474  -2.97020
 Alpha  occ. eigenvalues --   -2.97009  -2.95648  -2.95647  -1.50141  -1.33097
 Alpha  occ. eigenvalues --   -1.23631  -1.14208  -1.13326  -1.06675  -1.01298
 Alpha  occ. eigenvalues --   -0.96358  -0.91330  -0.85753  -0.81483  -0.81063
 Alpha  occ. eigenvalues --   -0.80436  -0.78886  -0.76587  -0.76275  -0.73337
 Alpha  occ. eigenvalues --   -0.69260  -0.67836  -0.64344  -0.61781  -0.59760
 Alpha  occ. eigenvalues --   -0.57986  -0.57451  -0.56123  -0.55765
 Alpha virt. eigenvalues --   -0.31333  -0.20779  -0.18098  -0.16867  -0.13644
 Alpha virt. eigenvalues --   -0.12611  -0.11594  -0.08381  -0.07372  -0.06507
 Alpha virt. eigenvalues --   -0.05399  -0.04441  -0.03763  -0.03444  -0.01361

 Mulliken charges:
               1
     1  C   -0.120115
     2  C    0.218561
     3  C   -0.043700
     4  C   -0.290241
     5  H    0.417610
     6  H    0.415858
     7  H    0.336722
     8  N   -0.234268
     9  O   -0.010557
    10  O    0.176151
    11  C   -0.203188
    12  H    0.286828
    13  C   -0.363858
    14  H    0.365772
    15  Br   0.048424
 Sum of Mulliken charges =   1.00000

 Dipole moment (field-independent basis, Debye):
    X=              2.5053    Y=              4.5118    Z=             -0.0308  Tot=              5.1609
 Quadrupole moment (field-independent basis, Debye-Ang):
   XX=            -68.1403   YY=            -54.4515   ZZ=            -64.2188
   XY=              8.3046   XZ=             -0.9950   YZ=             -0.4164

 Normal termination of Gaussian 16 at Thu May  2 14:20:42 2024.
