 Gaussian 16, Revision C.01,
 Gaussian 16:  ES64L-G16RevC.01  3-Jul-2019

 ----------------------------------------
 #P wB97XD/6-311+G* NoSymm #P Field=Z-214
 ----------------------------------------

 -------
 TitleMe
 -------
 Symbolic Z-matrix:
 Charge =  1 Multiplicity = 1

                          Input orientation:
 ---------------------------------------------------------------------
 Center     Atomic      Atomic             Coordinates (Angstroms)
 Number     Number       Type             X           Y           Z
 ---------------------------------------------------------------------
      1          6           0        0.519300    1.233000   -0.031900
      2          6           0        1.944500    1.269200   -0.036700
      3          6           0        2.620400    0.092800   -0.025000
      4          6           0       -0.196000    0.030100    0.001000
      5          1           0       -0.020700    2.174200   -0.043400
      6          1           0        2.482800    2.208900   -0.036100
      7          1           0       -1.277700    0.039900    0.011700
      8          7           0        4.092100    0.095900    0.036600
      9          8           0        4.639300   -1.021700    0.144600
     10          8           0        4.664900    1.198400   -0.023300
     11          6           0        0.494300   -1.167100    0.021000
     12          1           0       -0.032500   -2.114900    0.054500
     13          6           0        1.962900   -1.216500   -0.021100
     14          1           0        2.443600   -1.963100    0.615100
     15         35           0        2.173000   -1.949100   -1.906200
 ---------------------------------------------------------------------

 SCF Done:  E(RwB97XD) =  -3010.54174739     A.U. after   21 cycles

 Alpha  occ. eigenvalues -- -483.34909 -62.89975 -56.69606 -56.69122 -56.69118
 Alpha  occ. eigenvalues --  -19.46853 -19.46788 -14.86295 -10.60488 -10.60159
 Alpha  occ. eigenvalues --  -10.58623 -10.58498 -10.54635 -10.53934  -9.05812
 Alpha  occ. eigenvalues --   -6.88322  -6.86710  -6.86700  -2.98266  -2.97834
 Alpha  occ. eigenvalues --   -2.97825  -2.96534  -2.96533  -1.50508  -1.33452
 Alpha  occ. eigenvalues --   -1.23966  -1.14921  -1.13739  -1.07401  -1.01714
 Alpha  occ. eigenvalues --   -0.96751  -0.91812  -0.85840  -0.81912  -0.81235
 Alpha  occ. eigenvalues --   -0.80875  -0.79062  -0.77045  -0.76737  -0.74013
 Alpha  occ. eigenvalues --   -0.69860  -0.68864  -0.65390  -0.62578  -0.60595
 Alpha  occ. eigenvalues --   -0.58196  -0.57821  -0.56594  -0.56307
 Alpha virt. eigenvalues --   -0.31944  -0.21475  -0.19725  -0.17082  -0.14352
 Alpha virt. eigenvalues --   -0.13400  -0.11924  -0.09508  -0.08218  -0.07382
 Alpha virt. eigenvalues --   -0.05561  -0.05215  -0.03131  -0.02542  -0.01965

 Mulliken charges:
               1
     1  C   -0.055060
     2  C    0.090774
     3  C   -0.098982
     4  C   -0.361997
     5  H    0.352619
     6  H    0.357838
     7  H    0.340779
     8  N   -0.200689
     9  O    0.092376
    10  O    0.076042
    11  C   -0.138599
    12  H    0.366401
    13  C   -0.270967
    14  H    0.479967
    15  Br  -0.030501
 Sum of Mulliken charges =   1.00000

 Dipole moment (field-independent basis, Debye):
    X=              2.5013    Y=             -0.0726    Z=              3.0973  Tot=              3.9818
 Quadrupole moment (field-independent basis, Debye-Ang):
   XX=            -67.7762   YY=            -52.5230   ZZ=            -67.5373
   XY=             -1.3211   XZ=              5.3637   YZ=             -1.3110

 Normal termination of Gaussian 16 at Thu May  2 14:20:50 2024.
