 Gaussian 16, Revision C.01,
 Gaussian 16:  ES64L-G16RevC.01  3-Jul-2019

 ---------------------------------------
 #P wB97XD/6-311+G* NoSymm #P Field=Z-38
 ---------------------------------------

 -------
 TitleMe
 -------
 Symbolic Z-matrix:
 Charge =  1 Multiplicity = 1

                          Input orientation:
 ---------------------------------------------------------------------
 Center     Atomic      Atomic             Coordinates (Angstroms)
 Number     Number       Type             X           Y           Z
 ---------------------------------------------------------------------
      1          6           0        0.029500    1.339700    0.068200
      2          6           0        1.434800    1.286700    0.006400
      3          6           0        2.111800    0.051100   -0.005400
      4          6           0        1.445100   -1.137200    0.031200
      5          6           0       -0.687900    0.168200    0.110000
      6          1           0       -0.471300    2.298400    0.078100
      7          1           0        2.027300    2.196500   -0.032200
      8          1           0        1.989700   -2.076400    0.023200
      9          1           0       -1.771600    0.180400    0.158200
     10          7           0        3.586400    0.051000   -0.067500
     11          8           0        4.147100   -1.059700   -0.088100
     12          8           0        4.145000    1.163900   -0.090100
     13          6           0       -0.023600   -1.145800    0.083500
     14          1           0       -0.436700   -1.872500    0.788900
     15         35           0       -0.535900   -1.869700   -1.740800
 ---------------------------------------------------------------------

 SCF Done:  E(RwB97XD) =  -3010.53580470     A.U. after   18 cycles

 Alpha  occ. eigenvalues -- -483.31673 -62.86708 -56.66387 -56.65834 -56.65832
 Alpha  occ. eigenvalues --  -19.45819 -19.45743 -14.85322 -10.58399 -10.57511
 Alpha  occ. eigenvalues --  -10.57152 -10.56964 -10.56698 -10.52888  -9.02522
 Alpha  occ. eigenvalues --   -6.85161  -6.83348  -6.83334  -2.95075  -2.94593
 Alpha  occ. eigenvalues --   -2.94580  -2.93129  -2.93129  -1.49581  -1.32556
 Alpha  occ. eigenvalues --   -1.22633  -1.14134  -1.11730  -1.04692  -1.00986
 Alpha  occ. eigenvalues --   -0.95450  -0.90906  -0.85211  -0.80694  -0.80592
 Alpha  occ. eigenvalues --   -0.79930  -0.78229  -0.76037  -0.75863  -0.72381
 Alpha  occ. eigenvalues --   -0.69306  -0.67506  -0.63773  -0.60281  -0.57232
 Alpha  occ. eigenvalues --   -0.56792  -0.56105  -0.55612  -0.55484
 Alpha virt. eigenvalues --   -0.29673  -0.21246  -0.15823  -0.13395  -0.08754
 Alpha virt. eigenvalues --   -0.06032  -0.05989  -0.05236  -0.04176  -0.03296
 Alpha virt. eigenvalues --   -0.02797  -0.02453  -0.01778  -0.01407  -0.00641

 Mulliken charges:
               1
     1  C   -0.584730
     2  C    0.529858
     3  C   -0.720655
     4  C    0.292174
     5  C    0.016054
     6  H    0.335230
     7  H    0.366624
     8  H    0.374840
     9  H    0.352322
    10  N   -0.106562
    11  O    0.031259
    12  O    0.027922
    13  C   -0.471494
    14  H    0.417185
    15  Br   0.139975
 Sum of Mulliken charges =   1.00000

 Dipole moment (field-independent basis, Debye):
    X=             -0.7364    Y=             -0.4440    Z=              0.6373  Tot=              1.0703
 Quadrupole moment (field-independent basis, Debye-Ang):
   XX=            -71.1203   YY=            -52.1871   ZZ=            -63.3392
   XY=              1.1957   XZ=              1.4137   YZ=              1.1002

 Normal termination of Gaussian 16 at Wed May  1 15:22:38 2024.
