 Gaussian 16, Revision A.03,
 Gaussian 16:  ES64L-G16RevA.03 25-Dec-2016

 --------------------------------------------------------------------
 #p B3LYP/6-311+G** #p TD=(singlets,nstates=30)IOp(6/8=3) IOp(9/40=4)
 --------------------------------------------------------------------

 -------------------------------
 Scan Step 158, Bond Length 1.29
 -------------------------------
 Symbolic Z-matrix:
 Charge =  0 Multiplicity = 1

                         Standard orientation:
 ---------------------------------------------------------------------
 Center     Atomic      Atomic             Coordinates (Angstroms)
 Number     Number       Type             X           Y           Z
 ---------------------------------------------------------------------
      1          6           0        0.000000    0.000000   -0.571081
      2          1           0        0.000000    0.937260   -1.162431
      3          1           0       -0.000000   -0.937260   -1.162431
      4          8           0        0.000000   -0.000000    0.718919
 ---------------------------------------------------------------------

 SCF Done:  E(RB3LYP) =  -114.531585782     A.U. after    9 cycles

 Excitation energies and oscillator strengths:

 Excited State   1:      Singlet-A2     3.4524 eV  359.13 nm  f=0.0000  <S**2>=0.000
       3 -> 27         0.00219
       3 -> 38         0.00183
       3 -> 45         0.00273
       4 -> 27         0.00158
       4 -> 38        -0.00045
       4 -> 45        -0.00138
       5 ->  9         0.01921
       5 -> 13        -0.00165
       5 -> 17         0.00514
       5 -> 23         0.00053
       5 -> 29         0.00430
       5 -> 31        -0.00164
       5 -> 37         0.00298
       5 -> 44         0.00056
       5 -> 48         0.00014
       5 -> 52         0.00069
       6 -> 27        -0.00031
       6 -> 38        -0.00088
       6 -> 45         0.00176
       7 -> 12        -0.00063
       7 -> 15         0.00330
       7 -> 18        -0.00309
       7 -> 22         0.00033
       7 -> 25         0.00140
       7 -> 30        -0.00102
       7 -> 33         0.00045
       7 -> 35         0.00018
       7 -> 40         0.00017
       7 -> 42        -0.00012
       7 -> 49         0.00025
       7 -> 50         0.00032
       7 -> 53         0.00048
       8 ->  9         0.70620
       8 -> 13        -0.03343
       8 -> 17         0.02262
       8 -> 23        -0.00890
       8 -> 29         0.00993
       8 -> 31        -0.00172
       8 -> 37         0.00024
       8 -> 48        -0.00027
       8 -> 52         0.00179
       3 <- 27         0.00136
       3 <- 38         0.00149
       3 <- 45         0.00281
       4 <- 27         0.00236
       4 <- 38         0.00011
       4 <- 45        -0.00115
       5 <-  9        -0.00054
       5 <- 13        -0.00078
       5 <- 17        -0.00101
       5 <- 23         0.00050
       5 <- 29        -0.00071
       5 <- 31         0.00075
       5 <- 37         0.00147
       5 <- 44         0.00021
       5 <- 48         0.00014
       5 <- 52         0.00018
       6 <- 27         0.00029
       6 <- 38        -0.00077
       6 <- 45         0.00137
       7 <- 12        -0.00061
       7 <- 15        -0.00797
       7 <- 18         0.00097
       7 <- 22         0.00746
       7 <- 30         0.00391
       7 <- 33        -0.00121
       7 <- 35         0.00216
       7 <- 40         0.00091
       7 <- 50         0.00021
       7 <- 53         0.00135
       8 <-  9        -0.02835
       8 <- 13         0.00235
       8 <- 17        -0.00475
       8 <- 23         0.00075
       8 <- 29        -0.00127
       8 <- 31        -0.00063
       8 <- 37        -0.00119
       8 <- 52         0.00051
 This state for optimization and/or second-order correction.
 Total Energy, E(TD-HF/TD-DFT) =  -114.404713771
 Copying the excited state density for this state as the 1-particle RhoCI density.

 Excited State   2:      Singlet-B2     6.9356 eV  178.77 nm  f=0.0204  <S**2>=0.000
       3 -> 12         0.00164
       3 -> 15         0.00066
       3 -> 18         0.00127
       3 -> 22        -0.00033
       3 -> 25         0.00122
       3 -> 33         0.00024
       3 -> 35        -0.00050
       3 -> 40        -0.00019
       3 -> 49         0.00012
       4 -> 12        -0.00259
       4 -> 15         0.00202
       4 -> 18         0.00187
       4 -> 22        -0.00323
       4 -> 25         0.00312
       4 -> 30         0.00034
       4 -> 33        -0.00034
       4 -> 35         0.00046
       4 -> 40         0.00044
       4 -> 42        -0.00013
       5 -> 10        -0.00807
       5 -> 11        -0.00721
       5 -> 14         0.00707
       5 -> 16        -0.00066
       5 -> 19        -0.00227
       5 -> 20         0.00275
       5 -> 21         0.00580
       5 -> 24        -0.00054
       5 -> 26         0.00214
       5 -> 28         0.00100
       5 -> 32        -0.00105
       5 -> 34        -0.00099
       5 -> 36        -0.00018
       5 -> 39        -0.00024
       5 -> 41        -0.00047
       5 -> 43        -0.00048
       5 -> 46        -0.00022
       5 -> 54         0.00012
       6 -> 12        -0.00069
       6 -> 15         0.00143
       6 -> 18         0.00132
       6 -> 22        -0.00228
       6 -> 25         0.00098
       6 -> 30        -0.00052
       6 -> 33        -0.00027
       6 -> 35         0.00057
       6 -> 42        -0.00017
       6 -> 49         0.00044
       6 -> 50        -0.00022
       7 -> 38        -0.00066
       7 -> 45         0.00021
       8 -> 10         0.70261
       8 -> 11        -0.07376
       8 -> 14         0.01917
       8 -> 16        -0.00422
       8 -> 19         0.00225
       8 -> 20         0.01741
       8 -> 21        -0.00239
       8 -> 26         0.00290
       8 -> 28         0.00103
       8 -> 32         0.00096
       8 -> 34         0.00078
       8 -> 36         0.00031
       8 -> 39         0.00032
       8 -> 41        -0.00023
       8 -> 43         0.00059
       8 -> 46        -0.00039
       8 -> 47         0.00016
       8 -> 51        -0.00015
       8 -> 54         0.00021
       3 <- 12         0.00037
       3 <- 15         0.00052
       3 <- 18         0.00048
       3 <- 22        -0.00051
       3 <- 25         0.00067
       3 <- 30        -0.00011
       3 <- 33         0.00021
       3 <- 35        -0.00045
       3 <- 40        -0.00021
       3 <- 49         0.00018
       4 <- 12         0.00077
       4 <- 15         0.00196
       4 <- 18         0.00178
       4 <- 22        -0.00202
       4 <- 25         0.00211
       4 <- 30         0.00024
       4 <- 33        -0.00016
       4 <- 35         0.00021
       4 <- 40         0.00011
       4 <- 42        -0.00023
       4 <- 50        -0.00014
       5 <- 10         0.00227
       5 <- 11        -0.00024
       5 <- 14         0.00464
       5 <- 16        -0.00055
       5 <- 19        -0.00035
       5 <- 20         0.00077
       5 <- 21         0.00174
       5 <- 24        -0.00212
       5 <- 26         0.00143
       5 <- 28         0.00012
       5 <- 32        -0.00078
       5 <- 34        -0.00089
       5 <- 36        -0.00024
       5 <- 39        -0.00014
       5 <- 41        -0.00029
       5 <- 43        -0.00038
       5 <- 46        -0.00019
       6 <- 15        -0.00024
       6 <- 18         0.00098
       6 <- 22        -0.00048
       6 <- 25         0.00032
       6 <- 30         0.00036
       6 <- 33        -0.00032
       6 <- 35         0.00061
       6 <- 42        -0.00015
       6 <- 49         0.00036
       6 <- 50        -0.00024
       6 <- 53         0.00016
       7 <- 38        -0.00049
       7 <- 45         0.00021
       8 <- 10        -0.00146
       8 <- 11        -0.00060
       8 <- 14        -0.00439
       8 <- 16        -0.00055
       8 <- 19         0.00032
       8 <- 20        -0.00071
       8 <- 21        -0.00148
       8 <- 24         0.00184
       8 <- 26        -0.00085
       8 <- 28        -0.00043
       8 <- 32         0.00093
       8 <- 36         0.00031
       8 <- 39         0.00021
       8 <- 43         0.00037
       8 <- 46        -0.00021

 Excited State   3:      Singlet-B2     7.6794 eV  161.45 nm  f=0.0279  <S**2>=0.000
       3 -> 12        -0.00035
       3 -> 15        -0.00102
       3 -> 18         0.00115
       3 -> 22         0.00051
       3 -> 30         0.00257
       3 -> 33         0.00016
       3 -> 35        -0.00065
       3 -> 40        -0.00056
       3 -> 49         0.00063
       3 -> 50        -0.00018
       4 -> 12         0.00241
       4 -> 15         0.00046
       4 -> 18         0.00177
       4 -> 22        -0.00149
       4 -> 25         0.00276
       4 -> 30        -0.00142
       4 -> 33         0.00049
       4 -> 35        -0.00059
       4 -> 49         0.00023
       5 -> 10        -0.00535
       5 -> 11        -0.00019
       5 -> 14         0.01005
       5 -> 16        -0.00676
       5 -> 19        -0.00035
       5 -> 20        -0.00475
       5 -> 21         0.00261
       5 -> 24        -0.00077
       5 -> 26         0.00165
       5 -> 28         0.00154
       5 -> 34        -0.00081
       5 -> 36        -0.00041
       5 -> 39         0.00047
       5 -> 41        -0.00066
       5 -> 43         0.00020
       5 -> 46         0.00091
       5 -> 51        -0.00043
       6 -> 12        -0.00279
       6 -> 15        -0.00138
       6 -> 18        -0.00073
       6 -> 22         0.00108
       6 -> 25         0.00017
       6 -> 30         0.00119
       6 -> 33        -0.00055
       6 -> 35         0.00149
       6 -> 40         0.00115
       6 -> 49        -0.00131
       6 -> 50         0.00028
       6 -> 53         0.00012
       7 -> 27         0.00026
       7 -> 38        -0.00081
       7 -> 45        -0.00206
       8 -> 10         0.07380
       8 -> 11         0.70213
       8 -> 14        -0.00061
       8 -> 16         0.00857
       8 -> 19        -0.03608
       8 -> 20        -0.00180
       8 -> 21        -0.00274
       8 -> 24         0.00054
       8 -> 26        -0.00054
       8 -> 28         0.00229
       8 -> 32         0.00011
       8 -> 34        -0.00021
       8 -> 36        -0.00026
       8 -> 39        -0.00026
       8 -> 41        -0.00108
       8 -> 43         0.00039
       8 -> 46         0.00244
       8 -> 51        -0.00112
       3 <- 12         0.00034
       3 <- 15        -0.00032
       3 <- 18         0.00103
       3 <- 25         0.00020
       3 <- 30         0.00137
       3 <- 33         0.00027
       3 <- 35        -0.00067
       3 <- 40        -0.00051
       3 <- 49         0.00057
       3 <- 50        -0.00012
       3 <- 53        -0.00034
       4 <- 12         0.00029
       4 <- 15         0.00087
       4 <- 18         0.00037
       4 <- 22        -0.00117
       4 <- 25         0.00118
       4 <- 30        -0.00076
       4 <- 33         0.00046
       4 <- 35        -0.00031
       4 <- 49         0.00017
       5 <- 10         0.00117
       5 <- 11        -0.00139
       5 <- 14         0.00275
       5 <- 16        -0.00043
       5 <- 19         0.00152
       5 <- 20        -0.00037
       5 <- 21         0.00083
       5 <- 24        -0.00142
       5 <- 26         0.00014
       5 <- 28         0.00064
       5 <- 32        -0.00085
       5 <- 34         0.00010
       5 <- 36         0.00012
       5 <- 39         0.00011
       5 <- 41        -0.00070
       5 <- 43         0.00011
       5 <- 46         0.00088
       5 <- 47        -0.00011
       5 <- 51        -0.00030
       6 <- 12        -0.00027
       6 <- 15        -0.00112
       6 <- 18         0.00039
       6 <- 22         0.00096
       6 <- 25        -0.00015
       6 <- 30         0.00120
       6 <- 33        -0.00048
       6 <- 35         0.00131
       6 <- 40         0.00092
       6 <- 49        -0.00107
       6 <- 50         0.00021
       7 <- 27         0.00038
       7 <- 38        -0.00064
       7 <- 45        -0.00172
       8 <- 10        -0.00086
       8 <- 11        -0.00200
       8 <- 14        -0.00363
       8 <- 16         0.00040
       8 <- 19         0.00547
       8 <- 20         0.00035
       8 <- 21        -0.00193
       8 <- 24        -0.00048
       8 <- 26        -0.00165
       8 <- 28         0.00064
       8 <- 32        -0.00131
       8 <- 34         0.00166
       8 <- 39        -0.00074
       8 <- 41        -0.00101
       8 <- 43         0.00018
       8 <- 46         0.00196
       8 <- 47        -0.00030
       8 <- 51        -0.00074

 Excited State   4:      Singlet-A1     7.9516 eV  155.92 nm  f=0.0347  <S**2>=0.000
       3 -> 10         0.00236
       3 -> 14         0.00154
       3 -> 19        -0.00290
       3 -> 20         0.00221
       3 -> 21         0.00123
       3 -> 24         0.00101
       3 -> 26         0.00155
       3 -> 28         0.00085
       3 -> 32         0.00025
       3 -> 34        -0.00098
       3 -> 36        -0.00019
       3 -> 39         0.00012
       3 -> 41        -0.00018
       3 -> 46         0.00025
       3 -> 47        -0.00028
       3 -> 51        -0.00013
       3 -> 54        -0.00015
       4 -> 10         0.00551
       4 -> 11         0.00359
       4 -> 14         0.00474
       4 -> 16         0.00074
       4 -> 19         0.00053
       4 -> 20         0.00304
       4 -> 21        -0.00075
       4 -> 24        -0.00686
       4 -> 26         0.00244
       4 -> 28        -0.00023
       4 -> 32        -0.00064
       4 -> 34         0.00038
       4 -> 36         0.00012
       4 -> 43         0.00016
       4 -> 46        -0.00021
       4 -> 51        -0.00012
       5 -> 12         0.00608
       5 -> 15         0.00453
       5 -> 18         0.00872
       5 -> 22        -0.00271
       5 -> 25         0.00582
       5 -> 30        -0.00047
       5 -> 33        -0.00030
       5 -> 35         0.00075
       5 -> 40         0.00012
       5 -> 50         0.00013
       5 -> 53        -0.00012
       6 -> 10         0.00926
       6 -> 11        -0.00345
       6 -> 14         0.00345
       6 -> 16        -0.00149
       6 -> 19         0.00408
       6 -> 21        -0.00261
       6 -> 24        -0.00560
       6 -> 26        -0.00096
       6 -> 28        -0.00270
       6 -> 32        -0.00021
       6 -> 34        -0.00026
       6 -> 39         0.00024
       6 -> 43         0.00017
       6 -> 47         0.00075
       6 -> 51         0.00021
       6 -> 54        -0.00013
       7 ->  9         0.05282
       7 -> 13         0.01344
       7 -> 17        -0.00080
       7 -> 23         0.00528
       7 -> 29        -0.00113
       7 -> 31        -0.00104
       7 -> 37         0.00058
       7 -> 44         0.00057
       7 -> 48        -0.00029
       8 -> 12         0.70410
       8 -> 15         0.00821
       8 -> 18         0.02829
       8 -> 22         0.00050
       8 -> 25         0.00516
       8 -> 30        -0.00151
       8 -> 33         0.00189
       8 -> 35        -0.00220
       8 -> 40         0.00023
       8 -> 49        -0.00046
       8 -> 50         0.00024
       8 -> 53        -0.00029
       3 <- 10         0.00074
       3 <- 11         0.00067
       3 <- 14         0.00081
       3 <- 16         0.00016
       3 <- 19        -0.00171
       3 <- 20         0.00096
       3 <- 21         0.00085
       3 <- 24         0.00035
       3 <- 26         0.00107
       3 <- 28         0.00057
       3 <- 32         0.00035
       3 <- 34        -0.00067
       3 <- 36        -0.00012
       3 <- 46         0.00033
       3 <- 47        -0.00020
       3 <- 51        -0.00011
       3 <- 54        -0.00014
       4 <- 10         0.00410
       4 <- 11         0.00055
       4 <- 14         0.00333
       4 <- 19         0.00017
       4 <- 20         0.00174
       4 <- 21        -0.00057
       4 <- 24        -0.00369
       4 <- 26         0.00148
       4 <- 32        -0.00085
       4 <- 41        -0.00014
       4 <- 43         0.00013
       4 <- 46        -0.00014
       4 <- 51        -0.00010
       5 <- 12         0.00291
       5 <- 15         0.00336
       5 <- 18         0.00315
       5 <- 22        -0.00106
       5 <- 25         0.00317
       5 <- 30        -0.00024
       5 <- 33        -0.00041
       5 <- 35         0.00067
       5 <- 53        -0.00011
       6 <- 10         0.00219
       6 <- 11        -0.00024
       6 <- 14         0.00134
       6 <- 16        -0.00053
       6 <- 19         0.00123
       6 <- 21        -0.00140
       6 <- 24        -0.00271
       6 <- 26        -0.00038
       6 <- 28        -0.00175
       6 <- 32        -0.00030
       6 <- 34        -0.00026
       6 <- 39         0.00012
       6 <- 46        -0.00017
       6 <- 47         0.00062
       6 <- 51         0.00023
       6 <- 54        -0.00011
       7 <-  9        -0.00508
       7 <- 13         0.00282
       7 <- 17        -0.00086
       7 <- 23         0.00275
       7 <- 29        -0.00093
       7 <- 31        -0.00065
       7 <- 37         0.00043
       7 <- 44         0.00050
       7 <- 48        -0.00027
       8 <- 12        -0.00025
       8 <- 15        -0.00258
       8 <- 18        -0.00172
       8 <- 22        -0.00052
       8 <- 25        -0.00113
       8 <- 30        -0.00152
       8 <- 33         0.00073
       8 <- 35        -0.00084
       8 <- 40         0.00034
       8 <- 49        -0.00045
       8 <- 50         0.00015
       8 <- 53        -0.00028

 Excited State   5:      Singlet-B1     8.1242 eV  152.61 nm  f=0.0013  <S**2>=0.000
       3 ->  9        -0.03349
       3 -> 13         0.00470
       3 -> 17        -0.00689
       3 -> 23         0.00382
       3 -> 29        -0.00244
       3 -> 31        -0.00030
       3 -> 44         0.00062
       3 -> 48         0.00022
       3 -> 52         0.00113
       4 ->  9         0.01677
       4 -> 13        -0.00275
       4 -> 17         0.00095
       4 -> 23        -0.00249
       4 -> 31        -0.00242
       4 -> 37        -0.00042
       4 -> 48        -0.00160
       4 -> 52        -0.00096
       5 -> 27        -0.00167
       5 -> 38         0.00209
       5 -> 45         0.00272
       6 ->  9         0.70516
       6 -> 13        -0.03338
       6 -> 17         0.02235
       6 -> 23        -0.01238
       6 -> 29         0.00768
       6 -> 31         0.00377
       6 -> 37        -0.00262
       6 -> 44        -0.00352
       6 -> 48         0.00549
       6 -> 52         0.00194
       7 -> 10         0.00261
       7 -> 11         0.00735
       7 -> 14         0.00020
       7 -> 16        -0.01237
       7 -> 19        -0.00337
       7 -> 20         0.00244
       7 -> 21         0.00359
       7 -> 24         0.00258
       7 -> 26         0.00206
       7 -> 28        -0.00471
       7 -> 32        -0.00129
       7 -> 36        -0.00156
       7 -> 39         0.00029
       7 -> 41        -0.00205
       7 -> 43         0.00101
       7 -> 46         0.00492
       7 -> 47         0.00234
       7 -> 51         0.00110
       7 -> 54         0.00055
       8 -> 27         0.00281
       8 -> 38         0.00095
       8 -> 45         0.00681
       3 <-  9        -0.01045
       3 <- 13         0.00070
       3 <- 17        -0.00337
       3 <- 23         0.00045
       3 <- 29        -0.00147
       3 <- 31        -0.00019
       3 <- 37        -0.00015
       3 <- 44        -0.00012
       3 <- 48         0.00050
       3 <- 52         0.00091
       4 <-  9         0.00545
       4 <- 17         0.00249
       4 <- 23        -0.00031
       4 <- 29         0.00224
       4 <- 31        -0.00234
       4 <- 37         0.00018
       4 <- 44         0.00020
       4 <- 48        -0.00138
       4 <- 52        -0.00052
       5 <- 27        -0.00170
       5 <- 38         0.00158
       5 <- 45         0.00239
       6 <-  9        -0.02139
       6 <- 13         0.00309

 The electronic state is 1-A1.
 Alpha  occ. eigenvalues --  -19.15669 -10.29252  -1.03256  -0.65863  -0.49666
 Alpha  occ. eigenvalues --   -0.45341  -0.38886  -0.28663
 Alpha virt. eigenvalues --   -0.08652   0.00507   0.03680   0.04212   0.06325
 Alpha virt. eigenvalues --    0.12506   0.16890   0.18753   0.21897   0.23482
 Alpha virt. eigenvalues --    0.25213   0.31061   0.43200   0.44980   0.50923

 Mulliken charges:
               1
     1  C   -0.000859
     2  H    0.132850
     3  H    0.132850
     4  O   -0.264841
 Sum of Mulliken charges =  -0.00000

 Dipole moment (field-independent basis, Debye):
    X=             -0.0000    Y=              0.0000    Z=             -2.8570  Tot=              2.8570
 Quadrupole moment (field-independent basis, Debye-Ang):
   XX=            -12.0073   YY=            -11.7315   ZZ=            -12.2042
   XY=              0.0000   XZ=              0.0000   YZ=             -0.0000

 Normal termination of Gaussian 16 at Fri Sep 17 10:52:47 2021.
