 Gaussian 16, Revision C.01,
 Gaussian 16:  ES64L-G16RevC.01  3-Jul-2019

 ----------------------------------------
 #P wB97XD/6-311+G* NoSymm #P Field=X-194
 ----------------------------------------

 -------
 TitleMe
 -------
 Symbolic Z-matrix:
 Charge =  1 Multiplicity = 1

                          Input orientation:
 ---------------------------------------------------------------------
 Center     Atomic      Atomic             Coordinates (Angstroms)
 Number     Number       Type             X           Y           Z
 ---------------------------------------------------------------------
      1          6           0        0.029500    1.339700    0.068200
      2          6           0        1.434800    1.286700    0.006400
      3          6           0        2.111800    0.051100   -0.005400
      4          6           0        1.445100   -1.137200    0.031200
      5          6           0       -0.687900    0.168200    0.110000
      6          1           0       -0.471300    2.298400    0.078100
      7          1           0        2.027300    2.196500   -0.032200
      8          1           0        1.989700   -2.076400    0.023200
      9          1           0       -1.771600    0.180400    0.158200
     10          7           0        3.586400    0.051000   -0.067500
     11          8           0        4.147100   -1.059700   -0.088100
     12          8           0        4.145000    1.163900   -0.090100
     13          6           0       -0.023600   -1.145800    0.083500
     14          1           0       -0.436700   -1.872500    0.788900
     15         35           0       -0.535900   -1.869700   -1.740800
 ---------------------------------------------------------------------

 SCF Done:  E(RwB97XD) =  -3010.55135992     A.U. after   27 cycles

 Alpha  occ. eigenvalues -- -483.30030 -62.85080 -56.64734 -56.64218 -56.64213
 Alpha  occ. eigenvalues --  -19.36188 -19.36124 -14.75747 -10.56650 -10.54582
 Alpha  occ. eigenvalues --  -10.53818 -10.52906 -10.52256 -10.51130  -9.00904
 Alpha  occ. eigenvalues --   -6.83474  -6.81773  -6.81753  -2.93404  -2.92951
 Alpha  occ. eigenvalues --   -2.92934  -2.91573  -2.91573  -1.39873  -1.22740
 Alpha  occ. eigenvalues --   -1.19578  -1.10920  -1.08479  -1.02425  -0.95791
 Alpha  occ. eigenvalues --   -0.92429  -0.86996  -0.81337  -0.77108  -0.75976
 Alpha  occ. eigenvalues --   -0.73526  -0.72695  -0.71050  -0.69063  -0.66615
 Alpha  occ. eigenvalues --   -0.66308  -0.63824  -0.60740  -0.57696  -0.55654
 Alpha  occ. eigenvalues --   -0.53136  -0.46968  -0.45475  -0.45418
 Alpha virt. eigenvalues --   -0.27021  -0.15675  -0.14896  -0.13413  -0.10339
 Alpha virt. eigenvalues --   -0.08596  -0.07875  -0.06874  -0.03751  -0.03232
 Alpha virt. eigenvalues --   -0.02287  -0.01029  -0.00324   0.00074   0.00970

 Mulliken charges:
               1
     1  C   -0.517711
     2  C    0.410863
     3  C   -0.624904
     4  C    0.329067
     5  C   -0.035579
     6  H    0.292787
     7  H    0.398985
     8  H    0.401433
     9  H    0.257463
    10  N   -0.120764
    11  O    0.125509
    12  O    0.123430
    13  C   -0.484995
    14  H    0.372273
    15  Br   0.072142
 Sum of Mulliken charges =   1.00000

 Dipole moment (field-independent basis, Debye):
    X=              5.1380    Y=              0.0610    Z=              0.4468  Tot=              5.1577
 Quadrupole moment (field-independent basis, Debye-Ang):
   XX=            -57.5042   YY=            -52.7562   ZZ=            -64.1827
   XY=              0.2428   XZ=             -0.4355   YZ=              0.3209

 Normal termination of Gaussian 16 at Wed May  1 14:55:16 2024.
