 Gaussian 16, Revision C.01,
 Gaussian 16:  ES64L-G16RevC.01  3-Jul-2019

 ----------------------------------------
 #P wB97XD/6-311+G* NoSymm #P Field=Z-233
 ----------------------------------------

 -------
 TitleMe
 -------
 Symbolic Z-matrix:
 Charge =  1 Multiplicity = 1

                          Input orientation:
 ---------------------------------------------------------------------
 Center     Atomic      Atomic             Coordinates (Angstroms)
 Number     Number       Type             X           Y           Z
 ---------------------------------------------------------------------
      1          6           0        0.519300    1.233000   -0.031900
      2          6           0        1.944500    1.269200   -0.036700
      3          6           0        2.620400    0.092800   -0.025000
      4          6           0       -0.196000    0.030100    0.001000
      5          1           0       -0.020700    2.174200   -0.043400
      6          1           0        2.482800    2.208900   -0.036100
      7          1           0       -1.277700    0.039900    0.011700
      8          7           0        4.092100    0.095900    0.036600
      9          8           0        4.639300   -1.021700    0.144600
     10          8           0        4.664900    1.198400   -0.023300
     11          6           0        0.494300   -1.167100    0.021000
     12          1           0       -0.032500   -2.114900    0.054500
     13          6           0        1.962900   -1.216500   -0.021100
     14          1           0        2.443600   -1.963100    0.615100
     15         35           0        2.173000   -1.949100   -1.906200
 ---------------------------------------------------------------------

 SCF Done:  E(RwB97XD) =  -3010.54419200     A.U. after   21 cycles

 Alpha  occ. eigenvalues -- -483.35290 -62.90360 -56.69985 -56.69509 -56.69505
 Alpha  occ. eigenvalues --  -19.46927 -19.46856 -14.86369 -10.60622 -10.60380
 Alpha  occ. eigenvalues --  -10.58763 -10.58655 -10.54770 -10.54063  -9.06198
 Alpha  occ. eigenvalues --   -6.88693  -6.87105  -6.87097  -2.98640  -2.98214
 Alpha  occ. eigenvalues --   -2.98206  -2.96934  -2.96934  -1.50577  -1.33520
 Alpha  occ. eigenvalues --   -1.24130  -1.15160  -1.13863  -1.07662  -1.01852
 Alpha  occ. eigenvalues --   -0.96897  -0.91944  -0.85940  -0.82028  -0.81350
 Alpha  occ. eigenvalues --   -0.80968  -0.79186  -0.77163  -0.76834  -0.74229
 Alpha  occ. eigenvalues --   -0.70002  -0.69001  -0.65588  -0.62908  -0.61007
 Alpha  occ. eigenvalues --   -0.58345  -0.57918  -0.56670  -0.56391
 Alpha virt. eigenvalues --   -0.32146  -0.21727  -0.20560  -0.17824  -0.14814
 Alpha virt. eigenvalues --   -0.14104  -0.12819  -0.10105  -0.08730  -0.07968
 Alpha virt. eigenvalues --   -0.05820  -0.05571  -0.03432  -0.02859  -0.02184

 Mulliken charges:
               1
     1  C   -0.050461
     2  C    0.081772
     3  C   -0.100382
     4  C   -0.366248
     5  H    0.353548
     6  H    0.358835
     7  H    0.342018
     8  N   -0.197633
     9  O    0.092979
    10  O    0.076937
    11  C   -0.132401
    12  H    0.367488
    13  C   -0.262418
    14  H    0.486035
    15  Br  -0.050071
 Sum of Mulliken charges =   1.00000

 Dipole moment (field-independent basis, Debye):
    X=              2.4787    Y=             -0.0002    Z=              3.4436  Tot=              4.2429
 Quadrupole moment (field-independent basis, Debye-Ang):
   XX=            -67.7693   YY=            -52.6497   ZZ=            -68.0685
   XY=             -1.1800   XZ=              6.0746   YZ=             -1.6507

 Normal termination of Gaussian 16 at Thu May  2 14:21:21 2024.
