 Gaussian 16, Revision C.01,
 Gaussian 16:  ES64L-G16RevC.01  3-Jul-2019

 ----------------------------------------
 #P wB97XD/6-311+G* NoSymm #P Field=Y-107
 ----------------------------------------

 -------
 TitleMe
 -------
 Symbolic Z-matrix:
 Charge =  1 Multiplicity = 1

                          Input orientation:
 ---------------------------------------------------------------------
 Center     Atomic      Atomic             Coordinates (Angstroms)
 Number     Number       Type             X           Y           Z
 ---------------------------------------------------------------------
      1          6           0        0.029500    1.339700    0.068200
      2          6           0        1.434800    1.286700    0.006400
      3          6           0        2.111800    0.051100   -0.005400
      4          6           0        1.445100   -1.137200    0.031200
      5          6           0       -0.687900    0.168200    0.110000
      6          1           0       -0.471300    2.298400    0.078100
      7          1           0        2.027300    2.196500   -0.032200
      8          1           0        1.989700   -2.076400    0.023200
      9          1           0       -1.771600    0.180400    0.158200
     10          7           0        3.586400    0.051000   -0.067500
     11          8           0        4.147100   -1.059700   -0.088100
     12          8           0        4.145000    1.163900   -0.090100
     13          6           0       -0.023600   -1.145800    0.083500
     14          1           0       -0.436700   -1.872500    0.788900
     15         35           0       -0.535900   -1.869700   -1.740800
 ---------------------------------------------------------------------

 SCF Done:  E(RwB97XD) =  -3010.53934361     A.U. after   18 cycles

 Alpha  occ. eigenvalues -- -483.32841 -62.87886 -56.67552 -56.67017 -56.67016
 Alpha  occ. eigenvalues --  -19.46115 -19.45843 -14.85477 -10.59613 -10.57573
 Alpha  occ. eigenvalues --  -10.57497 -10.57239 -10.56630 -10.52331  -9.03707
 Alpha  occ. eigenvalues --   -6.86310  -6.84552  -6.84543  -2.96233  -2.95763
 Alpha  occ. eigenvalues --   -2.95754  -2.94348  -2.94348  -1.49753  -1.32723
 Alpha  occ. eigenvalues --   -1.23017  -1.14736  -1.11752  -1.05589  -1.01138
 Alpha  occ. eigenvalues --   -0.95808  -0.91118  -0.85374  -0.80934  -0.80737
 Alpha  occ. eigenvalues --   -0.80139  -0.78788  -0.76192  -0.75889  -0.72868
 Alpha  occ. eigenvalues --   -0.69358  -0.67410  -0.63935  -0.60963  -0.58420
 Alpha  occ. eigenvalues --   -0.57204  -0.56406  -0.56170  -0.55646
 Alpha virt. eigenvalues --   -0.30076  -0.21492  -0.16609  -0.13820  -0.11959
 Alpha virt. eigenvalues --   -0.08292  -0.08010  -0.06425  -0.05233  -0.04190
 Alpha virt. eigenvalues --   -0.03646  -0.03333  -0.02388  -0.02047  -0.01538

 Mulliken charges:
               1
     1  C   -0.554878
     2  C    0.467869
     3  C   -0.663784
     4  C    0.265148
     5  C    0.033420
     6  H    0.376841
     7  H    0.404012
     8  H    0.337043
     9  H    0.354056
    10  N   -0.108878
    11  O   -0.022761
    12  O    0.089827
    13  C   -0.458591
    14  H    0.376360
    15  Br   0.104317
 Sum of Mulliken charges =   1.00000

 Dipole moment (field-independent basis, Debye):
    X=             -0.4539    Y=              2.4876    Z=              0.3761  Tot=              2.5565
 Quadrupole moment (field-independent basis, Debye-Ang):
   XX=            -70.6349   YY=            -53.5163   ZZ=            -63.5355
   XY=              4.7386   XZ=              0.7680   YZ=              0.2539

 Normal termination of Gaussian 16 at Wed May  1 15:04:36 2024.
