 Gaussian 16, Revision C.01,
 Gaussian 16:  ES64L-G16RevC.01  3-Jul-2019

 ----------------------------------------
 #P wB97XD/6-311+G* NoSymm #P Field=X-204
 ----------------------------------------

 -------
 TitleMe
 -------
 Symbolic Z-matrix:
 Charge =  1 Multiplicity = 1

                          Input orientation:
 ---------------------------------------------------------------------
 Center     Atomic      Atomic             Coordinates (Angstroms)
 Number     Number       Type             X           Y           Z
 ---------------------------------------------------------------------
      1          6           0        0.029500    1.339700    0.068200
      2          6           0        1.434800    1.286700    0.006400
      3          6           0        2.111800    0.051100   -0.005400
      4          6           0        1.445100   -1.137200    0.031200
      5          6           0       -0.687900    0.168200    0.110000
      6          1           0       -0.471300    2.298400    0.078100
      7          1           0        2.027300    2.196500   -0.032200
      8          1           0        1.989700   -2.076400    0.023200
      9          1           0       -1.771600    0.180400    0.158200
     10          7           0        3.586400    0.051000   -0.067500
     11          8           0        4.147100   -1.059700   -0.088100
     12          8           0        4.145000    1.163900   -0.090100
     13          6           0       -0.023600   -1.145800    0.083500
     14          1           0       -0.436700   -1.872500    0.788900
     15         35           0       -0.535900   -1.869700   -1.740800
 ---------------------------------------------------------------------

 SCF Done:  E(RwB97XD) =  -3010.55344874     A.U. after   28 cycles

 Alpha  occ. eigenvalues -- -483.29972 -62.85023 -56.64675 -56.64162 -56.64156
 Alpha  occ. eigenvalues --  -19.35771 -19.35709 -14.75306 -10.56570 -10.54470
 Alpha  occ. eigenvalues --  -10.53611 -10.52695 -10.52016 -10.51048  -9.00848
 Alpha  occ. eigenvalues --   -6.83411  -6.81720  -6.81699  -2.93342  -2.92893
 Alpha  occ. eigenvalues --   -2.92875  -2.91521  -2.91521  -1.39434  -1.22300
 Alpha  occ. eigenvalues --   -1.19436  -1.10784  -1.08308  -1.02329  -0.95558
 Alpha  occ. eigenvalues --   -0.92275  -0.86799  -0.81190  -0.76944  -0.75837
 Alpha  occ. eigenvalues --   -0.73391  -0.72334  -0.70763  -0.68817  -0.66302
 Alpha  occ. eigenvalues --   -0.66070  -0.63548  -0.60610  -0.57582  -0.55613
 Alpha  occ. eigenvalues --   -0.52999  -0.46509  -0.44984  -0.44957
 Alpha virt. eigenvalues --   -0.26894  -0.15607  -0.15100  -0.13457  -0.10699
 Alpha virt. eigenvalues --   -0.08850  -0.07805  -0.06911  -0.03844  -0.03357
 Alpha virt. eigenvalues --   -0.02390  -0.01100  -0.00300   0.00126   0.01017

 Mulliken charges:
               1
     1  C   -0.514215
     2  C    0.402905
     3  C   -0.618019
     4  C    0.328227
     5  C   -0.036469
     6  H    0.290581
     7  H    0.400475
     8  H    0.402735
     9  H    0.252271
    10  N   -0.122091
    11  O    0.131580
    12  O    0.129577
    13  C   -0.484660
    14  H    0.370578
    15  Br   0.066526
 Sum of Mulliken charges =   1.00000

 Dipole moment (field-independent basis, Debye):
    X=              5.4820    Y=              0.0963    Z=              0.4724  Tot=              5.5032
 Quadrupole moment (field-independent basis, Debye-Ang):
   XX=            -56.6766   YY=            -52.8137   ZZ=            -64.2817
   XY=              0.1767   XZ=             -0.5252   YZ=              0.2452

 Normal termination of Gaussian 16 at Wed May  1 14:56:08 2024.
