 Gaussian 16, Revision C.01,
 Gaussian 16:  ES64L-G16RevC.01  3-Jul-2019

 ----------------------------------------
 #P wB97XD/6-311+G* NoSymm #P Field=Y-155
 ----------------------------------------

 -------
 TitleMe
 -------
 Symbolic Z-matrix:
 Charge =  1 Multiplicity = 1

                          Input orientation:
 ---------------------------------------------------------------------
 Center     Atomic      Atomic             Coordinates (Angstroms)
 Number     Number       Type             X           Y           Z
 ---------------------------------------------------------------------
      1          6           0        0.029500    1.339700    0.068200
      2          6           0        1.434800    1.286700    0.006400
      3          6           0        2.111800    0.051100   -0.005400
      4          6           0        1.445100   -1.137200    0.031200
      5          6           0       -0.687900    0.168200    0.110000
      6          1           0       -0.471300    2.298400    0.078100
      7          1           0        2.027300    2.196500   -0.032200
      8          1           0        1.989700   -2.076400    0.023200
      9          1           0       -1.771600    0.180400    0.158200
     10          7           0        3.586400    0.051000   -0.067500
     11          8           0        4.147100   -1.059700   -0.088100
     12          8           0        4.145000    1.163900   -0.090100
     13          6           0       -0.023600   -1.145800    0.083500
     14          1           0       -0.436700   -1.872500    0.788900
     15         35           0       -0.535900   -1.869700   -1.740800
 ---------------------------------------------------------------------

 SCF Done:  E(RwB97XD) =  -3010.54534667     A.U. after   21 cycles

 Alpha  occ. eigenvalues -- -483.33693 -62.88745 -56.68399 -56.67881 -56.67879
 Alpha  occ. eigenvalues --  -19.46372 -19.46004 -14.85643 -10.60327 -10.57900
 Alpha  occ. eigenvalues --  -10.57828 -10.57239 -10.56683 -10.52178  -9.04572
 Alpha  occ. eigenvalues --   -6.87142  -6.85434  -6.85426  -2.97072  -2.96615
 Alpha  occ. eigenvalues --   -2.96607  -2.95240  -2.95239  -1.49937  -1.32905
 Alpha  occ. eigenvalues --   -1.23339  -1.15186  -1.11874  -1.06240  -1.01317
 Alpha  occ. eigenvalues --   -0.96096  -0.91327  -0.85585  -0.81185  -0.80910
 Alpha  occ. eigenvalues --   -0.80342  -0.79154  -0.76356  -0.75976  -0.73312
 Alpha  occ. eigenvalues --   -0.69431  -0.67396  -0.64173  -0.61560  -0.59383
 Alpha  occ. eigenvalues --   -0.57450  -0.56850  -0.56383  -0.55777
 Alpha virt. eigenvalues --   -0.30420  -0.21689  -0.17348  -0.15152  -0.13405
 Alpha virt. eigenvalues --   -0.10502  -0.10400  -0.07503  -0.06258  -0.05683
 Alpha virt. eigenvalues --   -0.04751  -0.04320  -0.02778  -0.02567  -0.01461

 Mulliken charges:
               1
     1  C   -0.543092
     2  C    0.448573
     3  C   -0.643656
     4  C    0.264771
     5  C    0.043858
     6  H    0.395042
     7  H    0.420024
     8  H    0.319843
     9  H    0.355650
    10  N   -0.109415
    11  O   -0.046417
    12  O    0.117907
    13  C   -0.459994
    14  H    0.363887
    15  Br   0.073018
 Sum of Mulliken charges =   1.00000

 Dipole moment (field-independent basis, Debye):
    X=             -0.2755    Y=              3.8709    Z=              0.5496  Tot=              3.9195
 Quadrupole moment (field-independent basis, Debye-Ang):
   XX=            -70.3373   YY=            -54.3184   ZZ=            -63.9641
   XY=              6.2844   XZ=              0.6157   YZ=             -0.3829

 Normal termination of Gaussian 16 at Wed May  1 15:06:41 2024.
