 Gaussian 16, Revision C.01,
 Gaussian 16:  ES64L-G16RevC.01  3-Jul-2019

 ---------------------------------------
 #P wB97XD/6-311+G* NoSymm #P Field=Y-87
 ---------------------------------------

 -------
 TitleMe
 -------
 Symbolic Z-matrix:
 Charge =  1 Multiplicity = 1

                          Input orientation:
 ---------------------------------------------------------------------
 Center     Atomic      Atomic             Coordinates (Angstroms)
 Number     Number       Type             X           Y           Z
 ---------------------------------------------------------------------
      1          6           0        0.519300    1.233000   -0.031900
      2          6           0        1.944500    1.269200   -0.036700
      3          6           0        2.620400    0.092800   -0.025000
      4          6           0       -0.196000    0.030100    0.001000
      5          1           0       -0.020700    2.174200   -0.043400
      6          1           0        2.482800    2.208900   -0.036100
      7          1           0       -1.277700    0.039900    0.011700
      8          7           0        4.092100    0.095900    0.036600
      9          8           0        4.639300   -1.021700    0.144600
     10          8           0        4.664900    1.198400   -0.023300
     11          6           0        0.494300   -1.167100    0.021000
     12          1           0       -0.032500   -2.114900    0.054500
     13          6           0        1.962900   -1.216500   -0.021100
     14          1           0        2.443600   -1.963100    0.615100
     15         35           0        2.173000   -1.949100   -1.906200
 ---------------------------------------------------------------------

 SCF Done:  E(RwB97XD) =  -3010.53317414     A.U. after   19 cycles

 Alpha  occ. eigenvalues -- -483.32408 -62.87445 -56.67121 -56.66573 -56.66568
 Alpha  occ. eigenvalues --  -19.46361 -19.46197 -14.85704 -10.59371 -10.59173
 Alpha  occ. eigenvalues --  -10.57875 -10.57028 -10.53176 -10.53083  -9.03262
 Alpha  occ. eigenvalues --   -6.85893  -6.84093  -6.84078  -2.95809  -2.95330
 Alpha  occ. eigenvalues --   -2.95317  -2.93876  -2.93876  -1.49964  -1.32921
 Alpha  occ. eigenvalues --   -1.22884  -1.13330  -1.12826  -1.05554  -1.00711
 Alpha  occ. eigenvalues --   -0.95735  -0.90843  -0.85203  -0.81090  -0.80489
 Alpha  occ. eigenvalues --   -0.80157  -0.78271  -0.76259  -0.75913  -0.72504
 Alpha  occ. eigenvalues --   -0.68834  -0.67689  -0.63718  -0.60573  -0.57883
 Alpha  occ. eigenvalues --   -0.57503  -0.56878  -0.55945  -0.55276
 Alpha virt. eigenvalues --   -0.30582  -0.20473  -0.16633  -0.13388  -0.11198
 Alpha virt. eigenvalues --   -0.07732  -0.07073  -0.06154  -0.04522  -0.03510
 Alpha virt. eigenvalues --   -0.03293  -0.02779  -0.02427  -0.01943  -0.01143

 Mulliken charges:
               1
     1  C   -0.114655
     2  C    0.193243
     3  C   -0.060164
     4  C   -0.311284
     5  H    0.380657
     6  H    0.382413
     7  H    0.333215
     8  N   -0.236862
     9  O    0.040710
    10  O    0.120053
    11  C   -0.208901
    12  H    0.324481
    13  C   -0.352073
    14  H    0.389934
    15  Br   0.119233
 Sum of Mulliken charges =   1.00000

 Dipole moment (field-independent basis, Debye):
    X=              2.6525    Y=              1.6480    Z=             -0.4069  Tot=              3.1492
 Quadrupole moment (field-independent basis, Debye-Ang):
   XX=            -67.9828   YY=            -52.5574   ZZ=            -63.1154
   XY=              2.3510   XZ=             -1.8111   YZ=              1.1091

 Normal termination of Gaussian 16 at Thu May  2 14:18:43 2024.
