 Gaussian 16, Revision A.03,
 Gaussian 16:  ES64L-G16RevA.03 25-Dec-2016

 --------------------------------------------------------------------
 #p B3LYP/6-311+G** #p TD=(singlets,nstates=30)IOp(6/8=3) IOp(9/40=4)
 --------------------------------------------------------------------

 -------------------------------
 Scan Step 250, Bond Length 1.75
 -------------------------------
 Symbolic Z-matrix:
 Charge =  0 Multiplicity = 1

                         Standard orientation:
 ---------------------------------------------------------------------
 Center     Atomic      Atomic             Coordinates (Angstroms)
 Number     Number       Type             X           Y           Z
 ---------------------------------------------------------------------
      1          6           0        0.000000    0.000000   -0.801081
      2          1           0        0.000000    0.937260   -1.392431
      3          1           0       -0.000000   -0.937260   -1.392431
      4          8           0        0.000000   -0.000000    0.948919
 ---------------------------------------------------------------------

 SCF Done:  E(RB3LYP) =  -114.373523953     A.U. after   11 cycles

 Excitation energies and oscillator strengths:

 Excited State   1:      Singlet-A2     1.4984 eV  827.45 nm  f=0.0000  <S**2>=0.000
       3 -> 27         0.00085
       3 -> 38         0.00057
       3 -> 46         0.00336
       4 -> 27         0.00048
       4 -> 46        -0.00109
       5 ->  9         0.00334
       5 -> 13         0.00111
       5 -> 18         0.00206
       5 -> 23         0.00149
       5 -> 28         0.00167
       5 -> 37         0.00092
       5 -> 44         0.00025
       5 -> 52         0.00022
       6 -> 27        -0.00060
       6 -> 38        -0.00064
       6 -> 46         0.00108
       7 -> 12        -0.00114
       7 -> 16         0.00515
       7 -> 19        -0.00446
       7 -> 22        -0.00104
       7 -> 25        -0.00069
       7 -> 29        -0.00179
       7 -> 33         0.00030
       7 -> 49         0.00013
       7 -> 51         0.00011
       7 -> 53         0.00041
       8 ->  9         0.70992
       8 -> 13        -0.00865
       8 -> 18         0.02114
       8 -> 23        -0.00167
       8 -> 28         0.01063
       8 -> 31         0.00152
       8 -> 37         0.00054
       8 -> 48        -0.00031
       8 -> 52         0.00190
       3 <- 27         0.00030
       3 <- 38         0.00033
       3 <- 46         0.00339
       4 <- 27         0.00087
       4 <- 38         0.00021
       4 <- 46        -0.00086
       5 <-  9         0.00014
       5 <- 13        -0.00040
       5 <- 18        -0.00048
       5 <- 23         0.00020
       5 <- 28        -0.00034
       5 <- 31         0.00026
       5 <- 37         0.00053
       6 <- 38        -0.00050
       6 <- 46         0.00081
       7 <- 12         0.00140
       7 <- 16        -0.01047
       7 <- 19         0.00496
       7 <- 22         0.00620
       7 <- 25        -0.00061
       7 <- 29         0.00554
       7 <- 33        -0.00038
       7 <- 35         0.00034
       7 <- 40        -0.00023
       7 <- 42         0.00015
       7 <- 49        -0.00047
       7 <- 53         0.00146
       8 <-  9        -0.06663
       8 <- 13        -0.00014
       8 <- 18        -0.00737
       8 <- 23        -0.00018
       8 <- 28        -0.00266
       8 <- 31        -0.00075
       8 <- 37        -0.00028
       8 <- 48         0.00012
       8 <- 52         0.00047
 This state for optimization and/or second-order correction.
 Total Energy, E(TD-HF/TD-DFT) =  -114.318459129
 Copying the excited state density for this state as the 1-particle RhoCI density.

 Excited State   2:      Singlet-A1     3.9269 eV  315.73 nm  f=0.0434  <S**2>=0.000
       3 -> 10        -0.01709
       3 -> 11        -0.00516
       3 -> 14         0.00374
       3 -> 15         0.00129
       3 -> 17        -0.00326
       3 -> 20        -0.00384
       3 -> 24         0.00109
       3 -> 26         0.00212
       3 -> 30        -0.00114
       3 -> 32         0.00276
       3 -> 34        -0.00137
       3 -> 36        -0.00113
       3 -> 39         0.00055
       3 -> 43         0.00052
       3 -> 45         0.00070
       3 -> 47         0.00230
       3 -> 50         0.00140
       4 -> 10        -0.00380
       4 -> 11         0.01197
       4 -> 14         0.00273
       4 -> 15        -0.00865
       4 -> 17         0.00258
       4 -> 20         0.00306
       4 -> 21         0.00034
       4 -> 24        -0.00415
       4 -> 26         0.00395
       4 -> 30         0.00070
       4 -> 32        -0.00133
       4 -> 34         0.00102
       4 -> 36         0.00029
       4 -> 39         0.00010
       4 -> 41         0.00010
       4 -> 43        -0.00051
       4 -> 45        -0.00081
       4 -> 47        -0.00091
       4 -> 50        -0.00031
       4 -> 54         0.00014
       5 -> 12         0.01198
       5 -> 16         0.00493
       5 -> 19         0.00131
       5 -> 22         0.00731
       5 -> 25        -0.00580
       5 -> 29         0.00026
       5 -> 33        -0.00264
       5 -> 35         0.00277
       5 -> 40        -0.00119
       5 -> 42         0.00087
       5 -> 49         0.00026
       5 -> 51        -0.00080
       6 -> 10         0.22847
       6 -> 11         0.05423
       6 -> 14        -0.06047
       6 -> 15        -0.03159
       6 -> 17        -0.01740
       6 -> 20        -0.00403
       6 -> 21         0.00789
       6 -> 24        -0.00983
       6 -> 26        -0.00431
       6 -> 30        -0.00589
       6 -> 32         0.00267
       6 -> 34        -0.00140
       6 -> 36         0.00014
       6 -> 39         0.00117
       6 -> 41        -0.00020
       6 -> 43         0.00085
       6 -> 45         0.00083
       6 -> 47         0.00092
       6 -> 50         0.00068
       6 -> 54        -0.00089
       7 ->  9         0.67905
       7 -> 13        -0.00499
       7 -> 18        -0.01299
       7 -> 23        -0.00192
       7 -> 28         0.00047
       7 -> 31        -0.00324
       7 -> 37         0.00122
       7 -> 44        -0.00099
       7 -> 48         0.00018
       7 -> 52         0.00106
       8 -> 12        -0.00787
       8 -> 16         0.04640
       8 -> 19        -0.02062
       8 -> 22        -0.01685
       8 -> 29        -0.00936
       8 -> 33         0.00129
       8 -> 35        -0.00122
       8 -> 40         0.00055
       8 -> 42        -0.00034
       8 -> 49         0.00030
       8 -> 51         0.00017
       8 -> 53        -0.00057
       3 <- 10        -0.01276
       3 <- 11        -0.00422
       3 <- 14         0.00303
       3 <- 15         0.00060
       3 <- 17        -0.00180
       3 <- 20        -0.00312
       3 <- 21        -0.00040
       3 <- 24         0.00047
       3 <- 26         0.00101
       3 <- 30        -0.00063
       3 <- 32         0.00247
       3 <- 34        -0.00076
       3 <- 36        -0.00105
       3 <- 39         0.00052
       3 <- 43         0.00060
       3 <- 45         0.00086
       3 <- 47         0.00233
       3 <- 50         0.00139
       3 <- 54         0.00013
       4 <- 10        -0.00126
       4 <- 11         0.00827
       4 <- 14         0.00178
       4 <- 15        -0.00564
       4 <- 17         0.00147
       4 <- 20         0.00321
       4 <- 21         0.00019
       4 <- 24        -0.00305
       4 <- 26         0.00336
       4 <- 32        -0.00152
       4 <- 34         0.00087
       4 <- 36         0.00057
       4 <- 43        -0.00047
       4 <- 45        -0.00079
       4 <- 47        -0.00057
       4 <- 50        -0.00017
       4 <- 54         0.00011
       5 <- 12         0.00656
       5 <- 16         0.00299
       5 <- 19         0.00100
       5 <- 22         0.00501
       5 <- 25        -0.00433
       5 <- 29         0.00031
       5 <- 33        -0.00215
       5 <- 35         0.00235
       5 <- 40        -0.00107
       5 <- 42         0.00076
       5 <- 49         0.00024
       5 <- 51        -0.00074
       6 <- 10         0.07539
       6 <- 11         0.02057
       6 <- 14        -0.02717
       6 <- 15        -0.01564
       6 <- 17        -0.00979
       6 <- 20        -0.00365
       6 <- 21         0.00514
       6 <- 24        -0.00634
       6 <- 26        -0.00238
       6 <- 30        -0.00412
       6 <- 32         0.00285
       6 <- 34        -0.00161
       6 <- 36        -0.00034
       6 <- 39         0.00111
       6 <- 41        -0.00016
       6 <- 43         0.00071
       6 <- 45         0.00064
       6 <- 47         0.00054
       6 <- 50         0.00053
       6 <- 54        -0.00079
       7 <-  9        -0.13018
       7 <- 13         0.00474
       7 <- 18        -0.01232
       7 <- 23         0.00166
       7 <- 28        -0.00242
       7 <- 31        -0.00158
       7 <- 37         0.00055
       7 <- 44        -0.00072
       7 <- 48        -0.00035
       7 <- 52         0.00096
       8 <- 12        -0.00273
       8 <- 16         0.02083
       8 <- 19        -0.01085
       8 <- 22        -0.01045
       8 <- 29        -0.00726
       8 <- 33         0.00101
       8 <- 35        -0.00096
       8 <- 40         0.00044
       8 <- 42        -0.00027
       8 <- 49         0.00014
       8 <- 51         0.00015
       8 <- 53        -0.00053

 Excited State   3:      Singlet-B1     4.3871 eV  282.61 nm  f=0.0008  <S**2>=0.000
       3 ->  9        -0.02517
       3 -> 13         0.00111
       3 -> 18        -0.00394
       3 -> 23         0.00136
       3 -> 28        -0.00078
       3 -> 31        -0.00058
       3 -> 37         0.00011
       3 -> 44         0.00028
       3 -> 48         0.00083
       3 -> 52         0.00082
       4 ->  9         0.01049
       4 -> 13        -0.00229
       4 -> 18         0.00013
       4 -> 23        -0.00204
       4 -> 28         0.00039
       4 -> 31        -0.00132
       4 -> 37        -0.00033
       4 -> 48        -0.00075
       4 -> 52        -0.00040
       5 -> 27         0.00012
       5 -> 38         0.00186
       5 -> 46         0.00057
       6 ->  9         0.69259
       6 -> 13        -0.01779
       6 -> 18         0.01492
       6 -> 23        -0.01042
       6 -> 28         0.00364
       6 -> 31         0.00262
       6 -> 37        -0.00177
       6 -> 44        -0.00218
       6 -> 48         0.00364
       6 -> 52         0.00116
       7 -> 10         0.14336
       7 -> 11         0.02550
       7 -> 14        -0.02284
       7 -> 15        -0.00674
       7 -> 17        -0.00919
       7 -> 20         0.00352
       7 -> 21         0.00119
       7 -> 24        -0.00184
       7 -> 26        -0.00236
       7 -> 30        -0.00414
       7 -> 32        -0.00015
       7 -> 34        -0.00083
       7 -> 36         0.00155
       7 -> 39         0.00018
       7 -> 41        -0.00027
       7 -> 43         0.00048
       7 -> 45         0.00036
       7 -> 47         0.00377
       7 -> 50         0.00122
       8 -> 27         0.00017
       8 -> 46         0.00465
       3 <-  9        -0.00850
       3 <- 13        -0.00083
       3 <- 18        -0.00262
       3 <- 23        -0.00060
       3 <- 28        -0.00044
       3 <- 31        -0.00074
       3 <- 37         0.00015
       3 <- 44        -0.00011
       3 <- 48         0.00095
       3 <- 52         0.00071
       4 <-  9         0.00612
       4 <- 13        -0.00042
       4 <- 18         0.00158
       4 <- 23        -0.00074
       4 <- 28         0.00143
       4 <- 31        -0.00090
       4 <- 37        -0.00020
       4 <- 48        -0.00066
       4 <- 52        -0.00022
       5 <- 27        -0.00041
       5 <- 38         0.00158
       5 <- 46         0.00050
       6 <-  9        -0.03310
       6 <- 13         0.00193
       6 <- 18        -0.00410
       6 <- 28        -0.00378
       6 <- 31         0.00054
       6 <- 37        -0.00148
       6 <- 44        -0.00088
       6 <- 48         0.00326
       6 <- 52         0.00022
       7 <- 10        -0.03647
       7 <- 11        -0.00986
       7 <- 14         0.01410
       7 <- 15         0.00922
       7 <- 17         0.00251
       7 <- 20         0.00371
       7 <- 21        -0.00359
       7 <- 24         0.00426
       7 <- 26         0.00172
       7 <- 30         0.00174
       7 <- 32         0.00035
       7 <- 34        -0.00109
       7 <- 36         0.00185
       7 <- 39         0.00056
       7 <- 43         0.00029
       7 <- 45         0.00014
       7 <- 47         0.00349
       7 <- 50         0.00126
       7 <- 54         0.00094
       8 <- 27         0.00065
       8 <- 38         0.00014
       8 <- 46         0.00436

 Excited State   4:      Singlet-B2     4.5205 eV  274.27 nm  f=0.0046  <S**2>=0.000
       3 -> 12        -0.00137
       3 -> 16         0.00168
       3 -> 19        -0.00437
       3 -> 22         0.00092
       3 -> 25        -0.00080
       3 -> 29        -0.00300
       3 -> 35         0.00180
       3 -> 40        -0.00159
       3 -> 42         0.00049
       3 -> 49        -0.00355
       3 -> 51         0.00020
       3 -> 53         0.00030
       4 -> 12         0.00045
       4 -> 16        -0.00192
       4 -> 19         0.00043
       4 -> 22         0.00223
       4 -> 25         0.00098
       4 -> 29         0.00117
       4 -> 33        -0.00040
       4 -> 35         0.00048
       4 -> 40         0.00039
       4 -> 42        -0.00011
       4 -> 49         0.00067
       4 -> 51        -0.00012
       5 -> 10         0.01093
       5 -> 11         0.00236
       5 -> 14        -0.00572
       5 -> 15         0.00395
       5 -> 17        -0.00036
       5 -> 20         0.00211
       5 -> 21         0.00416
       5 -> 24         0.00163
       5 -> 26        -0.00094
       5 -> 30        -0.00199
       5 -> 32        -0.00185
       5 -> 34         0.00056
       5 -> 39        -0.00085
       5 -> 41         0.00053
       5 -> 47        -0.00057
       5 -> 50         0.00036
       5 -> 54        -0.00022
       6 -> 12         0.00269
       6 -> 16        -0.00248
       6 -> 19         0.00388
       6 -> 22        -0.00051
       6 -> 25         0.00105
       6 -> 29        -0.00016
       6 -> 35        -0.00160
       6 -> 40         0.00122
       6 -> 42        -0.00066
       6 -> 49         0.00148
       6 -> 53        -0.00044
       7 -> 27        -0.00063
       7 -> 38         0.00050
       7 -> 46         0.00348
       8 -> 10         0.69499
       8 -> 11         0.09975
       8 -> 14        -0.08112
       8 -> 15        -0.03162
       8 -> 17        -0.01633
       8 -> 20         0.00261
       8 -> 21         0.00715
       8 -> 24        -0.00658
       8 -> 26        -0.00512
       8 -> 30        -0.01193
       8 -> 32        -0.00348
       8 -> 34         0.00161
       8 -> 36         0.00083
       8 -> 39        -0.00072
       8 -> 45         0.00104
       8 -> 47        -0.00430
       8 -> 50         0.00186
       8 -> 54        -0.00226
       3 <- 12        -0.00049
       3 <- 16         0.00053
       3 <- 19        -0.00211
       3 <- 22         0.00096
       3 <- 25        -0.00072
       3 <- 29        -0.00120
       3 <- 35         0.00128
       3 <- 40        -0.00138
       3 <- 42         0.00039
       3 <- 49        -0.00362
       3 <- 51         0.00018
       3 <- 53         0.00082
       4 <- 16        -0.00195
       4 <- 19         0.00013
       4 <- 22         0.00238
       4 <- 25         0.00060
       4 <- 29         0.00127
       4 <- 33        -0.00044
       4 <- 35         0.00070
       4 <- 40         0.00015
       4 <- 49         0.00048
       5 <- 10        -0.00079
       5 <- 11        -0.00099
       5 <- 14        -0.00066
       5 <- 15         0.00306
       5 <- 17         0.00020
       5 <- 20         0.00075
       5 <- 21         0.00189
       5 <- 24         0.00196
       5 <- 26        -0.00024
       5 <- 30        -0.00043
       5 <- 32        -0.00031
       5 <- 39        -0.00034
       5 <- 41         0.00056
       5 <- 45         0.00030
       5 <- 47        -0.00054
       5 <- 50         0.00019
       6 <- 12        -0.00043
       6 <- 16         0.00704
       6 <- 19        -0.00347
       6 <- 22        -0.00494
       6 <- 25         0.00098
       6 <- 29        -0.00574
       6 <- 33         0.00035
       6 <- 35        -0.00151
       6 <- 40         0.00125
       6 <- 42        -0.00072
       6 <- 49         0.00186
       6 <- 53        -0.00133
       7 <- 27        -0.00061
       7 <- 38         0.00040
       7 <- 46         0.00295
       8 <- 10        -0.03214
       8 <- 11        -0.00880
       8 <- 14         0.00936
       8 <- 15         0.00259
       8 <- 17         0.00124
       8 <- 20        -0.00293
       8 <- 21        -0.00176
       8 <- 24         0.00161
       8 <- 26         0.00156
       8 <- 30         0.00027
       8 <- 32         0.00306
       8 <- 34        -0.00103
       8 <- 36        -0.00061
       8 <- 39         0.00137
       8 <- 41         0.00033
       8 <- 43         0.00049
       8 <- 45         0.00182
       8 <- 47        -0.00345
       8 <- 50         0.00132
       8 <- 54        -0.00061

 Excited State   5:      Singlet-B1     5.4025 eV  229.49 nm  f=0.0076  <S**2>=0.000
       3 ->  9        -0.00991
       3 -> 13         0.00049
       3 -> 18        -0.00270
       3 -> 23         0.00070
       3 -> 28        -0.00300
       3 -> 31        -0.00158
       3 -> 37         0.00011
       3 -> 44         0.00036
       3 -> 48        -0.00271
       3 -> 52        -0.00010
       4 ->  9        -0.03191
       4 -> 13         0.00614
       4 -> 18         0.00116
       4 -> 23         0.00461
       4 -> 28         0.00151
       4 -> 37         0.00033
       4 -> 44        -0.00046
       4 -> 48         0.00072
       4 -> 52         0.00013
       5 -> 27        -0.00685
       5 -> 38        -0.00325
       5 -> 46         0.00035
       6 ->  9        -0.14471
       6 -> 13        -0.00079
       6 -> 18         0.00160
       6 -> 23         0.00016
       6 -> 28         0.00322
       6 -> 31        -0.00371
       6 -> 37         0.00213
       6 -> 44         0.00041
       6 -> 48         0.00034
       6 -> 52        -0.00066
       7 -> 10         0.68195
       7 -> 11         0.08494
       7 -> 14        -0.07258
       7 -> 15        -0.03753
       7 -> 17        -0.00976
       7 -> 20        -0.00344
       7 -> 21         0.00377
       7 -> 24        -0.00989
       7 -> 26        -0.00672
       7 -> 30        -0.00711
       7 -> 32        -0.00202
       7 -> 34         0.00389
       7 -> 36        -0.00155
       7 -> 39        -0.00064
       7 -> 43         0.00061
       7 -> 45         0.00096
       7 -> 47         0.00149
       7 -> 50         0.00073
       7 -> 54        -0.00156
       8 -> 27         0.00084
       8 -> 38         0.00024
       8 -> 46         0.00178
       3 <-  9        -0.00215
       3 <- 13         0.00066
       3 <- 18        -0.00107
       3 <- 23         0.00059
       3 <- 28        -0.00195
       3 <- 31        -0.00027
       3 <- 37        -0.00021
       3 <- 44         0.00013
       3 <- 48        -0.00287
       3 <- 52         0.00036
       4 <-  9        -0.01228
       4 <- 13         0.00264
       4 <- 18         0.00040
       4 <- 23         0.00255
       4 <- 28         0.00144
       4 <- 37         0.00038
       4 <- 44        -0.00067
       4 <- 48         0.00031
       4 <- 52         0.00012
       5 <- 27        -0.00476
       5 <- 38        -0.00257
       5 <- 46         0.00034
       6 <-  9        -0.02778
       6 <- 18        -0.00374
       6 <- 23         0.00049
       6 <- 28        -0.00052
       6 <- 31        -0.00444
       6 <- 37         0.00193
       6 <- 44         0.00058

 The electronic state is 1-A1.
 Alpha  occ. eigenvalues --  -19.17608 -10.33572  -0.90235  -0.70899  -0.49079
 Alpha  occ. eigenvalues --   -0.39823  -0.31420  -0.28809
 Alpha virt. eigenvalues --   -0.16370  -0.04978   0.00200   0.04059   0.06101
 Alpha virt. eigenvalues --    0.06904   0.12034   0.13671   0.18819   0.21143
 Alpha virt. eigenvalues --    0.23979   0.30345   0.38638   0.40033   0.50762

 Mulliken charges:
               1
     1  C   -0.086284
     2  H    0.189061
     3  H    0.189061
     4  O   -0.291838
 Sum of Mulliken charges =  -0.00000

 Dipole moment (field-independent basis, Debye):
    X=             -0.0000    Y=              0.0000    Z=             -4.0440  Tot=              4.0440
 Quadrupole moment (field-independent basis, Debye-Ang):
   XX=            -12.9543   YY=            -11.9891   ZZ=            -10.8703
   XY=              0.0000   XZ=              0.0000   YZ=             -0.0000

 Normal termination of Gaussian 16 at Fri Sep 17 10:53:06 2021.
