 Gaussian 16, Revision A.03,
 Gaussian 16:  ES64L-G16RevA.03 25-Dec-2016

 --------------------------------------------------------------------
 #p B3LYP/6-311+G** #p TD=(singlets,nstates=30)IOp(6/8=3) IOp(9/40=4)
 --------------------------------------------------------------------

 -------------------------------
 Scan Step 63, Bond Length 0.815
 -------------------------------
 Symbolic Z-matrix:
 Charge =  0 Multiplicity = 1

                         Standard orientation:
 ---------------------------------------------------------------------
 Center     Atomic      Atomic             Coordinates (Angstroms)
 Number     Number       Type             X           Y           Z
 ---------------------------------------------------------------------
      1          6           0        0.000000    0.000000   -0.333581
      2          1           0        0.000000    0.937260   -0.924931
      3          1           0       -0.000000   -0.937260   -0.924931
      4          8           0        0.000000   -0.000000    0.481419
 ---------------------------------------------------------------------

 SCF Done:  E(RB3LYP) =  -113.918506709     A.U. after    9 cycles

 Excitation energies and oscillator strengths:

 Excited State   1:      Singlet-B2     5.5379 eV  223.88 nm  f=0.0991  <S**2>=0.000
       3 -> 11         0.00082
       3 -> 16         0.00038
       3 -> 18         0.00090
       3 -> 23         0.00012
       3 -> 24         0.00106
       3 -> 29        -0.00021
       3 -> 42         0.00017
       3 -> 50        -0.00015
       3 -> 53         0.00011
       4 ->  9         0.00246
       4 -> 12         0.00535
       4 -> 14         0.00464
       4 -> 15         0.00164
       4 -> 19         0.00361
       4 -> 20         0.00156
       4 -> 21         0.00235
       4 -> 25         0.00142
       4 -> 26        -0.00094
       4 -> 30        -0.00174
       4 -> 31         0.00079
       4 -> 34         0.00046
       4 -> 38        -0.00081
       4 -> 41         0.00051
       4 -> 44         0.00040
       4 -> 46        -0.00063
       4 -> 48         0.00036
       5 -> 27         0.00129
       5 -> 35         0.00045
       5 -> 45         0.00087
       6 -> 11        -0.00694
       6 -> 16         0.00151
       6 -> 18         0.00069
       6 -> 23        -0.00201
       6 -> 24         0.00417
       6 -> 29        -0.00079
       6 -> 32        -0.00106
       6 -> 36         0.00081
       6 -> 40        -0.00011
       6 -> 42         0.00041
       7 -> 11         0.00317
       7 -> 16         0.00388
       7 -> 18         0.00318
       7 -> 23        -0.00161
       7 -> 24         0.00250
       7 -> 29         0.00027
       7 -> 32         0.00012
       7 -> 36        -0.00034
       7 -> 42        -0.00037
       7 -> 47         0.00044
       7 -> 50         0.00047
       7 -> 53        -0.00011
       8 ->  9         0.70612
       8 -> 12         0.00471
       8 -> 14        -0.02910
       8 -> 15         0.01066
       8 -> 19         0.02100
       8 -> 20        -0.00690
       8 -> 21        -0.00875
       8 -> 25         0.00051
       8 -> 26        -0.00030
       8 -> 30         0.00035
       8 -> 31         0.00317
       8 -> 34         0.00137
       8 -> 38         0.00099
       8 -> 39        -0.00044
       8 -> 41        -0.00057
       8 -> 46        -0.00102
       8 -> 48         0.00036
       8 -> 54        -0.00012
       3 <- 11         0.00029
       3 <- 18         0.00057
       3 <- 24         0.00079
       3 <- 29        -0.00019
       3 <- 42         0.00015
       3 <- 53         0.00012
       4 <-  9         0.00182
       4 <- 12        -0.00019
       4 <- 14         0.00373
       4 <- 15         0.00185
       4 <- 19         0.00089
       4 <- 20         0.00068
       4 <- 21         0.00157
       4 <- 25         0.00158
       4 <- 26        -0.00125
       4 <- 30        -0.00064
       4 <- 31         0.00016
       4 <- 34         0.00024
       4 <- 38        -0.00051
       4 <- 39         0.00017
       4 <- 41         0.00046
       4 <- 44         0.00029
       4 <- 46        -0.00057
       4 <- 48         0.00030
       5 <- 27         0.00102
       5 <- 35         0.00035
       5 <- 45         0.00074
       6 <- 11        -0.00045
       6 <- 16         0.00161
       6 <- 18         0.00190
       6 <- 23        -0.00109
       6 <- 24         0.00325
       6 <- 29        -0.00064
       6 <- 32        -0.00083
       6 <- 36         0.00064
       6 <- 40        -0.00015
       6 <- 42         0.00021
       7 <- 11         0.00078
       7 <- 16         0.00232
       7 <- 18         0.00090
       7 <- 23        -0.00065
       7 <- 24         0.00119
       7 <- 29         0.00089
       7 <- 42        -0.00030
       7 <- 47         0.00043
       7 <- 50         0.00054
       8 <-  9        -0.00541
       8 <- 12         0.00300
       8 <- 14        -0.01510
       8 <- 15        -0.00332
       8 <- 19        -0.00130
       8 <- 20         0.00012
       8 <- 21        -0.00453
       8 <- 25        -0.00315
       8 <- 26        -0.00061
       8 <- 30         0.00052
       8 <- 31         0.00181
       8 <- 34         0.00151
       8 <- 38         0.00096
       8 <- 39        -0.00037
       8 <- 41        -0.00041
       8 <- 44        -0.00012
       8 <- 46        -0.00078
       8 <- 48         0.00031
 This state for optimization and/or second-order correction.
 Total Energy, E(TD-HF/TD-DFT) =  -113.714991760
 Copying the excited state density for this state as the 1-particle RhoCI density.

 Excited State   2:      Singlet-A2     5.5584 eV  223.06 nm  f=0.0000  <S**2>=0.000
       3 -> 27         0.00245
       3 -> 35         0.00180
       3 -> 45         0.00084
       4 -> 10         0.00358
       4 -> 13         0.00610
       4 -> 17         0.00549
       4 -> 22        -0.00318
       4 -> 28         0.00270
       4 -> 33         0.00099
       4 -> 37         0.00273
       4 -> 43         0.00037
       4 -> 49         0.00010
       4 -> 52         0.00053
       5 -> 11        -0.00047
       5 -> 16        -0.00038
       5 -> 18        -0.00039
       5 -> 23         0.00149
       5 -> 24         0.00010
       5 -> 29        -0.00014
       5 -> 32         0.00020
       5 -> 36         0.00046
       5 -> 42         0.00047
       5 -> 47         0.00056
       5 -> 50        -0.00019
       5 -> 53         0.00019
       6 -> 27         0.00365
       6 -> 35        -0.00062
       6 -> 45        -0.00046
       7 -> 27         0.00084
       7 -> 45         0.00084
       8 -> 10         0.70036
       8 -> 13         0.09248
       8 -> 17         0.03069
       8 -> 22        -0.00273
       8 -> 28         0.00389
       8 -> 33         0.00326
       8 -> 37        -0.00238
       8 -> 52         0.00068
       3 <- 27         0.00188
       3 <- 35         0.00155
       3 <- 45         0.00085
       4 <- 10         0.00020
       4 <- 13         0.00110
       4 <- 17         0.00040
       4 <- 28         0.00011
       4 <- 33        -0.00098
       4 <- 37         0.00131
       4 <- 43         0.00039
       4 <- 52         0.00013
       5 <- 11        -0.00084
       5 <- 16         0.00103
       5 <- 18        -0.00258
       5 <- 23         0.00316
       5 <- 24        -0.00169
       5 <- 29         0.00151
       5 <- 32        -0.00060
       5 <- 36         0.00143
       5 <- 42         0.00068
       5 <- 47         0.00046
       5 <- 53         0.00052
       6 <- 27         0.00388
       6 <- 35        -0.00059
       6 <- 45        -0.00046
       7 <- 27         0.00081
       7 <- 35        -0.00015
       7 <- 45         0.00071
       8 <- 10        -0.00391
       8 <- 13        -0.00826
       8 <- 17        -0.00468
       8 <- 22         0.00032
       8 <- 28        -0.00038
       8 <- 33         0.00299
       8 <- 37        -0.00207
       8 <- 52         0.00021

 Excited State   3:      Singlet-B2     6.3530 eV  195.16 nm  f=0.0254  <S**2>=0.000
       3 -> 11         0.00011
       3 -> 16        -0.00058
       3 -> 18         0.00016
       3 -> 23        -0.00021
       3 -> 24        -0.00044
       3 -> 29        -0.00076
       3 -> 32        -0.00014
       3 -> 36         0.00027
       3 -> 42         0.00028
       3 -> 47        -0.00018
       3 -> 50        -0.00018
       3 -> 53         0.00012
       4 ->  9         0.00384
       4 -> 12        -0.00022
       4 -> 14        -0.00222
       4 -> 15        -0.00385
       4 -> 19         0.00263
       4 -> 20        -0.00013
       4 -> 21        -0.00143
       4 -> 25        -0.00084
       4 -> 26        -0.00107
       4 -> 30         0.00087
       4 -> 31         0.00218
       4 -> 34         0.00028
       4 -> 39         0.00088
       4 -> 41         0.00052
       4 -> 46        -0.00062
       4 -> 48         0.00034
       4 -> 51         0.00017
       5 -> 27         0.00094
       5 -> 35         0.00134
       5 -> 45         0.00093
       6 -> 11        -0.00208
       6 -> 16        -0.00495
       6 -> 18        -0.00058
       6 -> 23         0.00108
       6 -> 24        -0.00375
       6 -> 29         0.00143
       6 -> 32        -0.00055
       6 -> 40         0.00029
       7 -> 11         0.00282
       7 -> 16         0.00082
       7 -> 18         0.00232
       7 -> 23        -0.00120
       7 -> 24         0.00087
       7 -> 29         0.00014
       7 -> 32         0.00022
       7 -> 36        -0.00107
       7 -> 40         0.00029
       7 -> 42        -0.00055
       7 -> 47         0.00066
       7 -> 50         0.00052
       7 -> 53        -0.00018
       8 ->  9        -0.00471
       8 -> 12         0.70599
       8 -> 14         0.02105
       8 -> 15         0.02525
       8 -> 19         0.01441
       8 -> 20         0.01558
       8 -> 21         0.00384
       8 -> 25        -0.00052
       8 -> 26         0.00092
       8 -> 30        -0.00187
       8 -> 31        -0.00073
       8 -> 34        -0.00034
       8 -> 39         0.00106
       8 -> 41         0.00106
       8 -> 46        -0.00068
       8 -> 48         0.00043
       8 -> 54        -0.00015
       3 <- 11        -0.00018
       3 <- 16        -0.00058
       3 <- 24        -0.00049
       3 <- 29        -0.00051
       3 <- 32        -0.00015
       3 <- 36         0.00029
       3 <- 42         0.00024
       3 <- 47        -0.00014
       3 <- 53         0.00021
       4 <-  9        -0.00135
       4 <- 14        -0.00166
       4 <- 15        -0.00065
       4 <- 19        -0.00064
       4 <- 20         0.00038
       4 <- 21        -0.00100
       4 <- 25        -0.00093
       4 <- 26        -0.00092
       4 <- 30         0.00094
       4 <- 31         0.00095
       4 <- 34         0.00081
       4 <- 39         0.00067
       4 <- 41         0.00052
       4 <- 46        -0.00063
       4 <- 48         0.00022
       4 <- 51         0.00016
       5 <- 27         0.00049
       5 <- 35         0.00112
       5 <- 45         0.00081
       6 <- 11        -0.00011
       6 <- 16        -0.00109
       6 <- 18        -0.00097
       6 <- 23         0.00117
       6 <- 24        -0.00205
       6 <- 29         0.00071
       6 <- 32        -0.00060
       6 <- 36        -0.00030
       6 <- 40         0.00029
       6 <- 50        -0.00014
       7 <- 11         0.00037
       7 <- 16         0.00054
       7 <- 18         0.00022
       7 <- 23        -0.00026
       7 <- 24         0.00022
       7 <- 29         0.00047
       7 <- 36        -0.00071
       7 <- 40         0.00023
       7 <- 42        -0.00038
       7 <- 47         0.00058
       7 <- 50         0.00051
       8 <-  9         0.00277
       8 <- 12         0.00139
       8 <- 14         0.00801
       8 <- 15         0.00232
       8 <- 19        -0.00160
       8 <- 20        -0.00235
       8 <- 21         0.00298
       8 <- 25         0.00055
       8 <- 26        -0.00055
       8 <- 30        -0.00145
       8 <- 31        -0.00110
       8 <- 38         0.00025
       8 <- 39         0.00081
       8 <- 41         0.00091
       8 <- 46        -0.00056
       8 <- 48         0.00026

 Excited State   4:      Singlet-A1     6.4945 eV  190.91 nm  f=0.0314  <S**2>=0.000
       3 ->  9         0.00124
       3 -> 12         0.00070
       3 -> 15         0.00062
       3 -> 19         0.00135
       3 -> 20        -0.00015
       3 -> 21        -0.00046
       3 -> 25         0.00035
       3 -> 26         0.00011
       3 -> 30        -0.00101
       3 -> 31        -0.00012
       3 -> 34        -0.00025
       3 -> 38        -0.00032
       3 -> 39        -0.00029
       3 -> 48        -0.00011
       3 -> 51        -0.00025
       3 -> 54         0.00019
       4 -> 11         0.00709
       4 -> 16         0.00808
       4 -> 18         0.00544
       4 -> 23         0.00141
       4 -> 24         0.00374
       4 -> 29         0.00072
       4 -> 32        -0.00014
       4 -> 36         0.00100
       4 -> 42        -0.00026
       4 -> 50        -0.00033
       4 -> 53        -0.00011
       5 -> 10         0.00602
       5 -> 13        -0.00267
       5 -> 17         0.00483
       5 -> 22         0.00367
       5 -> 28         0.00092
       5 -> 33         0.00092
       5 -> 37         0.00055
       5 -> 43         0.00037
       5 -> 49        -0.00035
       6 ->  9         0.00620
       6 -> 12        -0.01096
       6 -> 14         0.00607
       6 -> 15         0.00317
       6 -> 19         0.00188
       6 -> 20        -0.00688
       6 -> 21         0.00128
       6 -> 25         0.00672
       6 -> 26        -0.00109
       6 -> 30         0.00094
       6 -> 31        -0.00099
       6 -> 34        -0.00124
       6 -> 38        -0.00054
       6 -> 39         0.00109
       6 -> 44         0.00032
       6 -> 46        -0.00024
       6 -> 48        -0.00035
       7 ->  9         0.01248
       7 -> 12         0.00610
       7 -> 14         0.00179
       7 -> 15        -0.00113
       7 -> 19         0.00863
       7 -> 20        -0.00151
       7 -> 21         0.00030
       7 -> 25         0.00150
       7 -> 26         0.00060
       7 -> 30        -0.00039
       7 -> 31         0.00083
       7 -> 34        -0.00095
       7 -> 38        -0.00013
       7 -> 39         0.00020
       7 -> 48        -0.00022
       7 -> 51         0.00035
       8 -> 11         0.70529
       8 -> 16         0.04501
       8 -> 18        -0.01004
       8 -> 23         0.00207
       8 -> 24         0.00235
       8 -> 29         0.00390
       8 -> 32         0.00163
       8 -> 36        -0.00276
       8 -> 40         0.00019
       8 -> 42         0.00159
       8 -> 47        -0.00056
       3 <-  9         0.00057
       3 <- 12         0.00030
       3 <- 15         0.00034
       3 <- 19         0.00080
       3 <- 21        -0.00023
       3 <- 25         0.00034
       3 <- 26         0.00012
       3 <- 30        -0.00062
       3 <- 31        -0.00012
       3 <- 34        -0.00022
       3 <- 38        -0.00023
       3 <- 39        -0.00025
       3 <- 41        -0.00010
       3 <- 46         0.00011
       3 <- 48        -0.00013
       3 <- 51        -0.00021
       3 <- 54         0.00017
       4 <- 11         0.00257
       4 <- 16         0.00280
       4 <- 18         0.00287
       4 <- 23         0.00116
       4 <- 24         0.00200
       4 <- 29         0.00030
       4 <- 32        -0.00025
       4 <- 36         0.00085
       4 <- 42        -0.00023
       4 <- 50        -0.00028
       5 <- 10         0.00257
       5 <- 13        -0.00122
       5 <- 17         0.00247
       5 <- 22         0.00231
       5 <- 28         0.00061
       5 <- 33         0.00072
       5 <- 37         0.00046
       5 <- 43         0.00032
       5 <- 49        -0.00031
       6 <-  9         0.00633
       6 <- 12        -0.00435
       6 <- 14         0.00464
       6 <- 15         0.00278
       6 <- 19         0.00124
       6 <- 20        -0.00387
       6 <- 25         0.00423
       6 <- 26        -0.00054
       6 <- 30         0.00027
       6 <- 31        -0.00111
       6 <- 34        -0.00095
       6 <- 38        -0.00063
       6 <- 39         0.00087
       6 <- 44         0.00036
       6 <- 46        -0.00021
       6 <- 48        -0.00028
       7 <-  9         0.00438
       7 <- 12         0.00179
       7 <- 14         0.00079
       7 <- 15        -0.00052
       7 <- 19         0.00394
       7 <- 20        -0.00102
       7 <- 25         0.00093
       7 <- 26         0.00028
       7 <- 30        -0.00037
       7 <- 31         0.00057
       7 <- 34        -0.00065
       7 <- 38        -0.00017
       7 <- 39         0.00027
       7 <- 46        -0.00014
       7 <- 48        -0.00013
       7 <- 51         0.00032
       8 <- 11        -0.00508
       8 <- 16         0.00476
       8 <- 18        -0.01256
       8 <- 23        -0.00194
       8 <- 24        -0.00116
       8 <- 29         0.00227
       8 <- 32         0.00134
       8 <- 36        -0.00205
       8 <- 42         0.00127
       8 <- 47        -0.00061
       8 <- 53        -0.00010

 Excited State   5:      Singlet-A2     7.6403 eV  162.28 nm  f=0.0000  <S**2>=0.000
       3 -> 27         0.00233
       3 -> 35         0.00180
       3 -> 45         0.00079
       4 -> 10         0.00550
       4 -> 13         0.01001
       4 -> 17        -0.00047
       4 -> 22        -0.00267
       4 -> 28         0.00062
       4 -> 33         0.00209
       4 -> 37         0.00300
       4 -> 43         0.00030
       4 -> 49        -0.00010
       4 -> 52         0.00049
       5 -> 16        -0.00164
       5 -> 18        -0.00032
       5 -> 23         0.00164
       5 -> 29        -0.00036
       5 -> 32         0.00012
       5 -> 36         0.00047
       5 -> 42         0.00052
       5 -> 47         0.00049
       5 -> 53         0.00020
       6 -> 27         0.00193
       6 -> 35        -0.00084
       6 -> 45        -0.00023
       7 -> 27         0.00045
       7 -> 45         0.00085
       8 -> 10        -0.09348
       8 -> 13         0.70013
       8 -> 17         0.02052
       8 -> 22        -0.02389
       8 -> 28         0.00280
       8 -> 33         0.00215
       8 -> 37        -0.00196
       8 -> 43        -0.00016
       8 -> 49        -0.00011
       8 -> 52         0.00053
       3 <- 27         0.00151
       3 <- 35         0.00148
       3 <- 45         0.00089
       4 <- 10         0.00034
       4 <- 13         0.00064
       4 <- 17        -0.00024
       4 <- 33        -0.00050
       4 <- 37         0.00106
       4 <- 43         0.00033
       4 <- 52         0.00015
       5 <- 11         0.00031
       5 <- 16        -0.00041
       5 <- 18        -0.00097
       5 <- 23         0.00285
       5 <- 24        -0.00115
       5 <- 29         0.00027
       5 <- 32        -0.00079
       5 <- 36         0.00152
       5 <- 42         0.00084
       5 <- 47         0.00024
       5 <- 53         0.00044
       6 <- 27         0.00247
       6 <- 35        -0.00025
       6 <- 45        -0.00033
       7 <- 27         0.00059
       7 <- 35        -0.00025
       7 <- 45         0.00048
       8 <- 10        -0.00734
       8 <- 13        -0.00341
       8 <- 17        -0.00192
       8 <- 22         0.00066
       8 <- 28        -0.00036
       8 <- 33         0.00200
       8 <- 37        -0.00149
       8 <- 52         0.00021

 Excited State   6:      Singlet-B2     9.6228 eV  128.84 nm  f=0.1598  <S**2>=0.000
       3 -> 11        -0.00038
       3 -> 16         0.00095
       3 -> 18        -0.00079
       3 -> 23         0.00060
       3 -> 24         0.00035
       3 -> 29         0.00083
       3 -> 32        -0.00067
       3 -> 40         0.00041
       3 -> 42         0.00042
       3 -> 47         0.00026
       4 ->  9         0.00598

 The electronic state is 1-A1.
 Alpha  occ. eigenvalues --  -19.14415 -10.24151  -1.30925  -0.65947  -0.61801
 Alpha  occ. eigenvalues --   -0.58471  -0.53694  -0.22811
 Alpha virt. eigenvalues --    0.01329   0.02426   0.04436   0.04492   0.10846
 Alpha virt. eigenvalues --    0.14371   0.17655   0.19904   0.21771   0.24427
 Alpha virt. eigenvalues --    0.25345   0.36506   0.50443   0.54035   0.55298

 Mulliken charges:
               1
     1  C    0.291281
     2  H   -0.032882
     3  H   -0.032882
     4  O   -0.225518
 Sum of Mulliken charges =  -0.00000

 Dipole moment (field-independent basis, Debye):
    X=              0.0000    Y=              0.0000    Z=              0.0532  Tot=              0.0532
 Quadrupole moment (field-independent basis, Debye-Ang):
   XX=            -10.5753   YY=            -12.7085   ZZ=            -13.3818
   XY=             -0.0000   XZ=             -0.0000   YZ=              0.0000

 Normal termination of Gaussian 16 at Fri Sep 17 10:52:27 2021.
