 Gaussian 16, Revision A.03,
 Gaussian 16:  ES64L-G16RevA.03 25-Dec-2016

 --------------------------------------------------------------------
 #p B3LYP/6-311+G** #p TD=(singlets,nstates=30)IOp(6/8=3) IOp(9/40=4)
 --------------------------------------------------------------------

 --------------------------------
 Scan Step 145, Bond Length 1.225
 --------------------------------
 Symbolic Z-matrix:
 Charge =  0 Multiplicity = 1

                         Standard orientation:
 ---------------------------------------------------------------------
 Center     Atomic      Atomic             Coordinates (Angstroms)
 Number     Number       Type             X           Y           Z
 ---------------------------------------------------------------------
      1          6           0        0.000000    0.000000   -0.538581
      2          1           0        0.000000    0.937260   -1.129931
      3          1           0       -0.000000   -0.937260   -1.129931
      4          8           0        0.000000   -0.000000    0.686419
 ---------------------------------------------------------------------

 SCF Done:  E(RB3LYP) =  -114.540923076     A.U. after    9 cycles

 Excitation energies and oscillator strengths:

 Excited State   1:      Singlet-A2     3.8260 eV  324.06 nm  f=0.0000  <S**2>=0.000
       3 -> 27         0.00243
       3 -> 38         0.00205
       3 -> 45         0.00253
       4 -> 27         0.00186
       4 -> 38        -0.00054
       4 -> 45        -0.00131
       5 ->  9         0.02080
       5 -> 13        -0.00290
       5 -> 17         0.00556
       5 -> 29         0.00437
       5 -> 31        -0.00218
       5 -> 37         0.00335
       5 -> 44         0.00061
       5 -> 47         0.00015
       5 -> 52         0.00076
       6 -> 27        -0.00015
       6 -> 38        -0.00084
       6 -> 45         0.00178
       7 -> 12        -0.00062
       7 -> 15         0.00290
       7 -> 18        -0.00283
       7 -> 22         0.00065
       7 -> 25         0.00143
       7 -> 30        -0.00094
       7 -> 33         0.00044
       7 -> 35        -0.00026
       7 -> 40         0.00023
       7 -> 42        -0.00011
       7 -> 49         0.00033
       7 -> 50         0.00032
       7 -> 53         0.00047
       8 ->  9         0.70555
       8 -> 13        -0.04165
       8 -> 17         0.02300
       8 -> 23        -0.01009
       8 -> 29         0.00922
       8 -> 31        -0.00246
       8 -> 44        -0.00012
       8 -> 47        -0.00025
       8 -> 52         0.00170
       3 <- 27         0.00156
       3 <- 38         0.00169
       3 <- 45         0.00262
       4 <- 27         0.00267
       4 <- 45        -0.00111
       5 <-  9        -0.00044
       5 <- 13        -0.00082
       5 <- 17        -0.00099
       5 <- 23         0.00054
       5 <- 29        -0.00068
       5 <- 31         0.00087
       5 <- 37         0.00161
       5 <- 44         0.00025
       5 <- 47         0.00016
       5 <- 52         0.00020
       6 <- 27         0.00043
       6 <- 38        -0.00075
       6 <- 45         0.00139
       7 <- 12        -0.00077
       7 <- 15        -0.00733
       7 <- 18         0.00037
       7 <- 22         0.00735
       7 <- 25        -0.00011
       7 <- 30         0.00349
       7 <- 33        -0.00130
       7 <- 35        -0.00236
       7 <- 40         0.00097
       7 <- 49         0.00013
       7 <- 50         0.00021
       7 <- 53         0.00129
       8 <-  9        -0.02482
       8 <- 13         0.00295
       8 <- 17        -0.00440
       8 <- 23         0.00080
       8 <- 29        -0.00101
       8 <- 31        -0.00081
       8 <- 37        -0.00141
       8 <- 52         0.00049
 This state for optimization and/or second-order correction.
 Total Energy, E(TD-HF/TD-DFT) =  -114.400319609
 Copying the excited state density for this state as the 1-particle RhoCI density.

 Excited State   2:      Singlet-B2     6.8815 eV  180.17 nm  f=0.0280  <S**2>=0.000
       3 -> 12         0.00152
       3 -> 15         0.00071
       3 -> 18         0.00119
       3 -> 22        -0.00032
       3 -> 25         0.00128
       3 -> 33         0.00020
       3 -> 35         0.00041
       3 -> 40        -0.00011
       4 -> 12        -0.00308
       4 -> 15         0.00186
       4 -> 18         0.00205
       4 -> 22        -0.00331
       4 -> 25         0.00333
       4 -> 30         0.00031
       4 -> 33        -0.00048
       4 -> 35        -0.00059
       4 -> 40         0.00046
       4 -> 42        -0.00012
       5 -> 10        -0.00693
       5 -> 11        -0.00848
       5 -> 14         0.00700
       5 -> 16        -0.00082
       5 -> 20         0.00240
       5 -> 21         0.00583
       5 -> 24         0.00014
       5 -> 26         0.00244
       5 -> 28         0.00117
       5 -> 32        -0.00093
       5 -> 34        -0.00101
       5 -> 36        -0.00019
       5 -> 39        -0.00029
       5 -> 41        -0.00037
       5 -> 43        -0.00053
       5 -> 46        -0.00032
       5 -> 54         0.00012
       6 -> 15         0.00151
       6 -> 18         0.00199
       6 -> 22        -0.00250
       6 -> 25         0.00115
       6 -> 30        -0.00052
       6 -> 33        -0.00023
       6 -> 35        -0.00039
       6 -> 40        -0.00012
       6 -> 42        -0.00019
       6 -> 49         0.00047
       6 -> 50        -0.00030
       7 -> 27         0.00017
       7 -> 38        -0.00057
       7 -> 45         0.00040
       8 -> 10         0.70292
       8 -> 11        -0.07163
       8 -> 14         0.01446
       8 -> 16        -0.00593
       8 -> 19         0.00998
       8 -> 20         0.01518
       8 -> 21        -0.00291
       8 -> 24         0.00015
       8 -> 26         0.00251
       8 -> 28         0.00078
       8 -> 32         0.00100
       8 -> 34         0.00118
       8 -> 36         0.00038
       8 -> 39         0.00037
       8 -> 41        -0.00019
       8 -> 43         0.00061
       8 -> 46        -0.00059
       8 -> 48        -0.00014
       8 -> 54         0.00019
       3 <- 12         0.00036
       3 <- 15         0.00054
       3 <- 18         0.00045
       3 <- 22        -0.00046
       3 <- 25         0.00074
       3 <- 30        -0.00011
       3 <- 33         0.00017
       3 <- 35         0.00038
       3 <- 40        -0.00013
       4 <- 12         0.00075
       4 <- 15         0.00192
       4 <- 18         0.00197
       4 <- 22        -0.00204
       4 <- 25         0.00228
       4 <- 30         0.00022
       4 <- 33        -0.00028
       4 <- 35        -0.00032
       4 <- 40         0.00013
       4 <- 42        -0.00023
       4 <- 50        -0.00012
       5 <- 10         0.00237
       5 <- 11        -0.00025
       5 <- 14         0.00482
       5 <- 16        -0.00071
       5 <- 20         0.00082
       5 <- 21         0.00206
       5 <- 24         0.00193
       5 <- 26         0.00153
       5 <- 28         0.00016
       5 <- 32        -0.00065
       5 <- 34        -0.00095
       5 <- 36        -0.00028
       5 <- 39        -0.00016
       5 <- 41        -0.00018
       5 <- 43        -0.00040
       5 <- 46        -0.00029
       6 <- 15        -0.00011
       6 <- 18         0.00115
       6 <- 22        -0.00069
       6 <- 25         0.00039
       6 <- 30         0.00030
       6 <- 33        -0.00028
       6 <- 35        -0.00048
       6 <- 40        -0.00012
       6 <- 42        -0.00018
       6 <- 49         0.00039
       6 <- 50        -0.00032
       6 <- 53         0.00014
       7 <- 27         0.00015
       7 <- 38        -0.00043
       7 <- 45         0.00036
       8 <- 10        -0.00172
       8 <- 11        -0.00052
       8 <- 14        -0.00529
       8 <- 16        -0.00042
       8 <- 20        -0.00060
       8 <- 21        -0.00183
       8 <- 24        -0.00222
       8 <- 26        -0.00071
       8 <- 28        -0.00054
       8 <- 32         0.00107
       8 <- 34         0.00024
       8 <- 36         0.00035
       8 <- 39         0.00029
       8 <- 43         0.00041
       8 <- 46        -0.00038

 Excited State   3:      Singlet-B2     7.6599 eV  161.86 nm  f=0.0260  <S**2>=0.000
       3 -> 12        -0.00032
       3 -> 15        -0.00084
       3 -> 18         0.00091
       3 -> 22         0.00044
       3 -> 25         0.00013
       3 -> 30         0.00221
       3 -> 33         0.00014
       3 -> 35         0.00051
       3 -> 40        -0.00046
       3 -> 49         0.00049
       3 -> 50        -0.00021
       4 -> 12         0.00268
       4 -> 15         0.00014
       4 -> 18         0.00228
       4 -> 22        -0.00149
       4 -> 25         0.00296
       4 -> 30        -0.00128
       4 -> 33         0.00050
       4 -> 35         0.00055
       4 -> 42        -0.00012
       4 -> 49         0.00024
       5 -> 10        -0.00685
       5 -> 11        -0.00015
       5 -> 14         0.00890
       5 -> 16        -0.00709
       5 -> 19        -0.00190
       5 -> 20        -0.00466
       5 -> 21         0.00174
       5 -> 24         0.00103
       5 -> 26         0.00116
       5 -> 28         0.00160
       5 -> 32        -0.00020
       5 -> 34        -0.00105
       5 -> 36        -0.00028
       5 -> 39         0.00041
       5 -> 41        -0.00073
       5 -> 43         0.00015
       5 -> 46         0.00089
       5 -> 51        -0.00041
       6 -> 12        -0.00303
       6 -> 15        -0.00169
       6 -> 18        -0.00085
       6 -> 22         0.00124
       6 -> 25         0.00016
       6 -> 30         0.00104
       6 -> 33        -0.00054
       6 -> 35        -0.00149
       6 -> 40         0.00106
       6 -> 49        -0.00116
       6 -> 50         0.00041
       6 -> 53         0.00011
       7 -> 38        -0.00090
       7 -> 45        -0.00183
       8 -> 10         0.07200
       8 -> 11         0.70249
       8 -> 14        -0.00505
       8 -> 16         0.01017
       8 -> 19        -0.03114
       8 -> 20         0.00505
       8 -> 21        -0.00291
       8 -> 24         0.00024
       8 -> 26        -0.00115
       8 -> 28         0.00137
       8 -> 32         0.00018
       8 -> 34        -0.00020
       8 -> 36        -0.00014
       8 -> 39        -0.00023
       8 -> 41        -0.00120
       8 -> 43         0.00033
       8 -> 46         0.00203
       8 -> 48         0.00013
       8 -> 51        -0.00099
       3 <- 12         0.00034
       3 <- 15        -0.00026
       3 <- 18         0.00093
       3 <- 25         0.00028
       3 <- 30         0.00123
       3 <- 33         0.00025
       3 <- 35         0.00055
       3 <- 40        -0.00042
       3 <- 49         0.00043
       3 <- 50        -0.00014
       3 <- 53        -0.00029
       4 <- 12         0.00033
       4 <- 15         0.00078
       4 <- 18         0.00054
       4 <- 22        -0.00115
       4 <- 25         0.00124
       4 <- 30        -0.00063
       4 <- 33         0.00046
       4 <- 35         0.00022
       4 <- 42        -0.00013
       4 <- 49         0.00018
       5 <- 10         0.00124
       5 <- 11        -0.00123
       5 <- 14         0.00264
       5 <- 16        -0.00043
       5 <- 19         0.00118
       5 <- 20        -0.00047
       5 <- 21         0.00076
       5 <- 24         0.00137
       5 <- 28         0.00069
       5 <- 32        -0.00101
       5 <- 36         0.00015
       5 <- 39         0.00011
       5 <- 41        -0.00076
       5 <- 46         0.00083
       5 <- 48         0.00014
       5 <- 51        -0.00030
       6 <- 12        -0.00030
       6 <- 15        -0.00080
       6 <- 18         0.00018
       6 <- 22         0.00076
       6 <- 25        -0.00012
       6 <- 30         0.00084
       6 <- 33        -0.00042
       6 <- 35        -0.00124
       6 <- 40         0.00081
       6 <- 49        -0.00095
       6 <- 50         0.00032
       7 <- 27         0.00025
       7 <- 38        -0.00072
       7 <- 45        -0.00153
       8 <- 10        -0.00071
       8 <- 11        -0.00112
       8 <- 14        -0.00366
       8 <- 16         0.00044
       8 <- 19         0.00452
       8 <- 20        -0.00073
       8 <- 21        -0.00201
       8 <- 24         0.00040
       8 <- 26        -0.00167
       8 <- 28         0.00040
       8 <- 32        -0.00117
       8 <- 34         0.00143
       8 <- 39        -0.00060
       8 <- 41        -0.00107
       8 <- 43         0.00017
       8 <- 46         0.00162
       8 <- 48         0.00027
       8 <- 51        -0.00067

 Excited State   4:      Singlet-A1     7.8725 eV  157.49 nm  f=0.0464  <S**2>=0.000
       3 -> 10         0.00203
       3 -> 11        -0.00069
       3 -> 14         0.00104
       3 -> 16        -0.00010
       3 -> 19        -0.00078
       3 -> 20         0.00207
       3 -> 21         0.00094
       3 -> 24        -0.00073
       3 -> 26         0.00124
       3 -> 28         0.00089
       3 -> 32         0.00010
       3 -> 34        -0.00072
       3 -> 36        -0.00017
       3 -> 41        -0.00020
       3 -> 46         0.00016
       3 -> 48         0.00031
       3 -> 51        -0.00018
       3 -> 54        -0.00018
       4 -> 10         0.00476
       4 -> 11         0.00513
       4 -> 14         0.00465
       4 -> 16         0.00053
       4 -> 19         0.00020
       4 -> 20         0.00355
       4 -> 21         0.00011
       4 -> 24         0.00701
       4 -> 26         0.00193
       4 -> 28        -0.00034
       4 -> 32        -0.00063
       4 -> 43         0.00016
       4 -> 46        -0.00020
       4 -> 51        -0.00014
       5 -> 12         0.00587
       5 -> 15         0.00275
       5 -> 18         0.00987
       5 -> 22        -0.00243
       5 -> 25         0.00540
       5 -> 30        -0.00024
       5 -> 33        -0.00018
       5 -> 35        -0.00075
       5 -> 50         0.00020
       5 -> 53        -0.00012
       6 -> 10         0.01160
       6 -> 11        -0.00237
       6 -> 14         0.00429
       6 -> 16         0.00044
       6 -> 19         0.00188
       6 -> 20         0.00328
       6 -> 21        -0.00015
       6 -> 24         0.00406
       6 -> 26        -0.00021
       6 -> 28        -0.00204
       6 -> 32        -0.00035
       6 -> 39         0.00016
       6 -> 43         0.00014
       6 -> 48        -0.00068
       6 -> 51         0.00019
       6 -> 54        -0.00011
       7 ->  9         0.02346
       7 -> 13         0.01128
       7 -> 17         0.00170
       7 -> 23         0.00519
       7 -> 29        -0.00070
       7 -> 31        -0.00093
       7 -> 37         0.00058
       7 -> 44         0.00064
       7 -> 47        -0.00033
       7 -> 52        -0.00011
       8 -> 12         0.70567
       8 -> 15        -0.00381
       8 -> 18         0.03002
       8 -> 22         0.00357
       8 -> 25         0.00421
       8 -> 30        -0.00028
       8 -> 33         0.00162
       8 -> 35         0.00197
       8 -> 40         0.00049
       8 -> 42         0.00015
       8 -> 49        -0.00046
       8 -> 50         0.00026
       8 -> 53        -0.00024
       3 <- 10         0.00063
       3 <- 11         0.00017
       3 <- 14         0.00055
       3 <- 16         0.00012
       3 <- 19        -0.00057
       3 <- 20         0.00093
       3 <- 21         0.00063
       3 <- 24        -0.00016
       3 <- 26         0.00083
       3 <- 28         0.00059
       3 <- 32         0.00022
       3 <- 34        -0.00049
       3 <- 36        -0.00012
       3 <- 41        -0.00013
       3 <- 46         0.00025
       3 <- 48         0.00025
       3 <- 51        -0.00015
       3 <- 54        -0.00017
       4 <- 10         0.00409
       4 <- 11         0.00110
       4 <- 14         0.00344
       4 <- 20         0.00205
       4 <- 21        -0.00013
       4 <- 24         0.00379
       4 <- 26         0.00119
       4 <- 32        -0.00080
       4 <- 34        -0.00032
       4 <- 39        -0.00012
       4 <- 41        -0.00010
       4 <- 43         0.00012
       4 <- 46        -0.00016
       4 <- 51        -0.00013
       5 <- 12         0.00270
       5 <- 15         0.00276
       5 <- 18         0.00347
       5 <- 22        -0.00090
       5 <- 25         0.00293
       5 <- 30        -0.00016
       5 <- 33        -0.00035
       5 <- 35        -0.00068
       5 <- 50         0.00012
       5 <- 53        -0.00011
       6 <- 10         0.00279
       6 <- 14         0.00163
       6 <- 19         0.00045
       6 <- 20         0.00150
       6 <- 21        -0.00028
       6 <- 24         0.00197
       6 <- 28        -0.00133
       6 <- 32        -0.00038
       6 <- 34        -0.00013
       6 <- 41         0.00011
       6 <- 46        -0.00015
       6 <- 48        -0.00056
       6 <- 51         0.00023
       7 <-  9        -0.00052
       7 <- 13         0.00239
       7 <- 17         0.00021
       7 <- 23         0.00260
       7 <- 29        -0.00056
       7 <- 31        -0.00063
       7 <- 37         0.00045
       7 <- 44         0.00053
       7 <- 47        -0.00029
       8 <- 12        -0.00065
       8 <- 15        -0.00484
       8 <- 18        -0.00170
       8 <- 22         0.00051
       8 <- 25        -0.00153
       8 <- 30        -0.00086
       8 <- 33         0.00065
       8 <- 35         0.00079
       8 <- 40         0.00052
       8 <- 42         0.00015
       8 <- 49        -0.00046
       8 <- 50         0.00017
       8 <- 53        -0.00024

 Excited State   5:      Singlet-A2     8.3836 eV  147.89 nm  f=0.0000  <S**2>=0.000
       3 -> 27        -0.00042
       3 -> 38        -0.00037
       3 -> 45        -0.00019
       4 -> 27         0.00018
       4 -> 38         0.00046
       5 ->  9        -0.00431
       5 -> 13        -0.00516
       5 -> 17         0.00664
       5 -> 23        -0.00212
       5 -> 29        -0.00019
       5 -> 31         0.00135
       5 -> 37        -0.00090
       5 -> 44        -0.00019
       6 -> 27         0.00023
       6 -> 38         0.00029
       6 -> 45        -0.00020
       7 -> 15        -0.00191
       7 -> 18         0.00202
       7 -> 22        -0.00071
       7 -> 35         0.00012
       8 ->  9         0.04122
       8 -> 13         0.70533
       8 -> 17         0.02115
       8 -> 23         0.01632
       8 -> 29         0.00022
       8 -> 31         0.00167
       8 -> 37        -0.00037
       8 -> 47         0.00017
       3 <- 27        -0.00011
       3 <- 38        -0.00023
       3 <- 45        -0.00026
       5 <-  9        -0.00036
       5 <- 13        -0.00032
       5 <- 17         0.00049
       5 <- 37        -0.00019
       6 <- 38         0.00019
       7 <- 12        -0.00057
       7 <- 15        -0.00105
       7 <- 18         0.00077
       7 <- 22        -0.00089
       7 <- 25        -0.00042
       7 <- 30         0.00023
       7 <- 33         0.00035
       7 <- 35         0.00056
       7 <- 40        -0.00035
       8 <-  9         0.00147
       8 <- 13         0.00125
       8 <- 17         0.00024
       8 <- 23        -0.00013
       8 <- 37         0.00011

 Excited State   6:      Singlet-B1     8.8354 eV  140.33 nm  f=0.0010  <S**2>=0.000
       3 ->  9        -0.03297
       3 -> 13         0.00576
       3 -> 17        -0.00728
       3 -> 23         0.00440
       3 -> 29        -0.00284
       3 -> 44         0.00070
       3 -> 52         0.00113
       4 ->  9         0.01699
       4 -> 13        -0.00280
       4 -> 17         0.00106
       4 -> 23        -0.00248
       4 -> 31        -0.00271
       4 -> 37        -0.00035
       4 -> 44        -0.00012
       4 -> 47        -0.00166
       4 -> 52        -0.00100
       5 -> 27        -0.00188
       5 -> 38         0.00222
       5 -> 45         0.00324
       6 ->  9         0.70461
       6 -> 13        -0.03934
       6 -> 17         0.02396
       6 -> 23        -0.01251

 The electronic state is 1-A1.
 Alpha  occ. eigenvalues --  -19.15254 -10.28263  -1.06454  -0.64895  -0.50374
 Alpha  occ. eigenvalues --   -0.46187  -0.40711  -0.28338
 Alpha virt. eigenvalues --   -0.07037   0.00710   0.03871   0.04249   0.06428
 Alpha virt. eigenvalues --    0.12821   0.17564   0.18625   0.21961   0.23281
 Alpha virt. eigenvalues --    0.26669   0.32366   0.44975   0.46106   0.50926

 Mulliken charges:
               1
     1  C    0.013219
     2  H    0.117495
     3  H    0.117495
     4  O   -0.248208
 Sum of Mulliken charges =  -0.00000

 Dipole moment (field-independent basis, Debye):
    X=             -0.0000    Y=              0.0000    Z=             -2.5845  Tot=              2.5845
 Quadrupole moment (field-independent basis, Debye-Ang):
   XX=            -11.8182   YY=            -11.7350   ZZ=            -12.3801
   XY=              0.0000   XZ=              0.0000   YZ=             -0.0000

 Normal termination of Gaussian 16 at Fri Sep 17 10:52:45 2021.
