 Gaussian 16, Revision C.01,
 Gaussian 16:  ES64L-G16RevC.01  3-Jul-2019

 ---------------------------------------
 #P wB97XD/6-311+G* NoSymm #P Field=Z-29
 ---------------------------------------

 -------
 TitleMe
 -------
 Symbolic Z-matrix:
 Charge =  1 Multiplicity = 1

                          Input orientation:
 ---------------------------------------------------------------------
 Center     Atomic      Atomic             Coordinates (Angstroms)
 Number     Number       Type             X           Y           Z
 ---------------------------------------------------------------------
      1          6           0        0.519300    1.233000   -0.031900
      2          6           0        1.944500    1.269200   -0.036700
      3          6           0        2.620400    0.092800   -0.025000
      4          6           0       -0.196000    0.030100    0.001000
      5          1           0       -0.020700    2.174200   -0.043400
      6          1           0        2.482800    2.208900   -0.036100
      7          1           0       -1.277700    0.039900    0.011700
      8          7           0        4.092100    0.095900    0.036600
      9          8           0        4.639300   -1.021700    0.144600
     10          8           0        4.664900    1.198400   -0.023300
     11          6           0        0.494300   -1.167100    0.021000
     12          1           0       -0.032500   -2.114900    0.054500
     13          6           0        1.962900   -1.216500   -0.021100
     14          1           0        2.443600   -1.963100    0.615100
     15         35           0        2.173000   -1.949100   -1.906200
 ---------------------------------------------------------------------

 SCF Done:  E(RwB97XD) =  -3010.53134504     A.U. after   19 cycles

 Alpha  occ. eigenvalues -- -483.31509 -62.86537 -56.66224 -56.65664 -56.65654
 Alpha  occ. eigenvalues --  -19.46250 -19.46230 -14.85677 -10.59292 -10.58191
 Alpha  occ. eigenvalues --  -10.57374 -10.57067 -10.53448 -10.52803  -9.02347
 Alpha  occ. eigenvalues --   -6.85009  -6.83167  -6.83138  -2.94917  -2.94431
 Alpha  occ. eigenvalues --   -2.94408  -2.92934  -2.92933  -1.49933  -1.32890
 Alpha  occ. eigenvalues --   -1.22526  -1.12975  -1.12548  -1.05002  -1.00408
 Alpha  occ. eigenvalues --   -0.95435  -0.90643  -0.84985  -0.80950  -0.80201
 Alpha  occ. eigenvalues --   -0.80094  -0.77971  -0.76226  -0.75655  -0.72128
 Alpha  occ. eigenvalues --   -0.68606  -0.67643  -0.63517  -0.60008  -0.57430
 Alpha  occ. eigenvalues --   -0.56901  -0.56509  -0.55948  -0.54828
 Alpha virt. eigenvalues --   -0.30215  -0.20423  -0.15896  -0.13112  -0.08673
 Alpha virt. eigenvalues --   -0.06114  -0.05741  -0.05410  -0.03906  -0.03194
 Alpha virt. eigenvalues --   -0.02656  -0.02023  -0.01732  -0.00804  -0.00044

 Mulliken charges:
               1
     1  C   -0.101925
     2  C    0.172180
     3  C   -0.079565
     4  C   -0.335107
     5  H    0.346021
     6  H    0.350885
     7  H    0.331591
     8  N   -0.234175
     9  O    0.088615
    10  O    0.070233
    11  C   -0.194753
    12  H    0.357703
    13  C   -0.347070
    14  H    0.420584
    15  Br   0.154784
 Sum of Mulliken charges =   1.00000

 Dipole moment (field-independent basis, Debye):
    X=              2.7409    Y=             -0.7900    Z=             -0.2308  Tot=              2.8618
 Quadrupole moment (field-independent basis, Debye-Ang):
   XX=            -67.8425   YY=            -51.3246   ZZ=            -62.8376
   XY=             -2.7387   XZ=             -1.4888   YZ=              1.9499

 Normal termination of Gaussian 16 at Thu May  2 14:19:19 2024.
