 Gaussian 16, Revision C.01,
 Gaussian 16:  ES64L-G16RevC.01  3-Jul-2019

 ---------------------------------------
 #P wB97XD/6-311+G* NoSymm #P Field=X-29
 ---------------------------------------

 -------
 TitleMe
 -------
 Symbolic Z-matrix:
 Charge =  1 Multiplicity = 1

                          Input orientation:
 ---------------------------------------------------------------------
 Center     Atomic      Atomic             Coordinates (Angstroms)
 Number     Number       Type             X           Y           Z
 ---------------------------------------------------------------------
      1          6           0        0.029500    1.339700    0.068200
      2          6           0        1.434800    1.286700    0.006400
      3          6           0        2.111800    0.051100   -0.005400
      4          6           0        1.445100   -1.137200    0.031200
      5          6           0       -0.687900    0.168200    0.110000
      6          1           0       -0.471300    2.298400    0.078100
      7          1           0        2.027300    2.196500   -0.032200
      8          1           0        1.989700   -2.076400    0.023200
      9          1           0       -1.771600    0.180400    0.158200
     10          7           0        3.586400    0.051000   -0.067500
     11          8           0        4.147100   -1.059700   -0.088100
     12          8           0        4.145000    1.163900   -0.090100
     13          6           0       -0.023600   -1.145800    0.083500
     14          1           0       -0.436700   -1.872500    0.788900
     15         35           0       -0.535900   -1.869700   -1.740800
 ---------------------------------------------------------------------

 SCF Done:  E(RwB97XD) =  -3010.53489087     A.U. after   19 cycles

 Alpha  occ. eigenvalues -- -483.30899 -62.85930 -56.65615 -56.65053 -56.65051
 Alpha  occ. eigenvalues --  -19.44176 -19.44105 -14.83716 -10.57868 -10.56804
 Alpha  occ. eigenvalues --  -10.56268 -10.56225 -10.56179 -10.52462  -9.01740
 Alpha  occ. eigenvalues --   -6.84396  -6.82557  -6.82543  -2.94306  -2.93817
 Alpha  occ. eigenvalues --   -2.93805  -2.92333  -2.92333  -1.47946  -1.30903
 Alpha  occ. eigenvalues --   -1.21953  -1.13344  -1.11088  -1.03920  -1.00022
 Alpha  occ. eigenvalues --   -0.94813  -0.90164  -0.84291  -0.79864  -0.79492
 Alpha  occ. eigenvalues --   -0.78532  -0.77567  -0.75302  -0.74445  -0.71650
 Alpha  occ. eigenvalues --   -0.68772  -0.66901  -0.63018  -0.59571  -0.56235
 Alpha  occ. eigenvalues --   -0.55350  -0.54799  -0.54291  -0.53851
 Alpha virt. eigenvalues --   -0.29039  -0.20052  -0.15152  -0.12456  -0.08725
 Alpha virt. eigenvalues --   -0.06106  -0.05423  -0.04542  -0.04130  -0.02578
 Alpha virt. eigenvalues --   -0.01998  -0.01758  -0.01272  -0.00741   0.00491

 Mulliken charges:
               1
     1  C   -0.569368
     2  C    0.505361
     3  C   -0.706928
     4  C    0.298744
     5  C   -0.004237
     6  H    0.327845
     7  H    0.371456
     8  H    0.377985
     9  H    0.337638
    10  N   -0.108417
    11  O    0.044146
    12  O    0.041067
    13  C   -0.474061
    14  H    0.399207
    15  Br   0.159564
 Sum of Mulliken charges =   1.00000

 Dipole moment (field-independent basis, Debye):
    X=              0.0360    Y=             -0.4894    Z=              0.0502  Tot=              0.4933
 Quadrupole moment (field-independent basis, Debye-Ang):
   XX=            -69.2421   YY=            -52.0841   ZZ=            -62.8329
   XY=              1.1586   XZ=              0.8889   YZ=              1.4627

 Normal termination of Gaussian 16 at Wed May  1 14:46:36 2024.
