 Gaussian 16, Revision C.01,
 Gaussian 16:  ES64L-G16RevC.01  3-Jul-2019

 --------------------------------------
 #P wB97XD/6-311+G* NoSymm #P Field=X+0
 --------------------------------------

 -------
 TitleMe
 -------
 Symbolic Z-matrix:
 Charge =  1 Multiplicity = 1

                          Input orientation:
 ---------------------------------------------------------------------
 Center     Atomic      Atomic             Coordinates (Angstroms)
 Number     Number       Type             X           Y           Z
 ---------------------------------------------------------------------
      1          6           0        0.519300    1.233000   -0.031900
      2          6           0        1.944500    1.269200   -0.036700
      3          6           0        2.620400    0.092800   -0.025000
      4          6           0       -0.196000    0.030100    0.001000
      5          1           0       -0.020700    2.174200   -0.043400
      6          1           0        2.482800    2.208900   -0.036100
      7          1           0       -1.277700    0.039900    0.011700
      8          7           0        4.092100    0.095900    0.036600
      9          8           0        4.639300   -1.021700    0.144600
     10          8           0        4.664900    1.198400   -0.023300
     11          6           0        0.494300   -1.167100    0.021000
     12          1           0       -0.032500   -2.114900    0.054500
     13          6           0        1.962900   -1.216500   -0.021100
     14          1           0        2.443600   -1.963100    0.615100
     15         35           0        2.173000   -1.949100   -1.906200
 ---------------------------------------------------------------------

 SCF Done:  E(RwB97XD) =  -3010.53190501     A.U. after   19 cycles

 Alpha  occ. eigenvalues -- -483.31026 -62.86047 -56.65742 -56.65171 -56.65160
 Alpha  occ. eigenvalues --  -19.46173 -19.46158 -14.85595 -10.59121 -10.57913
 Alpha  occ. eigenvalues --  -10.57193 -10.56856 -10.53281 -10.52644  -9.01851
 Alpha  occ. eigenvalues --   -6.84536  -6.82660  -6.82627  -2.94439  -2.93946
 Alpha  occ. eigenvalues --   -2.93919  -2.92418  -2.92417  -1.49857  -1.32817
 Alpha  occ. eigenvalues --   -1.22324  -1.12754  -1.12334  -1.04656  -1.00204
 Alpha  occ. eigenvalues --   -0.95242  -0.90476  -0.84869  -0.80823  -0.80057
 Alpha  occ. eigenvalues --   -0.79984  -0.77816  -0.76127  -0.75486  -0.71867
 Alpha  occ. eigenvalues --   -0.68428  -0.67469  -0.63232  -0.59707  -0.57344
 Alpha  occ. eigenvalues --   -0.56674  -0.56057  -0.55861  -0.54455
 Alpha virt. eigenvalues --   -0.29973  -0.20301  -0.15519  -0.12966  -0.08473
 Alpha virt. eigenvalues --   -0.06024  -0.05447  -0.04559  -0.04231  -0.03135
 Alpha virt. eigenvalues --   -0.02281  -0.01364  -0.01260  -0.00500   0.00642

 Mulliken charges:
               1
     1  C   -0.109510
     2  C    0.183237
     3  C   -0.074791
     4  C   -0.333275
     5  H    0.345383
     6  H    0.350243
     7  H    0.330620
     8  N   -0.240046
     9  O    0.088357
    10  O    0.069810
    11  C   -0.202738
    12  H    0.356656
    13  C   -0.358451
    14  H    0.411230
    15  Br   0.183274
 Sum of Mulliken charges =   1.00000

 Dipole moment (field-independent basis, Debye):
    X=              2.7820    Y=             -0.9055    Z=             -0.7509  Tot=              3.0205
 Quadrupole moment (field-independent basis, Debye-Ang):
   XX=            -67.8518   YY=            -51.1404   ZZ=            -62.1636
   XY=             -2.9703   XZ=             -2.5613   YZ=              2.4582

 Normal termination of Gaussian 16 at Thu May  2 14:18:34 2024.
