 Gaussian 16, Revision C.01,
 Gaussian 16:  ES64L-G16RevC.01  3-Jul-2019

 ----------------------------------------
 #P wB97XD/6-311+G* NoSymm #P Field=Y+145
 ----------------------------------------

 -------
 TitleMe
 -------
 Symbolic Z-matrix:
 Charge =  1 Multiplicity = 1

                          Input orientation:
 ---------------------------------------------------------------------
 Center     Atomic      Atomic             Coordinates (Angstroms)
 Number     Number       Type             X           Y           Z
 ---------------------------------------------------------------------
      1          6           0        0.029500    1.339700    0.068200
      2          6           0        1.434800    1.286700    0.006400
      3          6           0        2.111800    0.051100   -0.005400
      4          6           0        1.445100   -1.137200    0.031200
      5          6           0       -0.687900    0.168200    0.110000
      6          1           0       -0.471300    2.298400    0.078100
      7          1           0        2.027300    2.196500   -0.032200
      8          1           0        1.989700   -2.076400    0.023200
      9          1           0       -1.771600    0.180400    0.158200
     10          7           0        3.586400    0.051000   -0.067500
     11          8           0        4.147100   -1.059700   -0.088100
     12          8           0        4.145000    1.163900   -0.090100
     13          6           0       -0.023600   -1.145800    0.083500
     14          1           0       -0.436700   -1.872500    0.788900
     15         35           0       -0.535900   -1.869700   -1.740800
 ---------------------------------------------------------------------

 SCF Done:  E(RwB97XD) =  -3010.55061724     A.U. after   20 cycles

 Alpha  occ. eigenvalues -- -483.28992 -62.83985 -56.63706 -56.63096 -56.63092
 Alpha  occ. eigenvalues --  -19.45468 -19.45305 -14.84858 -10.57458 -10.56385
 Alpha  occ. eigenvalues --  -10.56382 -10.56203 -10.55829 -10.53368  -8.99767
 Alpha  occ. eigenvalues --   -6.82518  -6.80530  -6.80511  -2.92405  -2.91879
 Alpha  occ. eigenvalues --   -2.91862  -2.90273  -2.90273  -1.49157  -1.32144
 Alpha  occ. eigenvalues --   -1.21842  -1.12918  -1.11262  -1.02547  -1.00505
 Alpha  occ. eigenvalues --   -0.94606  -0.90315  -0.84932  -0.80344  -0.79970
 Alpha  occ. eigenvalues --   -0.79441  -0.77614  -0.75541  -0.75172  -0.71396
 Alpha  occ. eigenvalues --   -0.68615  -0.66961  -0.62804  -0.59036  -0.56713
 Alpha  occ. eigenvalues --   -0.55712  -0.55058  -0.53605  -0.53064
 Alpha virt. eigenvalues --   -0.28657  -0.20597  -0.14872  -0.13800  -0.11916
 Alpha virt. eigenvalues --   -0.09805  -0.06972  -0.06267  -0.05321  -0.03481
 Alpha virt. eigenvalues --   -0.02081  -0.01327  -0.01092  -0.00095   0.00321

 Mulliken charges:
               1
     1  C   -0.601087
     2  C    0.601919
     3  C   -0.802279
     4  C    0.351792
     5  C   -0.053896
     6  H    0.270286
     7  H    0.310493
     8  H    0.419639
     9  H    0.347050
    10  N   -0.103085
    11  O    0.105430
    12  O   -0.053646
    13  C   -0.508730
    14  H    0.440405
    15  Br   0.275707
 Sum of Mulliken charges =   1.00000

 Dipole moment (field-independent basis, Debye):
    X=             -1.2953    Y=             -4.7784    Z=             -0.5853  Tot=              4.9853
 Quadrupole moment (field-independent basis, Debye-Ang):
   XX=            -71.9902   YY=            -50.4007   ZZ=            -61.4502
   XY=             -3.3467   XZ=              1.5855   YZ=              3.5877

 Normal termination of Gaussian 16 at Wed May  1 15:10:33 2024.
