 Gaussian 16, Revision A.03,
 Gaussian 16:  ES64L-G16RevA.03 25-Dec-2016

 --------------------------------------------------------------------
 #p B3LYP/6-311+G** #p TD=(singlets,nstates=30)IOp(6/8=3) IOp(9/40=4)
 --------------------------------------------------------------------

 -------------------------------
 Scan Step 99, Bond Length 0.995
 -------------------------------
 Symbolic Z-matrix:
 Charge =  0 Multiplicity = 1

                         Standard orientation:
 ---------------------------------------------------------------------
 Center     Atomic      Atomic             Coordinates (Angstroms)
 Number     Number       Type             X           Y           Z
 ---------------------------------------------------------------------
      1          6           0        0.000000    0.000000   -0.423581
      2          1           0        0.000000    0.937260   -1.014931
      3          1           0       -0.000000   -0.937260   -1.014931
      4          8           0        0.000000   -0.000000    0.571419
 ---------------------------------------------------------------------

 SCF Done:  E(RB3LYP) =  -114.432652389     A.U. after    9 cycles

 Excitation energies and oscillator strengths:

 Excited State   1:      Singlet-A2     5.1291 eV  241.73 nm  f=0.0000  <S**2>=0.000
       3 -> 27         0.00299
       3 -> 36         0.00247
       3 -> 46         0.00168
       4 -> 27         0.00303
       4 -> 36        -0.00075
       4 -> 46        -0.00092
       5 ->  9         0.01580
       5 -> 13        -0.00881
       5 -> 17         0.00622
       5 -> 23        -0.00287
       5 -> 28         0.00354
       5 -> 31         0.00273
       5 -> 37         0.00400
       5 -> 43         0.00066
       5 -> 47         0.00010
       5 -> 52         0.00084
       6 -> 12        -0.00062
       6 -> 16         0.00166
       6 -> 18        -0.00132
       6 -> 22         0.00167
       6 -> 24         0.00100
       6 -> 29        -0.00063
       6 -> 33         0.00033
       6 -> 35         0.00053
       6 -> 40        -0.00025
       6 -> 42         0.00040
       6 -> 48         0.00064
       6 -> 50        -0.00017
       6 -> 53         0.00036
       7 -> 27         0.00069
       7 -> 36        -0.00052
       7 -> 46         0.00151
       8 ->  9         0.69909
       8 -> 13        -0.10143
       8 -> 17         0.02697
       8 -> 23        -0.01133
       8 -> 28         0.00643
       8 -> 31         0.00351
       8 -> 37        -0.00174
       8 -> 43        -0.00026
       8 -> 47        -0.00013
       8 -> 52         0.00122
       3 <- 27         0.00212
       3 <- 36         0.00210
       3 <- 46         0.00175
       4 <- 27         0.00373
       4 <- 36        -0.00029
       4 <- 46        -0.00086
       5 <-  9         0.00019
       5 <- 13        -0.00103
       5 <- 17        -0.00044
       5 <- 23         0.00043
       5 <- 28        -0.00031
       5 <- 31        -0.00112
       5 <- 37         0.00179
       5 <- 43         0.00042
       5 <- 47         0.00015
       5 <- 52         0.00021
       6 <- 12        -0.00097
       6 <- 16        -0.00419
       6 <- 18        -0.00230
       6 <- 22         0.00596
       6 <- 24        -0.00113
       6 <- 29         0.00209
       6 <- 33        -0.00118
       6 <- 35         0.00240
       6 <- 40        -0.00040
       6 <- 42         0.00096
       6 <- 48         0.00048
       6 <- 53         0.00097
       7 <- 27         0.00101
       7 <- 36        -0.00052
       7 <- 46         0.00118
       8 <-  9        -0.01433
       8 <- 13         0.00665
       8 <- 17        -0.00387
       8 <- 23         0.00065
       8 <- 28        -0.00046
       8 <- 31         0.00218
       8 <- 37        -0.00218
       8 <- 52         0.00037
 This state for optimization and/or second-order correction.
 Total Energy, E(TD-HF/TD-DFT) =  -114.244160138
 Copying the excited state density for this state as the 1-particle RhoCI density.

 Excited State   2:      Singlet-B2     6.3404 eV  195.55 nm  f=0.0671  <S**2>=0.000
       3 -> 12         0.00107
       3 -> 16         0.00033
       3 -> 18         0.00113
       3 -> 22        -0.00016
       3 -> 24         0.00125
       3 -> 29        -0.00014
       3 -> 35        -0.00019
       3 -> 50        -0.00012
       4 -> 12        -0.00516
       4 -> 16         0.00015
       4 -> 18         0.00230
       4 -> 22        -0.00309
       4 -> 24         0.00396
       4 -> 29        -0.00022
       4 -> 33        -0.00090
       4 -> 35         0.00088
       4 -> 40        -0.00030
       4 -> 42         0.00040
       5 -> 10        -0.00079
       5 -> 11        -0.00849
       5 -> 14         0.00626
       5 -> 15        -0.00144
       5 -> 19         0.00343
       5 -> 20        -0.00051
       5 -> 21         0.00386
       5 -> 25         0.00069
       5 -> 26        -0.00179
       5 -> 30         0.00251
       5 -> 32        -0.00028
       5 -> 34        -0.00024
       5 -> 38        -0.00058
       5 -> 39        -0.00024
       5 -> 41         0.00013
       5 -> 44        -0.00050
       5 -> 45        -0.00058
       5 -> 49         0.00028
       6 -> 27         0.00068
       6 -> 46         0.00079
       7 -> 12         0.00172
       7 -> 16        -0.00025
       7 -> 18         0.00424
       7 -> 22        -0.00262
       7 -> 24         0.00200
       7 -> 29        -0.00016
       7 -> 42        -0.00038
       7 -> 48         0.00036
       7 -> 50         0.00051
       8 -> 10         0.70575
       8 -> 11        -0.03516
       8 -> 14        -0.00654
       8 -> 15        -0.01074
       8 -> 19         0.01877
       8 -> 20         0.00953
       8 -> 21        -0.00617
       8 -> 25         0.00084
       8 -> 26        -0.00095
       8 -> 30         0.00035
       8 -> 32         0.00201
       8 -> 34         0.00189
       8 -> 38         0.00064
       8 -> 39         0.00057
       8 -> 41        -0.00019
       8 -> 44         0.00068
       8 -> 45        -0.00094
       8 -> 49         0.00017
       8 -> 54         0.00016
       3 <- 12         0.00032
       3 <- 16         0.00037
       3 <- 18         0.00055
       3 <- 22        -0.00024
       3 <- 24         0.00086
       3 <- 29        -0.00013
       3 <- 35        -0.00018
       4 <- 12         0.00035
       4 <- 16         0.00068
       4 <- 18         0.00274
       4 <- 22        -0.00188
       4 <- 24         0.00289
       4 <- 29        -0.00017
       4 <- 33        -0.00064
       4 <- 35         0.00062
       4 <- 40        -0.00027
       5 <- 10         0.00235
       5 <- 14         0.00471
       5 <- 15        -0.00141
       5 <- 19         0.00085
       5 <- 21         0.00211
       5 <- 25         0.00168
       5 <- 26        -0.00137
       5 <- 30         0.00086
       5 <- 32        -0.00055
       5 <- 34        -0.00030
       5 <- 38        -0.00045
       5 <- 39        -0.00017
       5 <- 41         0.00024
       5 <- 44        -0.00034
       5 <- 45        -0.00049
       5 <- 49         0.00025
       6 <- 27         0.00052
       6 <- 46         0.00067
       7 <- 12         0.00049
       7 <- 16        -0.00076
       7 <- 18         0.00183
       7 <- 22        -0.00099
       7 <- 24         0.00083
       7 <- 29         0.00050
       7 <- 33        -0.00016
       7 <- 35         0.00018
       7 <- 42        -0.00035
       7 <- 48         0.00031
       7 <- 50         0.00054
       8 <- 10        -0.00334
       8 <- 11        -0.00116
       8 <- 14        -0.01010
       8 <- 15         0.00075
       8 <- 19        -0.00068
       8 <- 20        -0.00036
       8 <- 21        -0.00358
       8 <- 25        -0.00298
       8 <- 26        -0.00040
       8 <- 30        -0.00062
       8 <- 32         0.00076
       8 <- 34         0.00162
       8 <- 38         0.00066
       8 <- 39         0.00047
       8 <- 44         0.00054
       8 <- 45        -0.00065
       8 <- 49         0.00020
       8 <- 51         0.00011

 Excited State   3:      Singlet-B2     7.1291 eV  173.91 nm  f=0.0205  <S**2>=0.000
       3 -> 12        -0.00016
       3 -> 16        -0.00068
       3 -> 18         0.00034
       3 -> 22         0.00020
       3 -> 24         0.00037
       3 -> 29         0.00128
       3 -> 33         0.00014
       3 -> 35        -0.00032
       3 -> 42        -0.00033
       3 -> 48         0.00022
       3 -> 50         0.00025
       4 -> 12         0.00311
       4 -> 16        -0.00221
       4 -> 18         0.00327
       4 -> 22        -0.00156
       4 -> 24         0.00347
       4 -> 29        -0.00107
       4 -> 33         0.00055
       4 -> 35        -0.00031
       4 -> 40        -0.00019
       4 -> 42        -0.00011
       4 -> 48         0.00016
       4 -> 50         0.00016
       5 -> 10        -0.00670
       5 -> 11         0.00030
       5 -> 14         0.00450
       5 -> 15        -0.00584
       5 -> 19        -0.00384
       5 -> 20        -0.00191
       5 -> 21         0.00113
       5 -> 25         0.00125
       5 -> 26         0.00113
       5 -> 30         0.00100
       5 -> 32        -0.00178
       5 -> 34        -0.00086
       5 -> 39         0.00057
       5 -> 41        -0.00085
       5 -> 45         0.00068
       5 -> 49        -0.00042
       5 -> 51        -0.00028
       6 -> 27        -0.00065
       6 -> 36        -0.00125
       6 -> 46        -0.00128
       7 -> 12        -0.00316
       7 -> 16        -0.00139
       7 -> 18        -0.00201
       7 -> 22         0.00145
       7 -> 29         0.00028
       7 -> 33        -0.00035
       7 -> 35         0.00137
       7 -> 40        -0.00045
       7 -> 42         0.00072
       7 -> 48        -0.00071
       7 -> 50        -0.00067
       7 -> 53         0.00014
       8 -> 10         0.03577
       8 -> 11         0.70523
       8 -> 14        -0.01401
       8 -> 15         0.01987
       8 -> 19        -0.02154
       8 -> 20         0.01356
       8 -> 21        -0.00213
       8 -> 25         0.00034
       8 -> 26         0.00076
       8 -> 30        -0.00145
       8 -> 34         0.00041
       8 -> 39         0.00024
       8 -> 41        -0.00143
       8 -> 45         0.00093
       8 -> 49        -0.00075
       8 -> 51        -0.00032
       8 -> 54        -0.00017
       3 <- 12         0.00029
       3 <- 16        -0.00042
       3 <- 18         0.00061
       3 <- 24         0.00045
       3 <- 29         0.00081
       3 <- 33         0.00020
       3 <- 35        -0.00036
       3 <- 42        -0.00028
       3 <- 48         0.00018
       3 <- 50         0.00015
       3 <- 53        -0.00022
       4 <- 12         0.00034
       4 <- 16         0.00011
       4 <- 18         0.00116
       4 <- 22        -0.00125
       4 <- 24         0.00150
       4 <- 29        -0.00044
       4 <- 33         0.00053
       4 <- 40        -0.00017
       4 <- 42        -0.00016
       4 <- 48         0.00010
       4 <- 50         0.00022
       5 <- 10         0.00134
       5 <- 11        -0.00058
       5 <- 14         0.00204
       5 <- 15        -0.00048
       5 <- 19         0.00068
       5 <- 21         0.00096
       5 <- 25         0.00101
       5 <- 26         0.00081
       5 <- 30         0.00077
       5 <- 32        -0.00030
       5 <- 34        -0.00124
       5 <- 38         0.00015
       5 <- 39         0.00034
       5 <- 41        -0.00087
       5 <- 44        -0.00011
       5 <- 45         0.00066
       5 <- 49        -0.00029
       5 <- 51        -0.00027
       6 <- 27        -0.00022
       6 <- 36        -0.00102
       6 <- 46        -0.00110
       7 <- 12        -0.00036
       7 <- 18        -0.00030
       7 <- 22         0.00036
       7 <- 33        -0.00015
       7 <- 35         0.00099
       7 <- 40        -0.00034
       7 <- 42         0.00051
       7 <- 48        -0.00060
       7 <- 50        -0.00059
       8 <- 10        -0.00115
       8 <- 11         0.00081
       8 <- 14        -0.00511
       8 <- 15         0.00087
       8 <- 19         0.00248
       8 <- 20        -0.00161
       8 <- 21        -0.00231
       8 <- 25        -0.00015
       8 <- 26         0.00126
       8 <- 30        -0.00085
       8 <- 32         0.00117
       8 <- 38        -0.00024
       8 <- 41        -0.00120
       8 <- 45         0.00077
       8 <- 49        -0.00048
       8 <- 51        -0.00029

 Excited State   4:      Singlet-A1     7.2692 eV  170.56 nm  f=0.0516  <S**2>=0.000
       3 -> 10         0.00149
       3 -> 11        -0.00097
       3 -> 14         0.00034
       3 -> 15        -0.00047
       3 -> 19         0.00115
       3 -> 20         0.00073
       3 -> 26        -0.00039
       3 -> 30         0.00119
       3 -> 32        -0.00031
       3 -> 34        -0.00022
       3 -> 38        -0.00034
       3 -> 39         0.00018
       3 -> 41        -0.00019
       3 -> 49        -0.00013
       3 -> 51        -0.00034
       3 -> 54        -0.00021
       4 -> 10         0.00551
       4 -> 11         0.00908
       4 -> 14         0.00609
       4 -> 15        -0.00076
       4 -> 19         0.00065
       4 -> 20         0.00608
       4 -> 21         0.00253
       4 -> 25         0.00705
       4 -> 26        -0.00082
       4 -> 30        -0.00059
       4 -> 32        -0.00028
       4 -> 34        -0.00089
       4 -> 38        -0.00011
       4 -> 39        -0.00051
       4 -> 41         0.00021
       4 -> 44         0.00011
       4 -> 45        -0.00029
       4 -> 49        -0.00023
       5 -> 12         0.00777
       5 -> 16        -0.00333
       5 -> 18         0.01101
       5 -> 22        -0.00037
       5 -> 24         0.00475
       5 -> 29         0.00038
       5 -> 33        -0.00016
       5 -> 35         0.00088
       5 -> 42        -0.00018
       5 -> 50        -0.00036
       5 -> 53        -0.00015
       6 ->  9         0.00989
       6 -> 13         0.00580
       6 -> 17         0.00497
       6 -> 23         0.00475
       6 -> 28         0.00027
       6 -> 31         0.00085
       6 -> 37         0.00054
       6 -> 43         0.00060
       6 -> 47        -0.00037
       7 -> 10         0.01339
       7 -> 11        -0.00463
       7 -> 14         0.00378
       7 -> 15         0.00144
       7 -> 19         0.00619
       7 -> 20         0.00408
       7 -> 21         0.00168
       7 -> 25         0.00224
       7 -> 26        -0.00054
       7 -> 30        -0.00043
       7 -> 32         0.00056
       7 -> 34        -0.00079
       7 -> 39        -0.00014
       7 -> 44         0.00011
       7 -> 49        -0.00019
       7 -> 51         0.00054
       8 -> 12         0.70562
       8 -> 16        -0.03142
       8 -> 18         0.02075
       8 -> 22         0.00494
       8 -> 24         0.00167
       8 -> 29         0.00227
       8 -> 33         0.00151
       8 -> 35        -0.00230
       8 -> 40        -0.00015
       8 -> 42         0.00114
       8 -> 48        -0.00037
       8 -> 50        -0.00023
       8 -> 53        -0.00017
       3 <- 10         0.00058
       3 <- 11        -0.00028
       3 <- 14         0.00022
       3 <- 15        -0.00018
       3 <- 19         0.00057
       3 <- 20         0.00033
       3 <- 21         0.00013
       3 <- 25         0.00021
       3 <- 26        -0.00018
       3 <- 30         0.00072
       3 <- 32        -0.00025
       3 <- 34        -0.00011
       3 <- 38        -0.00027
       3 <- 39         0.00015
       3 <- 41        -0.00017
       3 <- 45         0.00012
       3 <- 49        -0.00015
       3 <- 51        -0.00029
       3 <- 54        -0.00019
       4 <- 10         0.00530
       4 <- 11         0.00280
       4 <- 14         0.00447
       4 <- 15        -0.00105
       4 <- 19         0.00050
       4 <- 20         0.00343
       4 <- 21         0.00100
       4 <- 25         0.00410
       4 <- 26        -0.00041
       4 <- 32        -0.00057
       4 <- 34        -0.00096
       4 <- 38        -0.00018
       4 <- 39        -0.00048
       4 <- 45        -0.00027
       4 <- 49        -0.00020
       5 <- 12         0.00275
       5 <- 16         0.00011
       5 <- 18         0.00441
       5 <- 22         0.00017
       5 <- 24         0.00257
       5 <- 33        -0.00032
       5 <- 35         0.00079
       5 <- 42        -0.00016
       5 <- 50        -0.00026
       5 <- 53        -0.00014
       6 <-  9         0.00241
       6 <- 13         0.00192
       6 <- 17         0.00193
       6 <- 23         0.00264
       6 <- 28         0.00011
       6 <- 31         0.00063
       6 <- 37         0.00043
       6 <- 43         0.00051
       6 <- 47        -0.00032
       7 <- 10         0.00412
       7 <- 11        -0.00081
       7 <- 14         0.00170
       7 <- 15         0.00048
       7 <- 19         0.00240
       7 <- 20         0.00218
       7 <- 21         0.00066
       7 <- 25         0.00126
       7 <- 26        -0.00054
       7 <- 30        -0.00014
       7 <- 32         0.00030
       7 <- 34        -0.00061
       7 <- 39        -0.00022
       7 <- 41         0.00014
       7 <- 51         0.00049
       8 <- 12        -0.00247
       8 <- 16        -0.00822
       8 <- 18        -0.00565
       8 <- 22         0.00033
       8 <- 24        -0.00238
       8 <- 29         0.00079
       8 <- 33         0.00097
       8 <- 35        -0.00145
       8 <- 40        -0.00018
       8 <- 42         0.00095
       8 <- 48        -0.00044
       8 <- 50        -0.00020
       8 <- 53        -0.00018

 Excited State   5:      Singlet-A2     7.8216 eV  158.51 nm  f=0.0000  <S**2>=0.000
       3 -> 27        -0.00103
       3 -> 36        -0.00090
       3 -> 46        -0.00050
       4 -> 27        -0.00013
       4 -> 36         0.00062
       4 -> 46         0.00016
       5 ->  9        -0.00988
       5 -> 13         0.00267
       5 -> 17         0.00458
       5 -> 23        -0.00037
       5 -> 31        -0.00202
       5 -> 37        -0.00170
       5 -> 43        -0.00028
       5 -> 52        -0.00024
       6 -> 12        -0.00044
       6 -> 16        -0.00195
       6 -> 18         0.00135
       6 -> 22        -0.00089
       6 -> 24        -0.00025
       6 -> 29         0.00024
       6 -> 35        -0.00024
       6 -> 42        -0.00020
       6 -> 48        -0.00020
       6 -> 53        -0.00012
       7 -> 36         0.00027
       7 -> 46        -0.00053
       8 ->  9         0.10168
       8 -> 13         0.69933
       8 -> 17         0.00712
       8 -> 23         0.02073
       8 -> 28        -0.00069
       8 -> 31        -0.00126
       8 -> 37         0.00026
       8 -> 47         0.00018
       8 -> 52        -0.00030
       3 <- 27        -0.00052
       3 <- 36        -0.00070
       3 <- 46        -0.00060
       4 <- 27        -0.00062
       4 <- 46         0.00017
       5 <-  9        -0.00026
       5 <- 13        -0.00012
       5 <- 17         0.00063
       5 <- 23        -0.00010
       5 <- 37        -0.00046
       5 <- 43        -0.00011
       6 <- 12        -0.00061
       6 <- 16        -0.00058
       6 <- 18         0.00060
       6 <- 22        -0.00178
       6 <- 24        -0.00013
       6 <- 29         0.00011
       6 <- 33         0.00056
       6 <- 35        -0.00098
       6 <- 40         0.00017
       6 <- 42        -0.00053
       6 <- 53        -0.00024
       7 <- 27        -0.00019
       7 <- 36         0.00024
       7 <- 46        -0.00021
       8 <-  9         0.00465
       8 <- 13         0.00092
       8 <- 17         0.00035
       8 <- 23        -0.00038
       8 <- 28         0.00015
       8 <- 31        -0.00041
       8 <- 37         0.00048
       8 <- 52        -0.00013

 Excited State   6:      Singlet-B2    10.1690 eV  121.92 nm  f=0.2439  <S**2>=0.000
       3 -> 12        -0.00040
       3 -> 16        -0.00194

 The electronic state is 1-A1.
 Alpha  occ. eigenvalues --  -19.13929 -10.24549  -1.20378  -0.61231  -0.56089
 Alpha  occ. eigenvalues --   -0.49958  -0.49868  -0.25904
 Alpha virt. eigenvalues --   -0.00732   0.01303   0.04272   0.04382   0.07485
 Alpha virt. eigenvalues --    0.13843   0.18006   0.20155   0.21982   0.22553
 Alpha virt. eigenvalues --    0.26835   0.35830   0.49370   0.51055   0.51613

 Mulliken charges:
               1
     1  C    0.116915
     2  H    0.044386
     3  H    0.044386
     4  O   -0.205686
 Sum of Mulliken charges =   0.00000

 Dipole moment (field-independent basis, Debye):
    X=              0.0000    Y=             -0.0000    Z=             -1.2912  Tot=              1.2912
 Quadrupole moment (field-independent basis, Debye-Ang):
   XX=            -11.1054   YY=            -12.0097   ZZ=            -12.9654
   XY=             -0.0000   XZ=             -0.0000   YZ=              0.0000

 Normal termination of Gaussian 16 at Fri Sep 17 10:52:38 2021.
