 Gaussian 16, Revision A.03,
 Gaussian 16:  ES64L-G16RevA.03 25-Dec-2016

 --------------------------------------------------------------------
 #p B3LYP/6-311+G** #p TD=(singlets,nstates=30)IOp(6/8=3) IOp(9/40=4)
 --------------------------------------------------------------------

 -------------------------------
 Scan Step 152, Bond Length 1.26
 -------------------------------
 Symbolic Z-matrix:
 Charge =  0 Multiplicity = 1

                         Standard orientation:
 ---------------------------------------------------------------------
 Center     Atomic      Atomic             Coordinates (Angstroms)
 Number     Number       Type             X           Y           Z
 ---------------------------------------------------------------------
      1          6           0        0.000000   -0.000000   -0.556081
      2          1           0        0.000000    0.937260   -1.147431
      3          1           0       -0.000000   -0.937260   -1.147431
      4          8           0        0.000000    0.000000    0.703919
 ---------------------------------------------------------------------

 SCF Done:  E(RB3LYP) =  -114.537014186     A.U. after    9 cycles

 Excitation energies and oscillator strengths:

 Excited State   1:      Singlet-A2     3.6231 eV  342.20 nm  f=0.0000  <S**2>=0.000
       3 -> 27         0.00230
       3 -> 38         0.00193
       3 -> 45         0.00264
       4 -> 27         0.00170
       4 -> 38        -0.00049
       4 -> 45        -0.00135
       5 ->  9         0.02006
       5 -> 13        -0.00219
       5 -> 17         0.00535
       5 -> 23         0.00027
       5 -> 29         0.00436
       5 -> 31        -0.00189
       5 -> 37         0.00315
       5 -> 44         0.00058
       5 -> 47         0.00014
       5 -> 52         0.00072
       6 -> 27        -0.00024
       6 -> 38        -0.00086
       6 -> 45         0.00177
       7 -> 12        -0.00062
       7 -> 15         0.00312
       7 -> 18        -0.00298
       7 -> 22         0.00048
       7 -> 25         0.00142
       7 -> 30        -0.00098
       7 -> 33         0.00044
       7 -> 35         0.00021
       7 -> 40         0.00020
       7 -> 42        -0.00011
       7 -> 49         0.00028
       7 -> 50         0.00033
       7 -> 53         0.00047
       8 ->  9         0.70592
       8 -> 13        -0.03694
       8 -> 17         0.02277
       8 -> 23        -0.00946
       8 -> 29         0.00962
       8 -> 31        -0.00208
       8 -> 37         0.00011
       8 -> 47        -0.00026
       8 -> 52         0.00175
       3 <- 27         0.00146
       3 <- 38         0.00159
       3 <- 45         0.00273
       4 <- 27         0.00250
       4 <- 45        -0.00113
       5 <-  9        -0.00050
       5 <- 13        -0.00080
       5 <- 17        -0.00101
       5 <- 23         0.00052
       5 <- 29        -0.00070
       5 <- 31         0.00081
       5 <- 37         0.00153
       5 <- 44         0.00023
       5 <- 47         0.00015
       5 <- 52         0.00019
       6 <- 27         0.00035
       6 <- 38        -0.00076
       6 <- 45         0.00138
       7 <- 12        -0.00069
       7 <- 15        -0.00769
       7 <- 18         0.00070
       7 <- 22         0.00742
       7 <- 30         0.00372
       7 <- 33        -0.00126
       7 <- 35         0.00226
       7 <- 40         0.00094
       7 <- 50         0.00022
       7 <- 53         0.00132
       8 <-  9        -0.02667
       8 <- 13         0.00261
       8 <- 17        -0.00458
       8 <- 23         0.00078
       8 <- 29        -0.00114
       8 <- 31        -0.00070
       8 <- 37        -0.00129
       8 <- 52         0.00050
 This state for optimization and/or second-order correction.
 Total Energy, E(TD-HF/TD-DFT) =  -114.403866557
 Copying the excited state density for this state as the 1-particle RhoCI density.

 Excited State   2:      Singlet-B2     6.9153 eV  179.29 nm  f=0.0237  <S**2>=0.000
       3 -> 12         0.00159
       3 -> 15         0.00069
       3 -> 18         0.00123
       3 -> 22        -0.00033
       3 -> 25         0.00125
       3 -> 33         0.00023
       3 -> 35        -0.00046
       3 -> 40        -0.00015
       4 -> 12        -0.00281
       4 -> 15         0.00195
       4 -> 18         0.00195
       4 -> 22        -0.00327
       4 -> 25         0.00321
       4 -> 30         0.00033
       4 -> 33        -0.00041
       4 -> 35         0.00052
       4 -> 40         0.00045
       4 -> 42        -0.00012
       5 -> 10        -0.00761
       5 -> 11        -0.00786
       5 -> 14         0.00702
       5 -> 16        -0.00073
       5 -> 19        -0.00119
       5 -> 20         0.00273
       5 -> 21         0.00586
       5 -> 24        -0.00034
       5 -> 26         0.00228
       5 -> 28         0.00106
       5 -> 32        -0.00101
       5 -> 34        -0.00100
       5 -> 36        -0.00018
       5 -> 39        -0.00027
       5 -> 41        -0.00043
       5 -> 43        -0.00051
       5 -> 46        -0.00027
       5 -> 54         0.00012
       6 -> 12        -0.00039
       6 -> 15         0.00148
       6 -> 18         0.00162
       6 -> 22        -0.00239
       6 -> 25         0.00105
       6 -> 30        -0.00053
       6 -> 33        -0.00025
       6 -> 35         0.00048
       6 -> 42        -0.00018
       6 -> 49         0.00046
       6 -> 50        -0.00026
       7 -> 27         0.00011
       7 -> 38        -0.00062
       7 -> 45         0.00031
       8 -> 10         0.70268
       8 -> 11        -0.07360
       8 -> 14         0.01700
       8 -> 16        -0.00504
       8 -> 19         0.00625
       8 -> 20         0.01660
       8 -> 21        -0.00260
       8 -> 26         0.00272
       8 -> 28         0.00089
       8 -> 32         0.00099
       8 -> 34         0.00095
       8 -> 36         0.00034
       8 -> 39         0.00034
       8 -> 41        -0.00021
       8 -> 43         0.00060
       8 -> 46        -0.00049
       8 -> 48         0.00015
       8 -> 51        -0.00011
       8 -> 54         0.00020
       3 <- 12         0.00037
       3 <- 15         0.00053
       3 <- 18         0.00046
       3 <- 22        -0.00049
       3 <- 25         0.00071
       3 <- 30        -0.00011
       3 <- 33         0.00019
       3 <- 35        -0.00041
       3 <- 40        -0.00017
       3 <- 49         0.00013
       4 <- 12         0.00077
       4 <- 15         0.00195
       4 <- 18         0.00186
       4 <- 22        -0.00203
       4 <- 25         0.00219
       4 <- 30         0.00024
       4 <- 33        -0.00021
       4 <- 35         0.00026
       4 <- 40         0.00012
       4 <- 42        -0.00023
       4 <- 50        -0.00013
       5 <- 10         0.00232
       5 <- 11        -0.00024
       5 <- 14         0.00473
       5 <- 16        -0.00062
       5 <- 19        -0.00020
       5 <- 20         0.00083
       5 <- 21         0.00189
       5 <- 24        -0.00204
       5 <- 26         0.00148
       5 <- 28         0.00013
       5 <- 32        -0.00073
       5 <- 34        -0.00092
       5 <- 36        -0.00026
       5 <- 39        -0.00015
       5 <- 41        -0.00024
       5 <- 43        -0.00039
       5 <- 46        -0.00024
       6 <- 15        -0.00017
       6 <- 18         0.00105
       6 <- 22        -0.00058
       6 <- 25         0.00035
       6 <- 30         0.00032
       6 <- 33        -0.00031
       6 <- 35         0.00055
       6 <- 42        -0.00016
       6 <- 49         0.00038
       6 <- 50        -0.00027
       6 <- 53         0.00015
       7 <- 27         0.00012
       7 <- 38        -0.00046
       7 <- 45         0.00029
       8 <- 10        -0.00156
       8 <- 11        -0.00054
       8 <- 14        -0.00477
       8 <- 16        -0.00050
       8 <- 19         0.00010
       8 <- 20        -0.00067
       8 <- 21        -0.00162
       8 <- 24         0.00202
       8 <- 26        -0.00080
       8 <- 28        -0.00048
       8 <- 32         0.00100
       8 <- 36         0.00032
       8 <- 39         0.00025
       8 <- 43         0.00039
       8 <- 46        -0.00030

 Excited State   3:      Singlet-B2     7.6781 eV  161.48 nm  f=0.0271  <S**2>=0.000
       3 -> 12        -0.00034
       3 -> 15        -0.00093
       3 -> 18         0.00103
       3 -> 22         0.00048
       3 -> 30         0.00240
       3 -> 33         0.00015
       3 -> 35        -0.00058
       3 -> 40        -0.00050
       3 -> 49         0.00056
       3 -> 50        -0.00019
       4 -> 12         0.00254
       4 -> 15         0.00031
       4 -> 18         0.00201
       4 -> 22        -0.00149
       4 -> 25         0.00286
       4 -> 30        -0.00135
       4 -> 33         0.00049
       4 -> 35        -0.00057
       4 -> 42        -0.00011
       4 -> 49         0.00024
       5 -> 10        -0.00614
       5 -> 11        -0.00021
       5 -> 14         0.00954
       5 -> 16        -0.00695
       5 -> 19        -0.00107
       5 -> 20        -0.00480
       5 -> 21         0.00218
       5 -> 24        -0.00088
       5 -> 26         0.00145
       5 -> 28         0.00157
       5 -> 32        -0.00015
       5 -> 34        -0.00091
       5 -> 36        -0.00035
       5 -> 39         0.00044
       5 -> 41        -0.00069
       5 -> 43         0.00018
       5 -> 46         0.00090
       5 -> 51        -0.00042
       6 -> 12        -0.00291
       6 -> 15        -0.00154
       6 -> 18        -0.00077
       6 -> 22         0.00115
       6 -> 25         0.00017
       6 -> 30         0.00113
       6 -> 33        -0.00055
       6 -> 35         0.00149
       6 -> 40         0.00110
       6 -> 49        -0.00125
       6 -> 50         0.00033
       6 -> 53         0.00011
       7 -> 27         0.00016
       7 -> 38        -0.00085
       7 -> 45        -0.00195
       8 -> 10         0.07383
       8 -> 11         0.70223
       8 -> 14        -0.00284
       8 -> 16         0.00915
       8 -> 19        -0.03357
       8 -> 20         0.00160
       8 -> 21        -0.00292
       8 -> 24         0.00013
       8 -> 26        -0.00084
       8 -> 28         0.00185
       8 -> 32         0.00013
       8 -> 34        -0.00020
       8 -> 36        -0.00019
       8 -> 39        -0.00025
       8 -> 41        -0.00113
       8 -> 43         0.00037
       8 -> 46         0.00224
       8 -> 48        -0.00012
       8 -> 51        -0.00105
       3 <- 12         0.00034
       3 <- 15        -0.00029
       3 <- 18         0.00098
       3 <- 25         0.00024
       3 <- 30         0.00131
       3 <- 33         0.00026
       3 <- 35        -0.00061
       3 <- 40        -0.00046
       3 <- 49         0.00050
       3 <- 50        -0.00013
       3 <- 53        -0.00032
       4 <- 12         0.00031
       4 <- 15         0.00083
       4 <- 18         0.00045
       4 <- 22        -0.00115
       4 <- 25         0.00121
       4 <- 30        -0.00069
       4 <- 33         0.00045
       4 <- 35        -0.00027
       4 <- 42        -0.00011
       4 <- 49         0.00018
       5 <- 10         0.00121
       5 <- 11        -0.00132
       5 <- 14         0.00271
       5 <- 16        -0.00043
       5 <- 19         0.00135
       5 <- 20        -0.00044
       5 <- 21         0.00079
       5 <- 24        -0.00140
       5 <- 28         0.00066
       5 <- 32        -0.00093
       5 <- 36         0.00014
       5 <- 39         0.00011
       5 <- 41        -0.00072
       5 <- 46         0.00086
       5 <- 48        -0.00013
       5 <- 51        -0.00030
       6 <- 12        -0.00029
       6 <- 15        -0.00096
       6 <- 18         0.00029
       6 <- 22         0.00086
       6 <- 25        -0.00014
       6 <- 30         0.00103
       6 <- 33        -0.00045
       6 <- 35         0.00128
       6 <- 40         0.00087
       6 <- 49        -0.00102
       6 <- 50         0.00026
       7 <- 27         0.00032
       7 <- 38        -0.00068
       7 <- 45        -0.00163
       8 <- 10        -0.00077
       8 <- 11        -0.00156
       8 <- 14        -0.00362
       8 <- 16         0.00042
       8 <- 19         0.00503
       8 <- 20        -0.00022
       8 <- 21        -0.00197
       8 <- 24        -0.00044
       8 <- 26        -0.00166
       8 <- 28         0.00053
       8 <- 32        -0.00123
       8 <- 34         0.00156
       8 <- 39        -0.00067
       8 <- 41        -0.00104
       8 <- 43         0.00018
       8 <- 46         0.00179
       8 <- 48        -0.00029
       8 <- 51        -0.00070

 Excited State   4:      Singlet-A1     7.9194 eV  156.56 nm  f=0.0418  <S**2>=0.000
       3 -> 10         0.00216
       3 -> 11        -0.00043
       3 -> 14         0.00124
       3 -> 19        -0.00165
       3 -> 20         0.00218
       3 -> 21         0.00104
       3 -> 24         0.00081
       3 -> 26         0.00131
       3 -> 28         0.00085
       3 -> 32         0.00015
       3 -> 34        -0.00082
       3 -> 36        -0.00016
       3 -> 41        -0.00019
       3 -> 46         0.00019
       3 -> 48        -0.00030
       3 -> 51        -0.00015
       3 -> 54        -0.00017
       4 -> 10         0.00485
       4 -> 11         0.00442
       4 -> 14         0.00452
       4 -> 16         0.00064
       4 -> 19         0.00024
       4 -> 20         0.00315
       4 -> 21        -0.00041
       4 -> 24        -0.00687
       4 -> 26         0.00216
       4 -> 28        -0.00029
       4 -> 32        -0.00062
       4 -> 34         0.00022
       4 -> 43         0.00016
       4 -> 46        -0.00020
       4 -> 51        -0.00013
       5 -> 12         0.00562
       5 -> 15         0.00336
       5 -> 18         0.00924
       5 -> 22        -0.00260
       5 -> 25         0.00549
       5 -> 30        -0.00033
       5 -> 33        -0.00021
       5 -> 35         0.00074
       5 -> 50         0.00016
       5 -> 53        -0.00012
       6 -> 10         0.01071
       6 -> 11        -0.00243
       6 -> 14         0.00403
       6 -> 16        -0.00025
       6 -> 19         0.00206
       6 -> 20         0.00212
       6 -> 21        -0.00113
       6 -> 24        -0.00462
       6 -> 26        -0.00046
       6 -> 28        -0.00228
       6 -> 32        -0.00027
       6 -> 34        -0.00013
       6 -> 39         0.00020
       6 -> 43         0.00015
       6 -> 48         0.00071
       6 -> 51         0.00019
       6 -> 54        -0.00012
       7 ->  9         0.03201
       7 -> 13         0.01215
       7 -> 17         0.00068
       7 -> 23         0.00517
       7 -> 29        -0.00087
       7 -> 31        -0.00098
       7 -> 37         0.00058
       7 -> 44         0.00061
       7 -> 47        -0.00032
       8 -> 12         0.70538
       8 -> 15         0.00101
       8 -> 18         0.02947
       8 -> 22         0.00251
       8 -> 25         0.00469
       8 -> 30        -0.00078
       8 -> 33         0.00170
       8 -> 35        -0.00201
       8 -> 40         0.00038
       8 -> 49        -0.00047
       8 -> 50         0.00025
       8 -> 53        -0.00025
       3 <- 10         0.00066
       3 <- 11         0.00035
       3 <- 14         0.00064
       3 <- 16         0.00015
       3 <- 19        -0.00103
       3 <- 20         0.00095
       3 <- 21         0.00070
       3 <- 24         0.00022
       3 <- 26         0.00090
       3 <- 28         0.00056
       3 <- 32         0.00026
       3 <- 34        -0.00056
       3 <- 36        -0.00011
       3 <- 41        -0.00011
       3 <- 46         0.00027
       3 <- 48        -0.00024
       3 <- 51        -0.00013
       3 <- 54        -0.00015
       4 <- 10         0.00398
       4 <- 11         0.00085
       4 <- 14         0.00331
       4 <- 20         0.00182
       4 <- 21        -0.00039
       4 <- 24        -0.00370
       4 <- 26         0.00132
       4 <- 32        -0.00081
       4 <- 34        -0.00019
       4 <- 41        -0.00012
       4 <- 43         0.00012
       4 <- 46        -0.00014
       4 <- 51        -0.00012
       5 <- 12         0.00272
       5 <- 15         0.00297
       5 <- 18         0.00329
       5 <- 22        -0.00100
       5 <- 25         0.00298
       5 <- 30        -0.00018
       5 <- 33        -0.00036
       5 <- 35         0.00066
       5 <- 53        -0.00010
       6 <- 10         0.00253
       6 <- 14         0.00152
       6 <- 16        -0.00013
       6 <- 19         0.00051
       6 <- 20         0.00095
       6 <- 21        -0.00073
       6 <- 24        -0.00223
       6 <- 28        -0.00148
       6 <- 32        -0.00034
       6 <- 34        -0.00017
       6 <- 46        -0.00016
       6 <- 48         0.00058
       6 <- 51         0.00022
       6 <- 54        -0.00010
       7 <-  9        -0.00198
       7 <- 13         0.00248
       7 <- 17        -0.00021
       7 <- 23         0.00260
       7 <- 29        -0.00069
       7 <- 31        -0.00065
       7 <- 37         0.00045
       7 <- 44         0.00052
       7 <- 47        -0.00028
       8 <- 12        -0.00043
       8 <- 15        -0.00389
       8 <- 18        -0.00163
       8 <- 22         0.00018
       8 <- 25        -0.00133
       8 <- 30        -0.00113
       8 <- 33         0.00064
       8 <- 35        -0.00075
       8 <- 40         0.00045
       8 <- 42         0.00011
       8 <- 49        -0.00046
       8 <- 50         0.00015
       8 <- 53        -0.00025

 Excited State   5:      Singlet-A2     8.4368 eV  146.96 nm  f=0.0000  <S**2>=0.000
       3 -> 27        -0.00039
       3 -> 38        -0.00034
       3 -> 45        -0.00015
       4 -> 27         0.00015
       4 -> 38         0.00044
       5 ->  9        -0.00139
       5 -> 13        -0.00583
       5 -> 17         0.00664
       5 -> 23        -0.00225
       5 -> 29        -0.00023
       5 -> 31         0.00124
       5 -> 37        -0.00085
       5 -> 44        -0.00018
       6 -> 27         0.00023
       6 -> 38         0.00030
       6 -> 45        -0.00016
       7 -> 12         0.00023
       7 -> 15        -0.00193
       7 -> 18         0.00203
       7 -> 22        -0.00075
       7 -> 35        -0.00012
       8 ->  9         0.03636
       8 -> 13         0.70557
       8 -> 17         0.02267
       8 -> 23         0.01577
       8 -> 29         0.00021
       8 -> 31         0.00175
       8 -> 37        -0.00041
       8 -> 47         0.00016
       3 <- 38        -0.00020
       3 <- 45        -0.00022
       5 <-  9        -0.00042
       5 <- 13        -0.00031
       5 <- 17         0.00046
       5 <- 37        -0.00018
       6 <- 38         0.00018
       7 <- 12        -0.00052
       7 <- 15        -0.00109
       7 <- 18         0.00079
       7 <- 22        -0.00083
       7 <- 25        -0.00043
       7 <- 30         0.00024
       7 <- 33         0.00033
       7 <- 35        -0.00053
       7 <- 40        -0.00033
       8 <-  9         0.00119
       8 <- 13         0.00117
       8 <- 17         0.00024
       8 <- 23        -0.00011
       8 <- 37         0.00010

 Excited State   6:      Singlet-B1     8.4453 eV  146.81 nm  f=0.0011  <S**2>=0.000
       3 ->  9        -0.03334
       3 -> 13         0.00516
       3 -> 17        -0.00708
       3 -> 23         0.00408
       3 -> 29        -0.00263
       3 -> 31        -0.00021
       3 -> 44         0.00066
       3 -> 47         0.00013
       3 -> 52         0.00113
       4 ->  9         0.01691
       4 -> 13        -0.00277
       4 -> 17         0.00100
       4 -> 23        -0.00249
       4 -> 31        -0.00255
       4 -> 37        -0.00039
       4 -> 47        -0.00163
       4 -> 52        -0.00098
       5 -> 27        -0.00177
       5 -> 38         0.00214
       5 -> 45         0.00296
       6 ->  9         0.70493
       6 -> 13        -0.03588
       6 -> 17         0.02306
       6 -> 23        -0.01246

 The electronic state is 1-A1.
 Alpha  occ. eigenvalues --  -19.15479 -10.28806  -1.04685  -0.65422  -0.49956
 Alpha  occ. eigenvalues --   -0.45726  -0.39694  -0.28530
 Alpha virt. eigenvalues --   -0.07923   0.00602   0.03774   0.04228   0.06368
 Alpha virt. eigenvalues --    0.12653   0.17194   0.18698   0.21929   0.23394
 Alpha virt. eigenvalues --    0.26048   0.31609   0.43999   0.45484   0.50920

 Mulliken charges:
               1
     1  C    0.005372
     2  H    0.126040
     3  H    0.126040
     4  O   -0.257452
 Sum of Mulliken charges =   0.00000

 Dipole moment (field-independent basis, Debye):
    X=             -0.0000    Y=              0.0000    Z=             -2.7359  Tot=              2.7359
 Quadrupole moment (field-independent basis, Debye-Ang):
   XX=            -11.9212   YY=            -11.7304   ZZ=            -12.2860
   XY=              0.0000   XZ=              0.0000   YZ=              0.0000

 Normal termination of Gaussian 16 at Fri Sep 17 10:52:45 2021.
