 Gaussian 16, Revision A.03,
 Gaussian 16:  ES64L-G16RevA.03 25-Dec-2016

 --------------------------------------------------------------------
 #p B3LYP/6-311+G** #p TD=(singlets,nstates=30)IOp(6/8=3) IOp(9/40=4)
 --------------------------------------------------------------------

 -------------------------------
 Scan Step 65, Bond Length 0.825
 -------------------------------
 Symbolic Z-matrix:
 Charge =  0 Multiplicity = 1

                         Standard orientation:
 ---------------------------------------------------------------------
 Center     Atomic      Atomic             Coordinates (Angstroms)
 Number     Number       Type             X           Y           Z
 ---------------------------------------------------------------------
      1          6           0        0.000000   -0.000000   -0.338581
      2          1           0        0.000000    0.937260   -0.929931
      3          1           0       -0.000000   -0.937260   -0.929931
      4          8           0        0.000000    0.000000    0.486419
 ---------------------------------------------------------------------

 SCF Done:  E(RB3LYP) =  -113.967205815     A.U. after    9 cycles

 Excitation energies and oscillator strengths:

 Excited State   1:      Singlet-A2     5.5666 eV  222.73 nm  f=0.0000  <S**2>=0.000
       3 -> 27         0.00251
       3 -> 35         0.00186
       3 -> 46         0.00089
       4 -> 10         0.00404
       4 -> 13         0.00656
       4 -> 17         0.00559
       4 -> 22        -0.00326
       4 -> 28         0.00274
       4 -> 32         0.00110
       4 -> 37         0.00284
       4 -> 43         0.00039
       4 -> 52         0.00056
       5 -> 11        -0.00049
       5 -> 16        -0.00045
       5 -> 18        -0.00039
       5 -> 23         0.00153
       5 -> 24         0.00015
       5 -> 29        -0.00017
       5 -> 33         0.00021
       5 -> 36         0.00047
       5 -> 42         0.00048
       5 -> 47         0.00058
       5 -> 50        -0.00019
       5 -> 53         0.00020
       6 -> 27         0.00364
       6 -> 35        -0.00063
       6 -> 46        -0.00049
       7 -> 27         0.00090
       7 -> 35        -0.00011
       7 -> 46         0.00088
       8 -> 10         0.69959
       8 -> 13         0.09807
       8 -> 17         0.03076
       8 -> 22        -0.00337
       8 -> 28         0.00406
       8 -> 32         0.00329
       8 -> 37        -0.00239
       8 -> 52         0.00071
       3 <- 27         0.00192
       3 <- 35         0.00160
       3 <- 46         0.00090
       4 <- 10         0.00021
       4 <- 13         0.00112
       4 <- 17         0.00036
       4 <- 32        -0.00099
       4 <- 37         0.00135
       4 <- 43         0.00040
       4 <- 52         0.00014
       5 <- 11        -0.00086
       5 <- 16         0.00110
       5 <- 18        -0.00267
       5 <- 23         0.00334
       5 <- 24        -0.00170
       5 <- 29         0.00153
       5 <- 33        -0.00064
       5 <- 36         0.00150
       5 <- 42         0.00070
       5 <- 47         0.00047
       5 <- 53         0.00054
       6 <- 27         0.00390
       6 <- 35        -0.00057
       6 <- 46        -0.00049
       7 <- 27         0.00088
       7 <- 35        -0.00018
       7 <- 46         0.00074
       8 <- 10        -0.00447
       8 <- 13        -0.00839
       8 <- 17        -0.00462
       8 <- 22         0.00034
       8 <- 28        -0.00038
       8 <- 32         0.00298
       8 <- 37        -0.00210
       8 <- 52         0.00022
 This state for optimization and/or second-order correction.
 Total Energy, E(TD-HF/TD-DFT) =  -113.762638753
 Copying the excited state density for this state as the 1-particle RhoCI density.

 Excited State   2:      Singlet-B2     5.5880 eV  221.87 nm  f=0.0974  <S**2>=0.000
       3 -> 11         0.00083
       3 -> 16         0.00037
       3 -> 18         0.00091
       3 -> 24         0.00107
       3 -> 29        -0.00021
       3 -> 42         0.00017
       3 -> 50        -0.00015
       3 -> 53         0.00011
       4 ->  9         0.00237
       4 -> 12         0.00554
       4 -> 14         0.00473
       4 -> 15         0.00164
       4 -> 19         0.00364
       4 -> 20         0.00151
       4 -> 21         0.00242
       4 -> 25         0.00140
       4 -> 26        -0.00097
       4 -> 30        -0.00182
       4 -> 31         0.00070
       4 -> 34         0.00045
       4 -> 38        -0.00081
       4 -> 41         0.00050
       4 -> 44         0.00041
       4 -> 45        -0.00062
       4 -> 48         0.00037
       5 -> 27         0.00125
       5 -> 35         0.00042
       5 -> 46         0.00087
       6 -> 11        -0.00686
       6 -> 16         0.00145
       6 -> 18         0.00076
       6 -> 23        -0.00208
       6 -> 24         0.00415
       6 -> 29        -0.00077
       6 -> 33        -0.00106
       6 -> 36         0.00083
       6 -> 40        -0.00011
       6 -> 42         0.00042
       7 -> 11         0.00303
       7 -> 16         0.00380
       7 -> 18         0.00325
       7 -> 23        -0.00171
       7 -> 24         0.00252
       7 -> 29         0.00024
       7 -> 36        -0.00031
       7 -> 42        -0.00037
       7 -> 47         0.00043
       7 -> 50         0.00047
       7 -> 53        -0.00011
       8 ->  9         0.70615
       8 -> 12         0.00592
       8 -> 14        -0.02775
       8 -> 15         0.01085
       8 -> 19         0.02089
       8 -> 20        -0.00704
       8 -> 21        -0.00863
       8 -> 25         0.00054
       8 -> 26        -0.00033
       8 -> 30         0.00027
       8 -> 31         0.00313
       8 -> 34         0.00139
       8 -> 38         0.00098
       8 -> 39        -0.00046
       8 -> 41        -0.00054
       8 -> 45        -0.00104
       8 -> 48         0.00036
       8 -> 54        -0.00013
       3 <- 11         0.00029
       3 <- 18         0.00058
       3 <- 24         0.00080
       3 <- 29        -0.00019
       3 <- 42         0.00014
       3 <- 53         0.00012
       4 <-  9         0.00186
       4 <- 12        -0.00017
       4 <- 14         0.00380
       4 <- 15         0.00184
       4 <- 19         0.00090
       4 <- 20         0.00064
       4 <- 21         0.00160
       4 <- 25         0.00159
       4 <- 26        -0.00125
       4 <- 30        -0.00067
       4 <- 34         0.00023
       4 <- 38        -0.00052
       4 <- 39         0.00016
       4 <- 41         0.00046
       4 <- 44         0.00029
       4 <- 45        -0.00056
       4 <- 48         0.00031
       5 <- 27         0.00099
       5 <- 35         0.00033
       5 <- 46         0.00074
       6 <- 11        -0.00040
       6 <- 16         0.00153
       6 <- 18         0.00197
       6 <- 23        -0.00115
       6 <- 24         0.00323
       6 <- 29        -0.00062
       6 <- 33        -0.00082
       6 <- 36         0.00065
       6 <- 40        -0.00016
       6 <- 42         0.00021
       7 <- 11         0.00076
       7 <- 16         0.00230
       7 <- 18         0.00096
       7 <- 23        -0.00069
       7 <- 24         0.00119
       7 <- 29         0.00086
       7 <- 42        -0.00031
       7 <- 47         0.00042
       7 <- 50         0.00054
       8 <-  9        -0.00525
       8 <- 12         0.00287
       8 <- 14        -0.01479
       8 <- 15        -0.00313
       8 <- 19        -0.00127
       8 <- 20         0.00014
       8 <- 21        -0.00449
       8 <- 25        -0.00315
       8 <- 26        -0.00062
       8 <- 30         0.00050
       8 <- 31         0.00177
       8 <- 34         0.00152
       8 <- 38         0.00095
       8 <- 39        -0.00038
       8 <- 41        -0.00039
       8 <- 44        -0.00014
       8 <- 45        -0.00079
       8 <- 48         0.00031

 Excited State   3:      Singlet-B2     6.3984 eV  193.77 nm  f=0.0249  <S**2>=0.000
       3 -> 11         0.00011
       3 -> 16        -0.00059
       3 -> 18         0.00015
       3 -> 23        -0.00021
       3 -> 24        -0.00044
       3 -> 29        -0.00079
       3 -> 33        -0.00014
       3 -> 36         0.00027
       3 -> 42         0.00028
       3 -> 47        -0.00019
       3 -> 50        -0.00018
       3 -> 53         0.00012
       4 ->  9         0.00401
       4 -> 12        -0.00020
       4 -> 14        -0.00232
       4 -> 15        -0.00396
       4 -> 19         0.00272
       4 -> 20        -0.00020
       4 -> 21        -0.00143
       4 -> 25        -0.00086
       4 -> 26        -0.00110
       4 -> 30         0.00083
       4 -> 31         0.00219
       4 -> 34         0.00030
       4 -> 39         0.00087
       4 -> 41         0.00055
       4 -> 45        -0.00062
       4 -> 48         0.00035
       4 -> 51         0.00018
       5 -> 27         0.00093
       5 -> 35         0.00134
       5 -> 46         0.00095
       6 -> 11        -0.00220
       6 -> 16        -0.00489
       6 -> 18        -0.00072
       6 -> 23         0.00114
       6 -> 24        -0.00376
       6 -> 29         0.00139
       6 -> 33        -0.00055
       6 -> 40         0.00029
       7 -> 11         0.00284
       7 -> 16         0.00069
       7 -> 18         0.00234
       7 -> 23        -0.00122
       7 -> 24         0.00077
       7 -> 29         0.00014
       7 -> 33         0.00022
       7 -> 36        -0.00109
       7 -> 40         0.00029
       7 -> 42        -0.00056
       7 -> 47         0.00066
       7 -> 50         0.00053
       7 -> 53        -0.00018
       8 ->  9        -0.00598
       8 -> 12         0.70600
       8 -> 14         0.02050
       8 -> 15         0.02502
       8 -> 19         0.01479
       8 -> 20         0.01552
       8 -> 21         0.00371
       8 -> 25        -0.00050
       8 -> 26         0.00084
       8 -> 30        -0.00184
       8 -> 31        -0.00070
       8 -> 34        -0.00035
       8 -> 38         0.00010
       8 -> 39         0.00102
       8 -> 41         0.00109
       8 -> 45        -0.00068
       8 -> 48         0.00046
       8 -> 54        -0.00016
       3 <- 11        -0.00018
       3 <- 16        -0.00059
       3 <- 18        -0.00011
       3 <- 24        -0.00049
       3 <- 29        -0.00053
       3 <- 33        -0.00016
       3 <- 36         0.00029
       3 <- 42         0.00024
       3 <- 47        -0.00014
       3 <- 53         0.00021
       4 <-  9        -0.00135
       4 <- 12        -0.00010
       4 <- 14        -0.00169
       4 <- 15        -0.00064
       4 <- 19        -0.00064
       4 <- 20         0.00037
       4 <- 21        -0.00101
       4 <- 25        -0.00093
       4 <- 26        -0.00093
       4 <- 30         0.00092
       4 <- 31         0.00095
       4 <- 34         0.00084
       4 <- 39         0.00065
       4 <- 41         0.00055
       4 <- 45        -0.00063
       4 <- 48         0.00023
       4 <- 51         0.00017
       5 <- 27         0.00047
       5 <- 35         0.00112
       5 <- 46         0.00082
       6 <- 11        -0.00014
       6 <- 16        -0.00105
       6 <- 18        -0.00100
       6 <- 23         0.00119
       6 <- 24        -0.00201
       6 <- 29         0.00067
       6 <- 33        -0.00059
       6 <- 36        -0.00028
       6 <- 40         0.00028
       6 <- 50        -0.00015
       7 <- 11         0.00037
       7 <- 16         0.00051
       7 <- 18         0.00020
       7 <- 23        -0.00025
       7 <- 24         0.00017
       7 <- 29         0.00046
       7 <- 36        -0.00073
       7 <- 40         0.00023
       7 <- 42        -0.00040
       7 <- 47         0.00058
       7 <- 50         0.00052
       8 <-  9         0.00265
       8 <- 12         0.00139
       8 <- 14         0.00781
       8 <- 15         0.00219
       8 <- 19        -0.00165
       8 <- 20        -0.00230
       8 <- 21         0.00294
       8 <- 25         0.00054
       8 <- 26        -0.00058
       8 <- 30        -0.00140
       8 <- 31        -0.00111
       8 <- 38         0.00027
       8 <- 39         0.00077
       8 <- 41         0.00093
       8 <- 45        -0.00057
       8 <- 48         0.00028

 Excited State   4:      Singlet-A1     6.5388 eV  189.61 nm  f=0.0329  <S**2>=0.000
       3 ->  9         0.00125
       3 -> 12         0.00071
       3 -> 15         0.00061
       3 -> 19         0.00135
       3 -> 20        -0.00017
       3 -> 21        -0.00044
       3 -> 25         0.00034
       3 -> 30        -0.00101
       3 -> 31        -0.00015
       3 -> 34        -0.00025
       3 -> 38        -0.00032
       3 -> 39        -0.00029
       3 -> 48        -0.00012
       3 -> 51        -0.00025
       3 -> 54         0.00019
       4 -> 11         0.00716
       4 -> 16         0.00813
       4 -> 18         0.00560
       4 -> 23         0.00132
       4 -> 24         0.00379
       4 -> 29         0.00072
       4 -> 33        -0.00015
       4 -> 36         0.00099
       4 -> 42        -0.00026
       4 -> 50        -0.00034
       4 -> 53        -0.00011
       5 -> 10         0.00622
       5 -> 13        -0.00271
       5 -> 17         0.00490
       5 -> 22         0.00372
       5 -> 28         0.00090
       5 -> 32         0.00092
       5 -> 37         0.00055
       5 -> 43         0.00039
       5 -> 49        -0.00035
       6 ->  9         0.00605
       6 -> 12        -0.01095
       6 -> 14         0.00611
       6 -> 15         0.00300
       6 -> 19         0.00171
       6 -> 20        -0.00687
       6 -> 21         0.00141
       6 -> 25         0.00674
       6 -> 26        -0.00105
       6 -> 30         0.00093
       6 -> 31        -0.00095
       6 -> 34        -0.00120
       6 -> 38        -0.00050
       6 -> 39         0.00106
       6 -> 44         0.00029
       6 -> 45        -0.00026
       6 -> 48        -0.00033
       7 ->  9         0.01262
       7 -> 12         0.00592
       7 -> 14         0.00196
       7 -> 15        -0.00109
       7 -> 19         0.00856
       7 -> 20        -0.00176
       7 -> 21         0.00040
       7 -> 25         0.00160
       7 -> 26         0.00050
       7 -> 30        -0.00038
       7 -> 31         0.00079
       7 -> 34        -0.00096
       7 -> 38        -0.00013
       7 -> 39         0.00021
       7 -> 48        -0.00022
       7 -> 51         0.00036
       8 -> 11         0.70532
       8 -> 16         0.04461
       8 -> 18        -0.00913
       8 -> 23         0.00226
       8 -> 24         0.00219
       8 -> 29         0.00383
       8 -> 33         0.00162
       8 -> 36        -0.00273
       8 -> 40         0.00018
       8 -> 42         0.00156
       8 -> 47        -0.00054
       3 <-  9         0.00057
       3 <- 12         0.00030
       3 <- 15         0.00033
       3 <- 19         0.00079
       3 <- 21        -0.00021
       3 <- 25         0.00033
       3 <- 26         0.00011
       3 <- 30        -0.00062
       3 <- 31        -0.00014
       3 <- 34        -0.00022
       3 <- 38        -0.00023
       3 <- 39        -0.00025
       3 <- 41        -0.00011
       3 <- 45         0.00011
       3 <- 48        -0.00014
       3 <- 51        -0.00022
       3 <- 54         0.00017
       4 <- 11         0.00258
       4 <- 16         0.00277
       4 <- 18         0.00293
       4 <- 23         0.00111
       4 <- 24         0.00203
       4 <- 29         0.00029
       4 <- 33        -0.00026
       4 <- 36         0.00085
       4 <- 42        -0.00023
       4 <- 50        -0.00028
       4 <- 53        -0.00010
       5 <- 10         0.00260
       5 <- 13        -0.00122
       5 <- 17         0.00247
       5 <- 22         0.00232
       5 <- 28         0.00059
       5 <- 32         0.00072
       5 <- 37         0.00045
       5 <- 43         0.00033
       5 <- 49        -0.00031
       6 <-  9         0.00624
       6 <- 12        -0.00428
       6 <- 14         0.00466
       6 <- 15         0.00266
       6 <- 19         0.00116
       6 <- 20        -0.00387
       6 <- 21         0.00015
       6 <- 25         0.00422
       6 <- 26        -0.00051
       6 <- 30         0.00026
       6 <- 31        -0.00109
       6 <- 34        -0.00093
       6 <- 38        -0.00059
       6 <- 39         0.00085
       6 <- 44         0.00034
       6 <- 45        -0.00023
       6 <- 48        -0.00027
       7 <-  9         0.00445
       7 <- 12         0.00169
       7 <- 14         0.00090
       7 <- 15        -0.00047
       7 <- 19         0.00387
       7 <- 20        -0.00115
       7 <- 25         0.00099
       7 <- 26         0.00021
       7 <- 30        -0.00038
       7 <- 31         0.00053
       7 <- 34        -0.00066
       7 <- 38        -0.00017
       7 <- 39         0.00028
       7 <- 45        -0.00014
       7 <- 48        -0.00013
       7 <- 51         0.00033
       8 <- 11        -0.00484
       8 <- 16         0.00482
       8 <- 18        -0.01235
       8 <- 23        -0.00179
       8 <- 24        -0.00131
       8 <- 29         0.00219
       8 <- 33         0.00131
       8 <- 36        -0.00202
       8 <- 42         0.00126
       8 <- 47        -0.00060
       8 <- 53        -0.00011

 Excited State   5:      Singlet-A2     7.6238 eV  162.63 nm  f=0.0000  <S**2>=0.000
       3 -> 27         0.00226
       3 -> 35         0.00177
       3 -> 46         0.00079
       4 -> 10         0.00593
       4 -> 13         0.00989
       4 -> 17        -0.00069
       4 -> 22        -0.00251
       4 -> 28         0.00059
       4 -> 32         0.00213
       4 -> 37         0.00296
       4 -> 43         0.00031
       4 -> 49        -0.00010
       4 -> 52         0.00048
       5 -> 16        -0.00171
       5 -> 18        -0.00032
       5 -> 23         0.00161
       5 -> 29        -0.00037
       5 -> 33         0.00012
       5 -> 36         0.00046
       5 -> 42         0.00050
       5 -> 47         0.00048
       5 -> 53         0.00020
       6 -> 27         0.00179
       6 -> 35        -0.00083
       6 -> 46        -0.00024
       7 -> 27         0.00044
       7 -> 35        -0.00012
       7 -> 46         0.00084
       8 -> 10        -0.09903
       8 -> 13         0.69943
       8 -> 17         0.01834
       8 -> 22        -0.02391
       8 -> 28         0.00272
       8 -> 32         0.00208
       8 -> 37        -0.00184
       8 -> 43        -0.00016
       8 -> 49        -0.00011
       8 -> 52         0.00052
       3 <- 27         0.00146
       3 <- 35         0.00145
       3 <- 46         0.00088
       4 <- 10         0.00034
       4 <- 13         0.00059
       4 <- 17        -0.00029
       4 <- 32        -0.00048
       4 <- 37         0.00103
       4 <- 43         0.00032
       4 <- 52         0.00015
       5 <- 11         0.00033
       5 <- 16        -0.00042
       5 <- 18        -0.00096
       5 <- 23         0.00285
       5 <- 24        -0.00106
       5 <- 29         0.00025
       5 <- 33        -0.00078
       5 <- 36         0.00151
       5 <- 42         0.00083
       5 <- 47         0.00023
       5 <- 53         0.00044
       6 <- 27         0.00234
       6 <- 35        -0.00022
       6 <- 46        -0.00033
       7 <- 27         0.00060
       7 <- 35        -0.00026
       7 <- 46         0.00047
       8 <- 10        -0.00735
       8 <- 13        -0.00317
       8 <- 17        -0.00177
       8 <- 22         0.00065
       8 <- 28        -0.00034
       8 <- 32         0.00188
       8 <- 37        -0.00143
       8 <- 52         0.00020

 Excited State   6:      Singlet-B2     9.6677 eV  128.25 nm  f=0.1756  <S**2>=0.000
       3 -> 11        -0.00038
       3 -> 16         0.00101
       3 -> 18        -0.00081
       3 -> 23         0.00066
       3 -> 24         0.00037
       3 -> 29         0.00088
       3 -> 33        -0.00071
       3 -> 40         0.00042
       3 -> 42         0.00045
       3 -> 47         0.00027

 The electronic state is 1-A1.
 Alpha  occ. eigenvalues --  -19.14288 -10.23994  -1.30494  -0.65232  -0.60995
 Alpha  occ. eigenvalues --   -0.58607  -0.53483  -0.22992
 Alpha virt. eigenvalues --    0.01346   0.02343   0.04434   0.04479   0.10579
 Alpha virt. eigenvalues --    0.14354   0.17663   0.19983   0.21785   0.24256
 Alpha virt. eigenvalues --    0.25457   0.36494   0.50409   0.53826   0.55089

 Mulliken charges:
               1
     1  C    0.281805
     2  H   -0.028231
     3  H   -0.028231
     4  O   -0.225343
 Sum of Mulliken charges =   0.00000

 Dipole moment (field-independent basis, Debye):
    X=              0.0000    Y=             -0.0000    Z=             -0.0259  Tot=              0.0259
 Quadrupole moment (field-independent basis, Debye-Ang):
   XX=            -10.6027   YY=            -12.6550   ZZ=            -13.3602
   XY=             -0.0000   XZ=             -0.0000   YZ=             -0.0000

 Normal termination of Gaussian 16 at Fri Sep 17 10:52:28 2021.
