 Gaussian 16, Revision C.01,
 Gaussian 16:  ES64L-G16RevC.01  3-Jul-2019

 ---------------------------------------
 #P wB97XD/6-311+G* NoSymm #P Field=Y+87
 ---------------------------------------

 -------
 TitleMe
 -------
 Symbolic Z-matrix:
 Charge =  1 Multiplicity = 1

                          Input orientation:
 ---------------------------------------------------------------------
 Center     Atomic      Atomic             Coordinates (Angstroms)
 Number     Number       Type             X           Y           Z
 ---------------------------------------------------------------------
      1          6           0        0.519300    1.233000   -0.031900
      2          6           0        1.944500    1.269200   -0.036700
      3          6           0        2.620400    0.092800   -0.025000
      4          6           0       -0.196000    0.030100    0.001000
      5          1           0       -0.020700    2.174200   -0.043400
      6          1           0        2.482800    2.208900   -0.036100
      7          1           0       -1.277700    0.039900    0.011700
      8          7           0        4.092100    0.095900    0.036600
      9          8           0        4.639300   -1.021700    0.144600
     10          8           0        4.664900    1.198400   -0.023300
     11          6           0        0.494300   -1.167100    0.021000
     12          1           0       -0.032500   -2.114900    0.054500
     13          6           0        1.962900   -1.216500   -0.021100
     14          1           0        2.443600   -1.963100    0.615100
     15         35           0        2.173000   -1.949100   -1.906200
 ---------------------------------------------------------------------

 SCF Done:  E(RwB97XD) =  -3010.53937500     A.U. after   20 cycles

 Alpha  occ. eigenvalues -- -483.29768 -62.84768 -56.64483 -56.63888 -56.63872
 Alpha  occ. eigenvalues --  -19.46218 -19.46032 -14.85513 -10.58897 -10.56739
 Alpha  occ. eigenvalues --  -10.56721 -10.56520 -10.53434 -10.52311  -9.00558
 Alpha  occ. eigenvalues --   -6.83293  -6.81345  -6.81296  -2.93183  -2.92676
 Alpha  occ. eigenvalues --   -2.92637  -2.91079  -2.91078  -1.49797  -1.32763
 Alpha  occ. eigenvalues --   -1.21860  -1.12397  -1.11769  -1.03872  -0.99711
 Alpha  occ. eigenvalues --   -0.94803  -0.90171  -0.84681  -0.80627  -0.79879
 Alpha  occ. eigenvalues --   -0.79700  -0.77470  -0.76018  -0.75060  -0.71335
 Alpha  occ. eigenvalues --   -0.68011  -0.67161  -0.62771  -0.59030  -0.57259
 Alpha  occ. eigenvalues --   -0.56483  -0.55804  -0.54506  -0.53409
 Alpha virt. eigenvalues --   -0.29417  -0.20194  -0.14584  -0.12646  -0.10786
 Alpha virt. eigenvalues --   -0.07050  -0.06057  -0.04928  -0.04065  -0.03287
 Alpha virt. eigenvalues --   -0.01868  -0.01078  -0.00315  -0.00119   0.00892

 Mulliken charges:
               1
     1  C   -0.105177
     2  C    0.187281
     3  C   -0.093354
     4  C   -0.357124
     5  H    0.308015
     6  H    0.315936
     7  H    0.328519
     8  N   -0.243417
     9  O    0.136954
    10  O    0.019965
    11  C   -0.190190
    12  H    0.387241
    13  C   -0.375517
    14  H    0.432003
    15  Br   0.248867
 Sum of Mulliken charges =   1.00000

 Dipole moment (field-independent basis, Debye):
    X=              2.9117    Y=             -3.4607    Z=             -1.1041  Tot=              4.6555
 Quadrupole moment (field-independent basis, Debye-Ang):
   XX=            -67.7242   YY=            -49.9443   ZZ=            -61.2420
   XY=             -8.3063   XZ=             -3.3336   YZ=              3.8088

 Normal termination of Gaussian 16 at Thu May  2 14:19:11 2024.
