 Gaussian 16, Revision A.03,
 Gaussian 16:  ES64L-G16RevA.03 25-Dec-2016

 --------------------------------------------------------------------
 #p B3LYP/6-311+G** #p TD=(singlets,nstates=30)IOp(6/8=3) IOp(9/40=4)
 --------------------------------------------------------------------

 -------------------------------
 Scan Step 102, Bond Length 1.01
 -------------------------------
 Symbolic Z-matrix:
 Charge =  0 Multiplicity = 1

                         Standard orientation:
 ---------------------------------------------------------------------
 Center     Atomic      Atomic             Coordinates (Angstroms)
 Number     Number       Type             X           Y           Z
 ---------------------------------------------------------------------
      1          6           0        0.000000    0.000000   -0.431081
      2          1           0        0.000000    0.937260   -1.022431
      3          1           0       -0.000000   -0.937260   -1.022431
      4          8           0        0.000000   -0.000000    0.578919
 ---------------------------------------------------------------------

 SCF Done:  E(RB3LYP) =  -114.451420973     A.U. after    9 cycles

 Excitation energies and oscillator strengths:

 Excited State   1:      Singlet-A2     5.0544 eV  245.30 nm  f=0.0000  <S**2>=0.000
       3 -> 27         0.00298
       3 -> 37         0.00247
       3 -> 46         0.00174
       4 -> 27         0.00295
       4 -> 37        -0.00075
       4 -> 46        -0.00096
       5 ->  9         0.01671
       5 -> 13        -0.00848
       5 -> 17         0.00621
       5 -> 23        -0.00271
       5 -> 28         0.00362
       5 -> 31         0.00280
       5 -> 36         0.00402
       5 -> 44         0.00066
       5 -> 47         0.00011
       5 -> 52         0.00085
       6 -> 27         0.00063
       6 -> 37        -0.00055
       6 -> 46         0.00155
       7 -> 12        -0.00062
       7 -> 16         0.00172
       7 -> 18         0.00146
       7 -> 22         0.00162
       7 -> 24         0.00106
       7 -> 29        -0.00066
       7 -> 34         0.00034
       7 -> 35         0.00052
       7 -> 40        -0.00028
       7 -> 42        -0.00037
       7 -> 48         0.00063
       7 -> 50        -0.00018
       7 -> 53         0.00037
       8 ->  9         0.69988
       8 -> 13        -0.09592
       8 -> 17         0.02652
       8 -> 23        -0.01155
       8 -> 28         0.00659
       8 -> 31         0.00351
       8 -> 36        -0.00162
       8 -> 44        -0.00025
       8 -> 47        -0.00014
       8 -> 52         0.00126
       3 <- 27         0.00210
       3 <- 37         0.00210
       3 <- 46         0.00181
       4 <- 27         0.00368
       4 <- 37        -0.00026
       4 <- 46        -0.00088
       5 <-  9         0.00015
       5 <- 13        -0.00101
       5 <- 17        -0.00050
       5 <- 23         0.00046
       5 <- 28        -0.00034
       5 <- 31        -0.00112
       5 <- 36         0.00180
       5 <- 44         0.00041
       5 <- 47         0.00016
       5 <- 52         0.00022
       6 <- 27         0.00097
       6 <- 37        -0.00055
       6 <- 46         0.00120
       7 <- 12        -0.00097
       7 <- 16        -0.00450
       7 <- 18         0.00206
       7 <- 22         0.00611
       7 <- 24        -0.00105
       7 <- 29         0.00216
       7 <- 34        -0.00121
       7 <- 35         0.00244
       7 <- 40        -0.00049
       7 <- 42        -0.00093
       7 <- 48         0.00046
       7 <- 53         0.00100
       8 <-  9        -0.01504
       8 <- 13         0.00631
       8 <- 17        -0.00386
       8 <- 23         0.00067
       8 <- 28        -0.00047
       8 <- 31         0.00207
       8 <- 36        -0.00215
       8 <- 52         0.00038
 This state for optimization and/or second-order correction.
 Total Energy, E(TD-HF/TD-DFT) =  -114.265674369
 Copying the excited state density for this state as the 1-particle RhoCI density.

 Excited State   2:      Singlet-B2     6.3937 eV  193.92 nm  f=0.0643  <S**2>=0.000
       3 -> 12         0.00110
       3 -> 16         0.00040
       3 -> 18        -0.00112
       3 -> 22        -0.00018
       3 -> 24         0.00126
       3 -> 29        -0.00014
       3 -> 35        -0.00020
       3 -> 50        -0.00012
       4 -> 12        -0.00501
       4 -> 16         0.00036
       4 -> 18        -0.00234
       4 -> 22        -0.00315
       4 -> 24         0.00393
       4 -> 29        -0.00017
       4 -> 34        -0.00088
       4 -> 35         0.00087
       4 -> 40        -0.00034
       4 -> 42        -0.00037
       5 -> 10        -0.00118
       5 -> 11        -0.00867
       5 -> 14         0.00637
       5 -> 15        -0.00141
       5 -> 19         0.00333
       5 -> 20        -0.00039
       5 -> 21         0.00401
       5 -> 25         0.00060
       5 -> 26        -0.00190
       5 -> 30         0.00249
       5 -> 32        -0.00031
       5 -> 33        -0.00034
       5 -> 38        -0.00055
       5 -> 39        -0.00025
       5 -> 43        -0.00051
       5 -> 45        -0.00057
       5 -> 49         0.00026
       6 -> 12         0.00163
       6 -> 18        -0.00415
       6 -> 22        -0.00265
       6 -> 24         0.00194
       6 -> 29        -0.00019
       6 -> 34        -0.00010
       6 -> 42         0.00037
       6 -> 48         0.00036
       6 -> 50         0.00051
       7 -> 27         0.00064
       7 -> 37        -0.00012
       7 -> 46         0.00077
       8 -> 10         0.70560
       8 -> 11        -0.03817
       8 -> 14        -0.00489
       8 -> 15        -0.01052
       8 -> 19         0.01851
       8 -> 20         0.00974
       8 -> 21        -0.00593
       8 -> 25         0.00084
       8 -> 26        -0.00102
       8 -> 30         0.00040
       8 -> 32         0.00185
       8 -> 33         0.00194
       8 -> 38         0.00061
       8 -> 39         0.00057
       8 -> 41        -0.00018
       8 -> 43         0.00069
       8 -> 45        -0.00093
       8 -> 49         0.00014
       8 -> 54         0.00016
       3 <- 12         0.00032
       3 <- 16         0.00041
       3 <- 18        -0.00053
       3 <- 22        -0.00026
       3 <- 24         0.00086
       3 <- 29        -0.00013
       3 <- 35        -0.00020
       4 <- 12         0.00039
       4 <- 16         0.00089
       4 <- 18        -0.00270
       4 <- 22        -0.00192
       4 <- 24         0.00286
       4 <- 29        -0.00013
       4 <- 34        -0.00062
       4 <- 35         0.00061
       4 <- 40        -0.00028
       5 <- 10         0.00238
       5 <- 11        -0.00011
       5 <- 14         0.00477
       5 <- 15        -0.00137
       5 <- 19         0.00082
       5 <- 21         0.00215
       5 <- 25         0.00167
       5 <- 26        -0.00139
       5 <- 30         0.00083
       5 <- 32        -0.00056
       5 <- 33        -0.00038
       5 <- 38        -0.00044
       5 <- 39        -0.00017
       5 <- 41         0.00021
       5 <- 43        -0.00035
       5 <- 45        -0.00048
       5 <- 49         0.00023
       6 <- 12         0.00047
       6 <- 16        -0.00062
       6 <- 18        -0.00182
       6 <- 22        -0.00099
       6 <- 24         0.00079
       6 <- 29         0.00048
       6 <- 34        -0.00017
       6 <- 35         0.00020
       6 <- 42         0.00035
       6 <- 48         0.00031
       6 <- 50         0.00053
       7 <- 27         0.00049
       7 <- 46         0.00066
       8 <- 10        -0.00320
       8 <- 11        -0.00107
       8 <- 14        -0.00973
       8 <- 15         0.00062
       8 <- 19        -0.00064
       8 <- 20        -0.00036
       8 <- 21        -0.00348
       8 <- 25        -0.00295
       8 <- 26        -0.00034
       8 <- 30        -0.00064
       8 <- 32         0.00063
       8 <- 33         0.00163
       8 <- 38         0.00063
       8 <- 39         0.00046
       8 <- 43         0.00054
       8 <- 45        -0.00063
       8 <- 49         0.00017
       8 <- 51         0.00012

 Excited State   3:      Singlet-B2     7.1835 eV  172.60 nm  f=0.0205  <S**2>=0.000
       3 -> 12        -0.00017
       3 -> 16        -0.00067
       3 -> 18        -0.00040
       3 -> 22         0.00021
       3 -> 24         0.00036
       3 -> 29         0.00133
       3 -> 34         0.00014
       3 -> 35        -0.00032
       3 -> 40         0.00010
       3 -> 42         0.00032
       3 -> 48         0.00023
       3 -> 50         0.00026
       4 -> 12         0.00312
       4 -> 16        -0.00191
       4 -> 18        -0.00334
       4 -> 22        -0.00156
       4 -> 24         0.00343
       4 -> 29        -0.00106
       4 -> 34         0.00055
       4 -> 35        -0.00033
       4 -> 40        -0.00017
       4 -> 42         0.00013
       4 -> 48         0.00017
       4 -> 50         0.00016
       5 -> 10        -0.00689
       5 -> 11         0.00032
       5 -> 14         0.00475
       5 -> 15        -0.00599
       5 -> 19        -0.00387
       5 -> 20        -0.00209
       5 -> 21         0.00110
       5 -> 25         0.00129
       5 -> 26         0.00106
       5 -> 30         0.00107
       5 -> 32        -0.00169
       5 -> 33        -0.00092
       5 -> 39         0.00055
       5 -> 41        -0.00085
       5 -> 45         0.00070
       5 -> 49        -0.00041
       5 -> 51        -0.00029
       6 -> 12        -0.00318
       6 -> 16        -0.00152
       6 -> 18         0.00190
       6 -> 22         0.00146
       6 -> 29         0.00033
       6 -> 34        -0.00037
       6 -> 35         0.00139
       6 -> 40        -0.00052
       6 -> 42        -0.00070
       6 -> 48        -0.00072
       6 -> 50        -0.00068
       6 -> 53         0.00014
       7 -> 27        -0.00062
       7 -> 37        -0.00123
       7 -> 46        -0.00131
       8 -> 10         0.03879
       8 -> 11         0.70508
       8 -> 14        -0.01357
       8 -> 15         0.01928
       8 -> 19        -0.02208
       8 -> 20         0.01330
       8 -> 21        -0.00209
       8 -> 25         0.00036
       8 -> 26         0.00092
       8 -> 30        -0.00135
       8 -> 32        -0.00011
       8 -> 33         0.00040
       8 -> 39         0.00019
       8 -> 41        -0.00143
       8 -> 45         0.00099
       8 -> 49        -0.00074
       8 -> 51        -0.00036
       8 -> 54        -0.00017
       3 <- 12         0.00030
       3 <- 16        -0.00039
       3 <- 18        -0.00065
       3 <- 24         0.00044
       3 <- 29         0.00083
       3 <- 34         0.00020
       3 <- 35        -0.00037
       3 <- 42         0.00028
       3 <- 48         0.00018
       3 <- 50         0.00015
       3 <- 53        -0.00022
       4 <- 12         0.00034
       4 <- 16         0.00021
       4 <- 18        -0.00112
       4 <- 22        -0.00124
       4 <- 24         0.00147
       4 <- 29        -0.00044
       4 <- 34         0.00052
       4 <- 40        -0.00015
       4 <- 42         0.00017
       4 <- 48         0.00011
       4 <- 50         0.00022
       5 <- 10         0.00133
       5 <- 11        -0.00062
       5 <- 14         0.00208
       5 <- 15        -0.00047
       5 <- 19         0.00070
       5 <- 21         0.00095
       5 <- 25         0.00103
       5 <- 26         0.00077
       5 <- 30         0.00076
       5 <- 32        -0.00020
       5 <- 33        -0.00126
       5 <- 38         0.00015
       5 <- 39         0.00031
       5 <- 41        -0.00088
       5 <- 43        -0.00010
       5 <- 45         0.00067
       5 <- 49        -0.00027
       5 <- 51        -0.00028
       6 <- 12        -0.00036
       6 <- 18         0.00029
       6 <- 22         0.00038
       6 <- 34        -0.00017
       6 <- 35         0.00101
       6 <- 40        -0.00039
       6 <- 42        -0.00049
       6 <- 48        -0.00061
       6 <- 50        -0.00059
       7 <- 27        -0.00020
       7 <- 37        -0.00100
       7 <- 46        -0.00112
       8 <- 10        -0.00107
       8 <- 11         0.00072
       8 <- 14        -0.00495
       8 <- 15         0.00081
       8 <- 19         0.00257
       8 <- 20        -0.00156
       8 <- 21        -0.00227
       8 <- 25        -0.00011
       8 <- 26         0.00132
       8 <- 30        -0.00079
       8 <- 32         0.00119
       8 <- 38        -0.00022
       8 <- 41        -0.00120
       8 <- 45         0.00082
       8 <- 49        -0.00047
       8 <- 51        -0.00032

 Excited State   4:      Singlet-A1     7.3247 eV  169.27 nm  f=0.0524  <S**2>=0.000
       3 -> 10         0.00152
       3 -> 11        -0.00098
       3 -> 14         0.00038
       3 -> 15        -0.00045
       3 -> 19         0.00111
       3 -> 20         0.00079
       3 -> 26        -0.00045
       3 -> 30         0.00120
       3 -> 32        -0.00032
       3 -> 33        -0.00023
       3 -> 38        -0.00034
       3 -> 39         0.00017
       3 -> 41        -0.00019
       3 -> 49        -0.00012
       3 -> 51        -0.00035
       3 -> 54        -0.00021
       4 -> 10         0.00548
       4 -> 11         0.00884
       4 -> 14         0.00603
       4 -> 15        -0.00063
       4 -> 19         0.00062
       4 -> 20         0.00596
       4 -> 21         0.00252
       4 -> 25         0.00707
       4 -> 26        -0.00084
       4 -> 30        -0.00056
       4 -> 32        -0.00021
       4 -> 33        -0.00087
       4 -> 39        -0.00046
       4 -> 41         0.00021
       4 -> 43         0.00012
       4 -> 45        -0.00028
       4 -> 49        -0.00023
       5 -> 12         0.00775
       5 -> 16        -0.00257
       5 -> 18        -0.01127
       5 -> 22        -0.00053
       5 -> 24         0.00482
       5 -> 29         0.00033
       5 -> 34        -0.00016
       5 -> 35         0.00087
       5 -> 42         0.00016
       5 -> 50        -0.00035
       5 -> 53        -0.00015
       6 -> 10         0.01339
       6 -> 11        -0.00452
       6 -> 14         0.00388
       6 -> 15         0.00147
       6 -> 19         0.00591
       6 -> 20         0.00419
       6 -> 21         0.00173
       6 -> 25         0.00229
       6 -> 26        -0.00057
       6 -> 30        -0.00055
       6 -> 32         0.00055
       6 -> 33        -0.00074
       6 -> 39        -0.00013
       6 -> 43         0.00011
       6 -> 49        -0.00020
       6 -> 51         0.00054
       7 ->  9         0.01028
       7 -> 13         0.00618
       7 -> 17         0.00488
       7 -> 23         0.00483
       7 -> 28         0.00020
       7 -> 31         0.00085
       7 -> 36         0.00054
       7 -> 44         0.00062
       7 -> 47        -0.00036
       8 -> 12         0.70564
       8 -> 16        -0.02919
       8 -> 18        -0.02285
       8 -> 22         0.00504
       8 -> 24         0.00177
       8 -> 29         0.00211
       8 -> 34         0.00151
       8 -> 35        -0.00226
       8 -> 40        -0.00024
       8 -> 42        -0.00108
       8 -> 48        -0.00037
       8 -> 50        -0.00024
       8 -> 53        -0.00017
       3 <- 10         0.00058
       3 <- 11        -0.00027
       3 <- 14         0.00024
       3 <- 15        -0.00016
       3 <- 19         0.00053
       3 <- 20         0.00036
       3 <- 21         0.00017
       3 <- 25         0.00019
       3 <- 26        -0.00022
       3 <- 30         0.00073
       3 <- 32        -0.00026
       3 <- 33        -0.00011
       3 <- 38        -0.00026
       3 <- 39         0.00014
       3 <- 41        -0.00017
       3 <- 45         0.00013
       3 <- 49        -0.00013
       3 <- 51        -0.00030
       3 <- 54        -0.00019
       4 <- 10         0.00523
       4 <- 11         0.00268
       4 <- 14         0.00442
       4 <- 15        -0.00095
       4 <- 19         0.00047
       4 <- 20         0.00337
       4 <- 21         0.00101
       4 <- 25         0.00409
       4 <- 26        -0.00044
       4 <- 32        -0.00049
       4 <- 33        -0.00098
       4 <- 38        -0.00016
       4 <- 39        -0.00045
       4 <- 45        -0.00026
       4 <- 49        -0.00019
       5 <- 12         0.00276
       5 <- 16         0.00046
       5 <- 18        -0.00442
       5 <- 24         0.00261
       5 <- 34        -0.00032
       5 <- 35         0.00078
       5 <- 42         0.00015
       5 <- 50        -0.00026
       5 <- 53        -0.00014
       6 <- 10         0.00404
       6 <- 11        -0.00075
       6 <- 14         0.00172
       6 <- 15         0.00049
       6 <- 19         0.00226
       6 <- 20         0.00221
       6 <- 21         0.00068
       6 <- 25         0.00127
       6 <- 26        -0.00056
       6 <- 30        -0.00022
       6 <- 32         0.00030
       6 <- 33        -0.00059
       6 <- 39        -0.00020
       6 <- 41         0.00014
       6 <- 51         0.00050
       7 <-  9         0.00233
       7 <- 13         0.00198
       7 <- 17         0.00185
       7 <- 23         0.00266
       7 <- 31         0.00062
       7 <- 36         0.00044
       7 <- 44         0.00051
       7 <- 47        -0.00032
       8 <- 12        -0.00232
       8 <- 16        -0.00828
       8 <- 18         0.00502
       8 <- 22         0.00044
       8 <- 24        -0.00237
       8 <- 29         0.00067
       8 <- 34         0.00094
       8 <- 35        -0.00140
       8 <- 40        -0.00025
       8 <- 42        -0.00090
       8 <- 48        -0.00043
       8 <- 50        -0.00021
       8 <- 53        -0.00019

 Excited State   5:      Singlet-A2     7.8637 eV  157.67 nm  f=0.0000  <S**2>=0.000
       3 -> 27        -0.00096
       3 -> 37        -0.00084
       3 -> 46        -0.00048
       4 -> 37         0.00061
       4 -> 46         0.00015
       5 ->  9        -0.00987
       5 -> 13         0.00196
       5 -> 17         0.00484
       5 -> 23        -0.00056
       5 -> 31        -0.00198
       5 -> 36        -0.00161
       5 -> 44        -0.00027
       5 -> 52        -0.00022
       6 -> 27         0.00012
       6 -> 37         0.00028
       6 -> 46        -0.00050
       7 -> 12        -0.00047
       7 -> 16        -0.00191
       7 -> 18        -0.00146
       7 -> 22        -0.00085
       7 -> 24        -0.00024
       7 -> 29         0.00022
       7 -> 35        -0.00023
       7 -> 40         0.00010
       7 -> 42         0.00018
       7 -> 48        -0.00018
       7 -> 53        -0.00012
       8 ->  9         0.09612
       8 -> 13         0.70011
       8 -> 17         0.00843
       8 -> 23         0.02039
       8 -> 28        -0.00056
       8 -> 31        -0.00125
       8 -> 36         0.00018
       8 -> 47         0.00018
       8 -> 52        -0.00028
       3 <- 27        -0.00047
       3 <- 37        -0.00065
       3 <- 46        -0.00057
       4 <- 27        -0.00054
       4 <- 46         0.00016
       5 <-  9        -0.00025
       5 <- 13        -0.00015
       5 <- 17         0.00063
       5 <- 36        -0.00043
       5 <- 44        -0.00010
       6 <- 27        -0.00016
       6 <- 37         0.00023
       6 <- 46        -0.00019
       7 <- 12        -0.00063
       7 <- 16        -0.00061
       7 <- 18        -0.00060
       7 <- 22        -0.00169
       7 <- 24        -0.00018
       7 <- 29         0.00013
       7 <- 34         0.00054
       7 <- 35        -0.00094
       7 <- 40         0.00020
       7 <- 42         0.00049
       7 <- 53        -0.00023
       8 <-  9         0.00435
       8 <- 13         0.00107
       8 <- 17         0.00031
       8 <- 23        -0.00036
       8 <- 28         0.00013
       8 <- 31        -0.00035
       8 <- 36         0.00043
       8 <- 52        -0.00012

 Excited State   6:      Singlet-B2    10.1947 eV  121.62 nm  f=0.2344  <S**2>=0.000
       3 -> 12        -0.00039
       3 -> 16        -0.00196

 The electronic state is 1-A1.
 Alpha  occ. eigenvalues --  -19.13988 -10.24758  -1.19392  -0.61474  -0.55517
 Alpha  occ. eigenvalues --   -0.49583  -0.49188  -0.26126
 Alpha virt. eigenvalues --   -0.01126   0.01276   0.04254   0.04375   0.07347
 Alpha virt. eigenvalues --    0.13783   0.18048   0.20020   0.21992   0.22558
 Alpha virt. eigenvalues --    0.26910   0.35715   0.49217   0.50694   0.51512

 Mulliken charges:
               1
     1  C    0.105695
     2  H    0.050068
     3  H    0.050068
     4  O   -0.205832
 Sum of Mulliken charges =   0.00000

 Dipole moment (field-independent basis, Debye):
    X=              0.0000    Y=              0.0000    Z=             -1.3917  Tot=              1.3917
 Quadrupole moment (field-independent basis, Debye-Ang):
   XX=            -11.1521   YY=            -11.9743   ZZ=            -12.9289
   XY=             -0.0000   XZ=             -0.0000   YZ=             -0.0000

 Normal termination of Gaussian 16 at Fri Sep 17 10:52:36 2021.
