 Gaussian 16, Revision C.01,
 Gaussian 16:  ES64L-G16RevC.01  3-Jul-2019

 ---------------------------------------
 #P wB97XD/6-311+G* NoSymm #P Field=X-38
 ---------------------------------------

 -------
 TitleMe
 -------
 Symbolic Z-matrix:
 Charge =  1 Multiplicity = 1

                          Input orientation:
 ---------------------------------------------------------------------
 Center     Atomic      Atomic             Coordinates (Angstroms)
 Number     Number       Type             X           Y           Z
 ---------------------------------------------------------------------
      1          6           0        0.029500    1.339700    0.068200
      2          6           0        1.434800    1.286700    0.006400
      3          6           0        2.111800    0.051100   -0.005400
      4          6           0        1.445100   -1.137200    0.031200
      5          6           0       -0.687900    0.168200    0.110000
      6          1           0       -0.471300    2.298400    0.078100
      7          1           0        2.027300    2.196500   -0.032200
      8          1           0        1.989700   -2.076400    0.023200
      9          1           0       -1.771600    0.180400    0.158200
     10          7           0        3.586400    0.051000   -0.067500
     11          8           0        4.147100   -1.059700   -0.088100
     12          8           0        4.145000    1.163900   -0.090100
     13          6           0       -0.023600   -1.145800    0.083500
     14          1           0       -0.436700   -1.872500    0.788900
     15         35           0       -0.535900   -1.869700   -1.740800
 ---------------------------------------------------------------------

 SCF Done:  E(RwB97XD) =  -3010.53495113     A.U. after   18 cycles

 Alpha  occ. eigenvalues -- -483.30846 -62.85878 -56.65562 -56.65002 -56.65000
 Alpha  occ. eigenvalues --  -19.43717 -19.43646 -14.83267 -10.57799 -10.56651
 Alpha  occ. eigenvalues --  -10.56135 -10.56060 -10.55988 -10.52383  -9.01690
 Alpha  occ. eigenvalues --   -6.84342  -6.82509  -6.82495  -2.94252  -2.93765
 Alpha  occ. eigenvalues --   -2.93753  -2.92286  -2.92286  -1.47488  -1.30439
 Alpha  occ. eigenvalues --   -1.21813  -1.13193  -1.10952  -1.03833  -0.99777
 Alpha  occ. eigenvalues --   -0.94684  -0.89992  -0.84077  -0.79694  -0.79170
 Alpha  occ. eigenvalues --   -0.78207  -0.77352  -0.75176  -0.74001  -0.71518
 Alpha  occ. eigenvalues --   -0.68662  -0.66768  -0.62885  -0.59465  -0.56185
 Alpha  occ. eigenvalues --   -0.54999  -0.54607  -0.53807  -0.53376
 Alpha virt. eigenvalues --   -0.28928  -0.19746  -0.15072  -0.12231  -0.08867
 Alpha virt. eigenvalues --   -0.06212  -0.05431  -0.04634  -0.03994  -0.02474
 Alpha virt. eigenvalues --   -0.01939  -0.01615  -0.01279  -0.00702   0.00455

 Mulliken charges:
               1
     1  C   -0.566814
     2  C    0.501459
     3  C   -0.703668
     4  C    0.302054
     5  C   -0.006659
     6  H    0.325962
     7  H    0.373046
     8  H    0.379304
     9  H    0.333500
    10  N   -0.108880
    11  O    0.048228
    12  O    0.045179
    13  C   -0.475223
    14  H    0.397737
    15  Br   0.154776
 Sum of Mulliken charges =   1.00000

 Dipole moment (field-independent basis, Debye):
    X=              0.3044    Y=             -0.4594    Z=              0.0719  Tot=              0.5558
 Quadrupole moment (field-independent basis, Debye-Ang):
   XX=            -68.6231   YY=            -52.1142   ZZ=            -62.8999
   XY=              1.1139   XZ=              0.8198   YZ=              1.4012

 Normal termination of Gaussian 16 at Wed May  1 14:45:48 2024.
