 Gaussian 16, Revision C.01,
 Gaussian 16:  ES64L-G16RevC.01  3-Jul-2019

 ----------------------------------------
 #P wB97XD/6-311+G* NoSymm #P Field=X-165
 ----------------------------------------

 -------
 TitleMe
 -------
 Symbolic Z-matrix:
 Charge =  1 Multiplicity = 1

                          Input orientation:
 ---------------------------------------------------------------------
 Center     Atomic      Atomic             Coordinates (Angstroms)
 Number     Number       Type             X           Y           Z
 ---------------------------------------------------------------------
      1          6           0        0.029500    1.339700    0.068200
      2          6           0        1.434800    1.286700    0.006400
      3          6           0        2.111800    0.051100   -0.005400
      4          6           0        1.445100   -1.137200    0.031200
      5          6           0       -0.687900    0.168200    0.110000
      6          1           0       -0.471300    2.298400    0.078100
      7          1           0        2.027300    2.196500   -0.032200
      8          1           0        1.989700   -2.076400    0.023200
      9          1           0       -1.771600    0.180400    0.158200
     10          7           0        3.586400    0.051000   -0.067500
     11          8           0        4.147100   -1.059700   -0.088100
     12          8           0        4.145000    1.163900   -0.090100
     13          6           0       -0.023600   -1.145800    0.083500
     14          1           0       -0.436700   -1.872500    0.788900
     15         35           0       -0.535900   -1.869700   -1.740800
 ---------------------------------------------------------------------

 SCF Done:  E(RwB97XD) =  -3010.54604823     A.U. after   26 cycles

 Alpha  occ. eigenvalues -- -483.30185 -62.85232 -56.64892 -56.64366 -56.64363
 Alpha  occ. eigenvalues --  -19.37473 -19.37406 -14.77073 -10.56871 -10.54888
 Alpha  occ. eigenvalues --  -10.54390 -10.53502 -10.52954 -10.51360  -9.01054
 Alpha  occ. eigenvalues --   -6.83641  -6.81911  -6.81895  -2.93567  -2.93106
 Alpha  occ. eigenvalues --   -2.93092  -2.91708  -2.91708  -1.41202  -1.24080
 Alpha  occ. eigenvalues --   -1.19982  -1.11310  -1.08961  -1.02690  -0.96483
 Alpha  occ. eigenvalues --   -0.92863  -0.87561  -0.81769  -0.77575  -0.76372
 Alpha  occ. eigenvalues --   -0.73986  -0.73732  -0.71995  -0.69694  -0.67736
 Alpha  occ. eigenvalues --   -0.66861  -0.64540  -0.61119  -0.58022  -0.55756
 Alpha  occ. eigenvalues --   -0.53506  -0.48353  -0.46950  -0.46812
 Alpha virt. eigenvalues --   -0.27382  -0.16233  -0.14421  -0.12880  -0.09347
 Alpha virt. eigenvalues --   -0.08652  -0.07623  -0.06499  -0.03521  -0.02875
 Alpha virt. eigenvalues --   -0.02055  -0.00842  -0.00431  -0.00072   0.00746

 Mulliken charges:
               1
     1  C   -0.527543
     2  C    0.431975
     3  C   -0.643349
     4  C    0.329295
     5  C   -0.032305
     6  H    0.299091
     7  H    0.394488
     8  H    0.397523
     9  H    0.272267
    10  N   -0.117579
    11  O    0.109247
    12  O    0.106941
    13  C   -0.485075
    14  H    0.377088
    15  Br   0.087934
 Sum of Mulliken charges =   1.00000

 Dipole moment (field-independent basis, Debye):
    X=              4.1820    Y=             -0.0386    Z=              0.3751  Tot=              4.1989
 Quadrupole moment (field-independent basis, Debye-Ang):
   XX=            -59.7522   YY=            -52.6075   ZZ=            -63.9146
   XY=              0.4245   XZ=             -0.1860   YZ=              0.5312

 Normal termination of Gaussian 16 at Wed May  1 14:53:13 2024.
