 Gaussian 16, Revision C.01,
 Gaussian 16:  ES64L-G16RevC.01  3-Jul-2019

 ----------------------------------------
 #P wB97XD/6-311+G* NoSymm #P Field=Y+155
 ----------------------------------------

 -------
 TitleMe
 -------
 Symbolic Z-matrix:
 Charge =  1 Multiplicity = 1

                          Input orientation:
 ---------------------------------------------------------------------
 Center     Atomic      Atomic             Coordinates (Angstroms)
 Number     Number       Type             X           Y           Z
 ---------------------------------------------------------------------
      1          6           0        0.029500    1.339700    0.068200
      2          6           0        1.434800    1.286700    0.006400
      3          6           0        2.111800    0.051100   -0.005400
      4          6           0        1.445100   -1.137200    0.031200
      5          6           0       -0.687900    0.168200    0.110000
      6          1           0       -0.471300    2.298400    0.078100
      7          1           0        2.027300    2.196500   -0.032200
      8          1           0        1.989700   -2.076400    0.023200
      9          1           0       -1.771600    0.180400    0.158200
     10          7           0        3.586400    0.051000   -0.067500
     11          8           0        4.147100   -1.059700   -0.088100
     12          8           0        4.145000    1.163900   -0.090100
     13          6           0       -0.023600   -1.145800    0.083500
     14          1           0       -0.436700   -1.872500    0.788900
     15         35           0       -0.535900   -1.869700   -1.740800
 ---------------------------------------------------------------------

 SCF Done:  E(RwB97XD) =  -3010.55255460     A.U. after   20 cycles

 Alpha  occ. eigenvalues -- -483.28862 -62.83852 -56.63575 -56.62963 -56.62959
 Alpha  occ. eigenvalues --  -19.45469 -19.45291 -14.84841 -10.57473 -10.56372
 Alpha  occ. eigenvalues --  -10.56353 -10.56080 -10.55766 -10.53416  -8.99632
 Alpha  occ. eigenvalues --   -6.82389  -6.80393  -6.80372  -2.92274  -2.91747
 Alpha  occ. eigenvalues --   -2.91729  -2.90133  -2.90133  -1.49145  -1.32133
 Alpha  occ. eigenvalues --   -1.21812  -1.12868  -1.11243  -1.02444  -1.00487
 Alpha  occ. eigenvalues --   -0.94570  -0.90292  -0.84936  -0.80342  -0.79942
 Alpha  occ. eigenvalues --   -0.79426  -0.77608  -0.75521  -0.75125  -0.71362
 Alpha  occ. eigenvalues --   -0.68576  -0.66929  -0.62756  -0.58992  -0.56714
 Alpha  occ. eigenvalues --   -0.55704  -0.55034  -0.53434  -0.52923
 Alpha virt. eigenvalues --   -0.28612  -0.20565  -0.14894  -0.14292  -0.11858
 Alpha virt. eigenvalues --   -0.10292  -0.07135  -0.06526  -0.05504  -0.03531
 Alpha virt. eigenvalues --   -0.02239  -0.01453  -0.01060  -0.00108   0.00256

 Mulliken charges:
               1
     1  C   -0.602552
     2  C    0.608702
     3  C   -0.808640
     4  C    0.357429
     5  C   -0.058843
     6  H    0.265668
     7  H    0.306449
     8  H    0.422645
     9  H    0.346822
    10  N   -0.102765
    11  O    0.110588
    12  O   -0.059129
    13  C   -0.512152
    14  H    0.442863
    15  Br   0.282916
 Sum of Mulliken charges =   1.00000

 Dipole moment (field-independent basis, Debye):
    X=             -1.3261    Y=             -5.0702    Z=             -0.6258  Tot=              5.2780
 Quadrupole moment (field-independent basis, Debye-Ang):
   XX=            -72.0382   YY=            -50.3097   ZZ=            -61.3723
   XY=             -3.6667   XZ=              1.6188   YZ=              3.7228

 Normal termination of Gaussian 16 at Wed May  1 15:10:32 2024.
