 Gaussian 16, Revision C.01,
 Gaussian 16:  ES64L-G16RevC.01  3-Jul-2019

 ----------------------------------------
 #P wB97XD/6-311+G* NoSymm #P Field=Y-107
 ----------------------------------------

 -------
 TitleMe
 -------
 Symbolic Z-matrix:
 Charge =  1 Multiplicity = 1

                          Input orientation:
 ---------------------------------------------------------------------
 Center     Atomic      Atomic             Coordinates (Angstroms)
 Number     Number       Type             X           Y           Z
 ---------------------------------------------------------------------
      1          6           0        0.519300    1.233000   -0.031900
      2          6           0        1.944500    1.269200   -0.036700
      3          6           0        2.620400    0.092800   -0.025000
      4          6           0       -0.196000    0.030100    0.001000
      5          1           0       -0.020700    2.174200   -0.043400
      6          1           0        2.482800    2.208900   -0.036100
      7          1           0       -1.277700    0.039900    0.011700
      8          7           0        4.092100    0.095900    0.036600
      9          8           0        4.639300   -1.021700    0.144600
     10          8           0        4.664900    1.198400   -0.023300
     11          6           0        0.494300   -1.167100    0.021000
     12          1           0       -0.032500   -2.114900    0.054500
     13          6           0        1.962900   -1.216500   -0.021100
     14          1           0        2.443600   -1.963100    0.615100
     15         35           0        2.173000   -1.949100   -1.906200
 ---------------------------------------------------------------------

 SCF Done:  E(RwB97XD) =  -3010.53470228     A.U. after   21 cycles

 Alpha  occ. eigenvalues -- -483.32743 -62.87783 -56.67454 -56.66913 -56.66909
 Alpha  occ. eigenvalues --  -19.46418 -19.46213 -14.85732 -10.59480 -10.59425
 Alpha  occ. eigenvalues --  -10.58035 -10.57075 -10.53200 -10.53159  -9.03603
 Alpha  occ. eigenvalues --   -6.86221  -6.84439  -6.84428  -2.96140  -2.95665
 Alpha  occ. eigenvalues --   -2.95655  -2.94229  -2.94228  -1.49995  -1.32952
 Alpha  occ. eigenvalues --   -1.23027  -1.13494  -1.12928  -1.05775  -1.00830
 Alpha  occ. eigenvalues --   -0.95856  -0.90936  -0.85301  -0.81162  -0.80600
 Alpha  occ. eigenvalues --   -0.80207  -0.78389  -0.76300  -0.76007  -0.72666
 Alpha  occ. eigenvalues --   -0.68924  -0.67727  -0.63837  -0.60801  -0.58247
 Alpha  occ. eigenvalues --   -0.57593  -0.56989  -0.55969  -0.55416
 Alpha virt. eigenvalues --   -0.30730  -0.20524  -0.16913  -0.13578  -0.12091
 Alpha virt. eigenvalues --   -0.08599  -0.07988  -0.06447  -0.04874  -0.04005
 Alpha virt. eigenvalues --   -0.03666  -0.03122  -0.02642  -0.02215  -0.01294

 Mulliken charges:
               1
     1  C   -0.115849
     2  C    0.197319
     3  C   -0.056972
     4  C   -0.306581
     5  H    0.388477
     6  H    0.389513
     7  H    0.333883
     8  N   -0.236215
     9  O    0.029951
    10  O    0.131625
    11  C   -0.209026
    12  H    0.316865
    13  C   -0.352606
    14  H    0.384980
    15  Br   0.104635
 Sum of Mulliken charges =   1.00000

 Dipole moment (field-independent basis, Debye):
    X=              2.6225    Y=              2.2363    Z=             -0.3289  Tot=              3.4622
 Quadrupole moment (field-independent basis, Debye-Ang):
   XX=            -68.0141   YY=            -52.9183   ZZ=            -63.3389
   XY=              3.5753   XZ=             -1.6413   YZ=              0.7973

 Normal termination of Gaussian 16 at Thu May  2 14:20:13 2024.
