 Gaussian 16, Revision C.01,
 Gaussian 16:  ES64L-G16RevC.01  3-Jul-2019

 --------------------------------------
 #P wB97XD/6-311+G* NoSymm #P Field=Z-9
 --------------------------------------

 -------
 TitleMe
 -------
 Symbolic Z-matrix:
 Charge =  1 Multiplicity = 1

                          Input orientation:
 ---------------------------------------------------------------------
 Center     Atomic      Atomic             Coordinates (Angstroms)
 Number     Number       Type             X           Y           Z
 ---------------------------------------------------------------------
      1          6           0        0.029500    1.339700    0.068200
      2          6           0        1.434800    1.286700    0.006400
      3          6           0        2.111800    0.051100   -0.005400
      4          6           0        1.445100   -1.137200    0.031200
      5          6           0       -0.687900    0.168200    0.110000
      6          1           0       -0.471300    2.298400    0.078100
      7          1           0        2.027300    2.196500   -0.032200
      8          1           0        1.989700   -2.076400    0.023200
      9          1           0       -1.771600    0.180400    0.158200
     10          7           0        3.586400    0.051000   -0.067500
     11          8           0        4.147100   -1.059700   -0.088100
     12          8           0        4.145000    1.163900   -0.090100
     13          6           0       -0.023600   -1.145800    0.083500
     14          1           0       -0.436700   -1.872500    0.788900
     15         35           0       -0.535900   -1.869700   -1.740800
 ---------------------------------------------------------------------

 SCF Done:  E(RwB97XD) =  -3010.53536361     A.U. after   18 cycles

 Alpha  occ. eigenvalues -- -483.31216 -62.86245 -56.65932 -56.65368 -56.65365
 Alpha  occ. eigenvalues --  -19.45699 -19.45625 -14.85202 -10.58166 -10.57345
 Alpha  occ. eigenvalues --  -10.57009 -10.56817 -10.56561 -10.52763  -9.02054
 Alpha  occ. eigenvalues --   -6.84716  -6.82867  -6.82853  -2.94625  -2.94133
 Alpha  occ. eigenvalues --   -2.94120  -2.92641  -2.92641  -1.49463  -1.32438
 Alpha  occ. eigenvalues --   -1.22467  -1.13913  -1.11574  -1.04323  -1.00854
 Alpha  occ. eigenvalues --   -0.95283  -0.90764  -0.85090  -0.80567  -0.80457
 Alpha  occ. eigenvalues --   -0.79805  -0.78107  -0.75913  -0.75728  -0.72141
 Alpha  occ. eigenvalues --   -0.69160  -0.67364  -0.63531  -0.60002  -0.56990
 Alpha  occ. eigenvalues --   -0.56380  -0.55968  -0.55441  -0.55154
 Alpha virt. eigenvalues --   -0.29463  -0.21124  -0.15517  -0.13208  -0.08513
 Alpha virt. eigenvalues --   -0.05931  -0.05486  -0.04720  -0.04457  -0.03022
 Alpha virt. eigenvalues --   -0.02383  -0.02182  -0.01402  -0.00993   0.00271

 Mulliken charges:
               1
     1  C   -0.579089
     2  C    0.520258
     3  C   -0.717627
     4  C    0.288274
     5  C    0.006901
     6  H    0.334197
     7  H    0.366348
     8  H    0.373977
     9  H    0.351142
    10  N   -0.106893
    11  O    0.031091
    12  O    0.027891
    13  C   -0.470380
    14  H    0.407098
    15  Br   0.166811
 Sum of Mulliken charges =   1.00000

 Dipole moment (field-independent basis, Debye):
    X=             -0.8069    Y=             -0.5527    Z=              0.1358  Tot=              0.9874
 Quadrupole moment (field-independent basis, Debye-Ang):
   XX=            -71.2183   YY=            -52.0364   ZZ=            -62.7876
   XY=              1.2749   XZ=              1.1828   YZ=              1.5287

 Normal termination of Gaussian 16 at Wed May  1 15:25:09 2024.
