 Gaussian 16, Revision C.01,
 Gaussian 16:  ES64L-G16RevC.01  3-Jul-2019

 ----------------------------------------
 #P wB97XD/6-311+G* NoSymm #P Field=Z+282
 ----------------------------------------

 -------
 TitleMe
 -------
 Symbolic Z-matrix:
 Charge =  1 Multiplicity = 1

                          Input orientation:
 ---------------------------------------------------------------------
 Center     Atomic      Atomic             Coordinates (Angstroms)
 Number     Number       Type             X           Y           Z
 ---------------------------------------------------------------------
      1          6           0        0.029500    1.339700    0.068200
      2          6           0        1.434800    1.286700    0.006400
      3          6           0        2.111800    0.051100   -0.005400
      4          6           0        1.445100   -1.137200    0.031200
      5          6           0       -0.687900    0.168200    0.110000
      6          1           0       -0.471300    2.298400    0.078100
      7          1           0        2.027300    2.196500   -0.032200
      8          1           0        1.989700   -2.076400    0.023200
      9          1           0       -1.771600    0.180400    0.158200
     10          7           0        3.586400    0.051000   -0.067500
     11          8           0        4.147100   -1.059700   -0.088100
     12          8           0        4.145000    1.163900   -0.090100
     13          6           0       -0.023600   -1.145800    0.083500
     14          1           0       -0.436700   -1.872500    0.788900
     15         35           0       -0.535900   -1.869700   -1.740800
 ---------------------------------------------------------------------

 SCF Done:  E(RwB97XD) =  -3010.56294292     A.U. after   19 cycles

 Alpha  occ. eigenvalues -- -483.27296 -62.82240 -56.62011 -56.61332 -56.61332
 Alpha  occ. eigenvalues --  -19.44725 -19.44674 -14.84209 -10.56281 -10.55896
 Alpha  occ. eigenvalues --  -10.55829 -10.55575 -10.55438 -10.51785  -8.97989
 Alpha  occ. eigenvalues --   -6.80868  -6.78669  -6.78665  -2.90722  -2.90141
 Alpha  occ. eigenvalues --   -2.90135  -2.88379  -2.88379  -1.48470  -1.31454
 Alpha  occ. eigenvalues --   -1.21100  -1.12211  -1.10220  -1.00969  -0.99748
 Alpha  occ. eigenvalues --   -0.93793  -0.89583  -0.84086  -0.79604  -0.79261
 Alpha  occ. eigenvalues --   -0.78734  -0.77149  -0.74882  -0.74613  -0.70244
 Alpha  occ. eigenvalues --   -0.67919  -0.66221  -0.61259  -0.58199  -0.55873
 Alpha  occ. eigenvalues --   -0.54992  -0.54436  -0.51437  -0.50897
 Alpha virt. eigenvalues --   -0.27744  -0.20261  -0.16413  -0.13708  -0.12301
 Alpha virt. eigenvalues --   -0.11471  -0.10430  -0.07355  -0.07093  -0.05994
 Alpha virt. eigenvalues --   -0.03629  -0.01758  -0.00747  -0.00040   0.00319

 Mulliken charges:
               1
     1  C   -0.534694
     2  C    0.403039
     3  C   -0.682252
     4  C    0.246015
     5  C   -0.094908
     6  H    0.331269
     7  H    0.369836
     8  H    0.370869
     9  H    0.345534
    10  N   -0.116817
    11  O    0.036638
    12  O    0.034585
    13  C   -0.448479
    14  H    0.303980
    15  Br   0.435385
 Sum of Mulliken charges =   1.00000

 Dipole moment (field-independent basis, Debye):
    X=             -1.5278    Y=             -1.7083    Z=             -5.0011  Tot=              5.5013
 Quadrupole moment (field-independent basis, Debye-Ang):
   XX=            -72.2862   YY=            -50.5672   ZZ=            -58.0160
   XY=              2.1341   XZ=             -1.1931   YZ=              5.8435

 Normal termination of Gaussian 16 at Wed May  1 15:31:31 2024.
