 Gaussian 16, Revision A.03,
 Gaussian 16:  ES64L-G16RevA.03 25-Dec-2016

 --------------------------------------------------------------------
 #p B3LYP/6-311+G** #p TD=(singlets,nstates=30)IOp(6/8=3) IOp(9/40=4)
 --------------------------------------------------------------------

 --------------------------------
 Scan Step 127, Bond Length 1.135
 --------------------------------
 Symbolic Z-matrix:
 Charge =  0 Multiplicity = 1

                         Standard orientation:
 ---------------------------------------------------------------------
 Center     Atomic      Atomic             Coordinates (Angstroms)
 Number     Number       Type             X           Y           Z
 ---------------------------------------------------------------------
      1          6           0        0.000000    0.000000   -0.493581
      2          1           0        0.000000    0.937260   -1.084931
      3          1           0       -0.000000   -0.937260   -1.084931
      4          8           0        0.000000   -0.000000    0.641419
 ---------------------------------------------------------------------

 SCF Done:  E(RB3LYP) =  -114.533700837     A.U. after    9 cycles

 Excitation energies and oscillator strengths:

 Excited State   1:      Singlet-A2     4.3557 eV  284.65 nm  f=0.0000  <S**2>=0.000
       3 -> 27         0.00272
       3 -> 38         0.00230
       3 -> 45         0.00222
       4 -> 27         0.00229
       4 -> 38        -0.00065
       4 -> 45        -0.00119
       5 ->  9         0.02108
       5 -> 13        -0.00510
       5 -> 17         0.00599
       5 -> 23        -0.00114
       5 -> 29         0.00418
       5 -> 31         0.00276
       5 -> 36         0.00378
       5 -> 44         0.00067
       5 -> 47         0.00014
       5 -> 52         0.00083
       6 -> 27         0.00014
       6 -> 38        -0.00076
       6 -> 45         0.00174
       7 -> 12        -0.00062
       7 -> 16         0.00234
       7 -> 18        -0.00239
       7 -> 22         0.00110
       7 -> 24         0.00137
       7 -> 30        -0.00082
       7 -> 33         0.00040
       7 -> 35        -0.00038
       7 -> 40        -0.00034
       7 -> 48         0.00049
       7 -> 50         0.00027
       7 -> 53         0.00044
       8 ->  9         0.70417
       8 -> 13        -0.05805
       8 -> 17         0.02390
       8 -> 23        -0.01140
       8 -> 29         0.00808
       8 -> 31         0.00318
       8 -> 36        -0.00066
       8 -> 44        -0.00019
       8 -> 47        -0.00022
       8 -> 52         0.00154
       3 <- 27         0.00183
       3 <- 38         0.00193
       3 <- 45         0.00231
       4 <- 27         0.00311
       4 <- 45        -0.00104
       5 <-  9        -0.00020
       5 <- 13        -0.00088
       5 <- 17        -0.00087
       5 <- 23         0.00055
       5 <- 29        -0.00057
       5 <- 31        -0.00102
       5 <- 36         0.00175
       5 <- 44         0.00031
       5 <- 47         0.00017
       5 <- 52         0.00022
       6 <- 27         0.00065
       6 <- 38        -0.00069
       6 <- 45         0.00135
       7 <- 12        -0.00090
       7 <- 16        -0.00632
       7 <- 18        -0.00050
       7 <- 22         0.00701
       7 <- 24        -0.00044
       7 <- 30         0.00289
       7 <- 33        -0.00134
       7 <- 35        -0.00252
       7 <- 40        -0.00102
       7 <- 42         0.00020
       7 <- 48         0.00031
       7 <- 50         0.00015
       7 <- 53         0.00119
       8 <-  9        -0.02055
       8 <- 13         0.00403
       8 <- 17        -0.00402
       8 <- 23         0.00079
       8 <- 29        -0.00071
       8 <- 31         0.00124
       8 <- 36        -0.00174
       8 <- 52         0.00045
 This state for optimization and/or second-order correction.
 Total Energy, E(TD-HF/TD-DFT) =  -114.373632097
 Copying the excited state density for this state as the 1-particle RhoCI density.

 Excited State   2:      Singlet-B2     6.7393 eV  183.97 nm  f=0.0418  <S**2>=0.000
       3 -> 12         0.00134
       3 -> 16         0.00069
       3 -> 18         0.00113
       3 -> 22        -0.00028
       3 -> 24         0.00131
       3 -> 30        -0.00011
       3 -> 33         0.00014
       3 -> 35         0.00032
       4 -> 12        -0.00384
       4 -> 16         0.00149
       4 -> 18         0.00226
       4 -> 22        -0.00336
       4 -> 24         0.00362
       4 -> 30         0.00016
       4 -> 33        -0.00067
       4 -> 35        -0.00073
       4 -> 40        -0.00049
       5 -> 10        -0.00469
       5 -> 11        -0.00929
       5 -> 14         0.00693
       5 -> 15        -0.00107
       5 -> 19         0.00198
       5 -> 20         0.00102
       5 -> 21         0.00526
       5 -> 26         0.00263
       5 -> 28         0.00169
       5 -> 32         0.00044
       5 -> 34        -0.00103
       5 -> 37        -0.00028
       5 -> 39        -0.00031
       5 -> 41        -0.00020
       5 -> 43        -0.00056
       5 -> 46        -0.00046
       6 -> 12         0.00073
       6 -> 16         0.00138
       6 -> 18         0.00294
       6 -> 22        -0.00269
       6 -> 24         0.00145
       6 -> 30        -0.00042
       6 -> 33        -0.00017
       6 -> 35        -0.00019
       6 -> 40         0.00021
       6 -> 42        -0.00023
       6 -> 48         0.00042
       6 -> 50        -0.00044
       7 -> 27         0.00033
       7 -> 38        -0.00042
       7 -> 45         0.00059
       8 -> 10         0.70402
       8 -> 11        -0.06084
       8 -> 14         0.00730
       8 -> 15        -0.00805
       8 -> 19         0.01535
       8 -> 20         0.01201
       8 -> 21        -0.00401
       8 -> 25         0.00053
       8 -> 26         0.00185
       8 -> 28         0.00062
       8 -> 32        -0.00056
       8 -> 34         0.00195
       8 -> 37         0.00047
       8 -> 39         0.00046
       8 -> 41        -0.00016
       8 -> 43         0.00066
       8 -> 46        -0.00077
       8 -> 54         0.00017
       3 <- 12         0.00035
       3 <- 16         0.00053
       3 <- 18         0.00045
       3 <- 22        -0.00039
       3 <- 24         0.00081
       3 <- 30        -0.00011
       3 <- 33         0.00012
       3 <- 35         0.00030
       4 <- 12         0.00066
       4 <- 16         0.00176
       4 <- 18         0.00225
       4 <- 22        -0.00205
       4 <- 24         0.00253
       4 <- 30         0.00012
       4 <- 33        -0.00043
       4 <- 35        -0.00046
       4 <- 40        -0.00018
       4 <- 42        -0.00021
       4 <- 48        -0.00011
       5 <- 10         0.00245
       5 <- 11        -0.00024
       5 <- 14         0.00496
       5 <- 15        -0.00097
       5 <- 19         0.00045
       5 <- 20         0.00057
       5 <- 21         0.00230
       5 <- 25         0.00173
       5 <- 26         0.00158
       5 <- 28         0.00037
       5 <- 32         0.00020
       5 <- 34        -0.00101
       5 <- 37        -0.00033
       5 <- 39        -0.00017
       5 <- 43        -0.00041
       5 <- 46        -0.00039
       5 <- 51        -0.00010
       6 <- 12         0.00024
       6 <- 18         0.00145
       6 <- 22        -0.00088
       6 <- 24         0.00053
       6 <- 30         0.00033
       6 <- 33        -0.00024
       6 <- 35        -0.00035
       6 <- 40         0.00020
       6 <- 42        -0.00022
       6 <- 48         0.00035
       6 <- 50        -0.00044
       6 <- 53         0.00012
       7 <- 27         0.00026
       7 <- 38        -0.00031
       7 <- 45         0.00051
       8 <- 10        -0.00224
       8 <- 11        -0.00060
       8 <- 14        -0.00692
       8 <- 15        -0.00014
       8 <- 19        -0.00035
       8 <- 20        -0.00044
       8 <- 21        -0.00252
       8 <- 25        -0.00262
       8 <- 26        -0.00034
       8 <- 28        -0.00068
       8 <- 32        -0.00099
       8 <- 34         0.00092
       8 <- 37         0.00045
       8 <- 39         0.00037
       8 <- 43         0.00048
       8 <- 46        -0.00052
       8 <- 51        -0.00011

 Excited State   3:      Singlet-B2     7.5342 eV  164.56 nm  f=0.0230  <S**2>=0.000
       3 -> 12        -0.00026
       3 -> 16        -0.00069
       3 -> 18         0.00069
       3 -> 22         0.00033
       3 -> 24         0.00024
       3 -> 30         0.00179
       3 -> 33         0.00013
       3 -> 35         0.00039
       3 -> 40         0.00037
       3 -> 42        -0.00011
       3 -> 48         0.00034
       3 -> 50        -0.00026
       4 -> 12         0.00297
       4 -> 16        -0.00041
       4 -> 18         0.00291
       4 -> 22        -0.00152
       4 -> 24         0.00317
       4 -> 30        -0.00113
       4 -> 33         0.00052
       4 -> 35         0.00047
       4 -> 42        -0.00016
       4 -> 48         0.00022
       4 -> 50        -0.00012
       5 -> 10        -0.00764
       5 -> 11         0.00015
       5 -> 14         0.00712
       5 -> 15        -0.00698
       5 -> 19        -0.00334
       5 -> 20        -0.00372
       5 -> 21         0.00108
       5 -> 25         0.00137
       5 -> 26         0.00016
       5 -> 28         0.00160
       5 -> 32        -0.00012
       5 -> 34        -0.00145
       5 -> 37        -0.00016
       5 -> 39         0.00042
       5 -> 41        -0.00081
       5 -> 46         0.00084
       5 -> 51         0.00043
       6 -> 12        -0.00321
       6 -> 16        -0.00190
       6 -> 18        -0.00118
       6 -> 22         0.00141
       6 -> 24         0.00011
       6 -> 30         0.00077
       6 -> 33        -0.00049
       6 -> 35        -0.00148
       6 -> 40        -0.00097
       6 -> 42         0.00011
       6 -> 48        -0.00094
       6 -> 50         0.00060
       6 -> 53         0.00011
       7 -> 27        -0.00025
       7 -> 38        -0.00105
       7 -> 45        -0.00158
       8 -> 10         0.06141
       8 -> 11         0.70352
       8 -> 14        -0.00939
       8 -> 15         0.01379
       8 -> 19        -0.02662
       8 -> 20         0.01017
       8 -> 21        -0.00240
       8 -> 25         0.00060
       8 -> 26        -0.00164
       8 -> 28         0.00011
       8 -> 32        -0.00035
       8 -> 39        -0.00012
       8 -> 41        -0.00133
       8 -> 43         0.00021
       8 -> 46         0.00156
       8 -> 51         0.00089
       8 -> 54        -0.00015
       3 <- 12         0.00033
       3 <- 16        -0.00024
       3 <- 18         0.00083
       3 <- 24         0.00036
       3 <- 30         0.00105
       3 <- 33         0.00022
       3 <- 35         0.00044
       3 <- 40         0.00033
       3 <- 48         0.00028
       3 <- 50        -0.00017
       3 <- 53        -0.00025
       4 <- 12         0.00035
       4 <- 16         0.00063
       4 <- 18         0.00076
       4 <- 22        -0.00116
       4 <- 24         0.00131
       4 <- 30        -0.00051
       4 <- 33         0.00048
       4 <- 35         0.00011
       4 <- 42        -0.00018
       4 <- 48         0.00015
       4 <- 50        -0.00017
       5 <- 10         0.00129
       5 <- 11        -0.00099
       5 <- 14         0.00240
       5 <- 15        -0.00044
       5 <- 19         0.00089
       5 <- 20        -0.00032
       5 <- 21         0.00081
       5 <- 25         0.00124
       5 <- 26        -0.00032
       5 <- 28         0.00076
       5 <- 32         0.00100
       5 <- 34        -0.00060
       5 <- 37         0.00017
       5 <- 39         0.00015
       5 <- 41        -0.00084
       5 <- 46         0.00077
       5 <- 51         0.00034
       6 <- 12        -0.00033
       6 <- 16        -0.00045
       6 <- 22         0.00058
       6 <- 30         0.00044
       6 <- 33        -0.00031
       6 <- 35        -0.00115
       6 <- 40        -0.00071
       6 <- 48        -0.00078
       6 <- 50         0.00050
       7 <- 38        -0.00084
       7 <- 45        -0.00133
       8 <- 10        -0.00072
       8 <- 11        -0.00020
       8 <- 14        -0.00399
       8 <- 15         0.00052
       8 <- 19         0.00347
       8 <- 20        -0.00126
       8 <- 21        -0.00207
       8 <- 25         0.00023
       8 <- 26        -0.00167
       8 <- 32         0.00119
       8 <- 34         0.00094
       8 <- 39        -0.00040
       8 <- 41        -0.00114
       8 <- 43         0.00011
       8 <- 46         0.00124
       8 <- 51         0.00063

 Excited State   4:      Singlet-A1     7.7005 eV  161.01 nm  f=0.0528  <S**2>=0.000
       3 -> 10         0.00179
       3 -> 11        -0.00097
       3 -> 14         0.00072
       3 -> 15        -0.00024
       3 -> 19         0.00044
       3 -> 20         0.00149
       3 -> 21         0.00060
       3 -> 25        -0.00048
       3 -> 26         0.00107
       3 -> 28         0.00107
       3 -> 32        -0.00015
       3 -> 34        -0.00053
       3 -> 37        -0.00025
       3 -> 41        -0.00021
       3 -> 46         0.00011
       3 -> 49         0.00025
       3 -> 51         0.00028
       3 -> 54        -0.00021
       4 -> 10         0.00508
       4 -> 11         0.00675
       4 -> 14         0.00528
       4 -> 15         0.00018
       4 -> 19         0.00036
       4 -> 20         0.00471
       4 -> 21         0.00154
       4 -> 25         0.00721
       4 -> 26         0.00133
       4 -> 28        -0.00043
       4 -> 32         0.00060
       4 -> 34        -0.00034
       4 -> 39        -0.00016
       4 -> 41         0.00014
       4 -> 43         0.00016
       4 -> 46        -0.00022
       4 -> 51         0.00015
       5 -> 12         0.00695
       5 -> 16         0.00135
       5 -> 18         0.01117
       5 -> 22        -0.00178
       5 -> 24         0.00527
       5 -> 33        -0.00016
       5 -> 35        -0.00079
       5 -> 50         0.00028
       5 -> 53        -0.00014
       6 -> 10         0.01285
       6 -> 11        -0.00324
       6 -> 14         0.00439
       6 -> 15         0.00130
       6 -> 19         0.00339
       6 -> 20         0.00441
       6 -> 21         0.00137
       6 -> 25         0.00305
       6 -> 26         0.00024
       6 -> 28        -0.00153
       6 -> 32         0.00058
       6 -> 34        -0.00011
       6 -> 43         0.00013
       6 -> 49        -0.00060
       6 -> 51        -0.00029
       7 ->  9         0.01507
       7 -> 13         0.00929
       7 -> 17         0.00349
       7 -> 23         0.00522
       7 -> 29        -0.00033
       7 -> 31         0.00086
       7 -> 36         0.00057
       7 -> 44         0.00066
       7 -> 47        -0.00035
       7 -> 52        -0.00011
       8 -> 12         0.70576
       8 -> 16        -0.01367
       8 -> 18         0.02980
       8 -> 22         0.00491
       8 -> 24         0.00304
       8 -> 30         0.00076
       8 -> 33         0.00154
       8 -> 35         0.00204
       8 -> 40        -0.00070
       8 -> 42         0.00032
       8 -> 48        -0.00039
       8 -> 50         0.00030
       8 -> 53        -0.00022
       3 <- 10         0.00060
       3 <- 14         0.00041
       3 <- 20         0.00069
       3 <- 21         0.00046
       3 <- 26         0.00065
       3 <- 28         0.00070
       3 <- 32        -0.00022
       3 <- 34        -0.00033
       3 <- 37        -0.00019
       3 <- 41        -0.00016
       3 <- 46         0.00020
       3 <- 49         0.00020
       3 <- 51         0.00025
       3 <- 54        -0.00019
       4 <- 10         0.00456
       4 <- 11         0.00171
       4 <- 14         0.00388
       4 <- 15        -0.00034
       4 <- 19         0.00023
       4 <- 20         0.00268
       4 <- 21         0.00059
       4 <- 25         0.00398
       4 <- 26         0.00084
       4 <- 32         0.00060
       4 <- 34        -0.00073
       4 <- 39        -0.00023
       4 <- 43         0.00010
       4 <- 46        -0.00020
       4 <- 51         0.00014
       5 <- 12         0.00276
       5 <- 16         0.00220
       5 <- 18         0.00395
       5 <- 22        -0.00057
       5 <- 24         0.00285
       5 <- 30        -0.00011
       5 <- 33        -0.00034
       5 <- 35        -0.00073
       5 <- 50         0.00018
       5 <- 53        -0.00013
       6 <- 10         0.00335
       6 <- 11        -0.00026
       6 <- 14         0.00176
       6 <- 15         0.00040
       6 <- 19         0.00108
       6 <- 20         0.00214
       6 <- 21         0.00046
       6 <- 25         0.00154
       6 <- 26         0.00039
       6 <- 28        -0.00095
       6 <- 32         0.00047
       6 <- 34        -0.00020
       6 <- 41         0.00014
       6 <- 46        -0.00011
       6 <- 49        -0.00048
       6 <- 51        -0.00032
       7 <-  9         0.00123
       7 <- 13         0.00230
       7 <- 17         0.00100
       7 <- 23         0.00269
       7 <- 29        -0.00030
       7 <- 31         0.00061
       7 <- 36         0.00045
       7 <- 44         0.00055
       7 <- 47        -0.00030
       8 <- 12        -0.00127
       8 <- 16        -0.00673
       8 <- 18        -0.00229
       8 <- 22         0.00080
       8 <- 24        -0.00199
       8 <- 30        -0.00026
       8 <- 33         0.00074
       8 <- 35         0.00100
       8 <- 40        -0.00065
       8 <- 42         0.00028
       8 <- 48        -0.00043
       8 <- 50         0.00023
       8 <- 53        -0.00022

 Excited State   5:      Singlet-A2     8.2019 eV  151.16 nm  f=0.0000  <S**2>=0.000
       3 -> 27        -0.00056
       3 -> 38        -0.00050
       3 -> 45        -0.00029
       4 -> 27         0.00019
       4 -> 38         0.00052
       5 ->  9        -0.00812
       5 -> 13        -0.00288
       5 -> 17         0.00631
       5 -> 23        -0.00168
       5 -> 31        -0.00163
       5 -> 36        -0.00110
       5 -> 44        -0.00021
       6 -> 27         0.00023
       6 -> 38         0.00029
       6 -> 45        -0.00030
       7 -> 12        -0.00047
       7 -> 16        -0.00182
       7 -> 18         0.00194
       7 -> 22        -0.00069
       7 -> 24        -0.00011
       7 -> 35         0.00015
       7 -> 40         0.00012
       7 -> 48        -0.00011
       8 ->  9         0.05791
       8 -> 13         0.70422
       8 -> 17         0.01673
       8 -> 23         0.01786
       8 -> 29         0.00011
       8 -> 31        -0.00143
       8 -> 36        -0.00023
       8 -> 47         0.00018
       8 -> 52        -0.00015
       3 <- 27        -0.00019
       3 <- 38        -0.00035
       3 <- 45        -0.00038
       4 <- 27        -0.00017
       5 <-  9        -0.00027
       5 <- 13        -0.00032
       5 <- 17         0.00058
       5 <- 36        -0.00024
       6 <- 38         0.00020
       7 <- 12        -0.00065
       7 <- 16        -0.00089
       7 <- 18         0.00070
       7 <- 22        -0.00111
       7 <- 24        -0.00039
       7 <- 30         0.00020
       7 <- 33         0.00042
       7 <- 35         0.00067
       7 <- 40         0.00039
       7 <- 42        -0.00013
       7 <- 53        -0.00011
       8 <-  9         0.00238
       8 <- 13         0.00140
       8 <- 17         0.00023
       8 <- 23        -0.00021
       8 <- 31        -0.00011
       8 <- 36         0.00018

 Excited State   6:      Singlet-B1     9.9171 eV  125.02 nm  f=0.0005  <S**2>=0.000
       3 ->  9        -0.03105
       3 -> 13         0.00764
       3 -> 17        -0.00771
       3 -> 23         0.00524
       3 -> 29        -0.00333
       3 -> 31        -0.00036
       3 -> 36        -0.00013
       3 -> 44         0.00078
       3 -> 47        -0.00020
       3 -> 52         0.00109
       4 ->  9         0.01668
       4 -> 13        -0.00288
       4 -> 17         0.00108
       4 -> 23        -0.00242

 The electronic state is 1-A1.
 Alpha  occ. eigenvalues --  -19.14673 -10.26779  -1.11486  -0.63489  -0.51916
 Alpha  occ. eigenvalues --   -0.47471  -0.43742  -0.27637
 Alpha virt. eigenvalues --   -0.04611   0.00976   0.04065   0.04304   0.06656
 Alpha virt. eigenvalues --    0.13239   0.18403   0.18589   0.22012   0.22951
 Alpha virt. eigenvalues --    0.27195   0.34199   0.47261   0.47872   0.51022

 Mulliken charges:
               1
     1  C    0.039441
     2  H    0.092444
     3  H    0.092444
     4  O   -0.224330
 Sum of Mulliken charges =   0.00000

 Dipole moment (field-independent basis, Debye):
    X=             -0.0000    Y=              0.0000    Z=             -2.1418  Tot=              2.1418
 Quadrupole moment (field-independent basis, Debye-Ang):
   XX=            -11.5435   YY=            -11.7836   ZZ=            -12.6158
   XY=              0.0000   XZ=              0.0000   YZ=              0.0000

 Normal termination of Gaussian 16 at Fri Sep 17 10:52:39 2021.
