 Gaussian 16, Revision C.01,
 Gaussian 16:  ES64L-G16RevC.01  3-Jul-2019

 ---------------------------------------
 #P wB97XD/6-311+G* NoSymm #P Field=X+77
 ---------------------------------------

 -------
 TitleMe
 -------
 Symbolic Z-matrix:
 Charge =  1 Multiplicity = 1

                          Input orientation:
 ---------------------------------------------------------------------
 Center     Atomic      Atomic             Coordinates (Angstroms)
 Number     Number       Type             X           Y           Z
 ---------------------------------------------------------------------
      1          6           0        0.029500    1.339700    0.068200
      2          6           0        1.434800    1.286700    0.006400
      3          6           0        2.111800    0.051100   -0.005400
      4          6           0        1.445100   -1.137200    0.031200
      5          6           0       -0.687900    0.168200    0.110000
      6          1           0       -0.471300    2.298400    0.078100
      7          1           0        2.027300    2.196500   -0.032200
      8          1           0        1.989700   -2.076400    0.023200
      9          1           0       -1.771600    0.180400    0.158200
     10          7           0        3.586400    0.051000   -0.067500
     11          8           0        4.147100   -1.059700   -0.088100
     12          8           0        4.145000    1.163900   -0.090100
     13          6           0       -0.023600   -1.145800    0.083500
     14          1           0       -0.436700   -1.872500    0.788900
     15         35           0       -0.535900   -1.869700   -1.740800
 ---------------------------------------------------------------------

 SCF Done:  E(RwB97XD) =  -3010.54134419     A.U. after   18 cycles

 Alpha  occ. eigenvalues -- -483.31616 -62.86630 -56.66333 -56.65748 -56.65744
 Alpha  occ. eigenvalues --  -19.49633 -19.49556 -14.89023 -10.58870 -10.58742
 Alpha  occ. eigenvalues --  -10.58573 -10.58360 -10.57340 -10.53488  -9.02428
 Alpha  occ. eigenvalues --   -6.85131  -6.83220  -6.83200  -2.95030  -2.94524
 Alpha  occ. eigenvalues --   -2.94506  -2.92978  -2.92978  -1.53378  -1.36400
 Alpha  occ. eigenvalues --   -1.23745  -1.15303  -1.12682  -1.05093  -1.02901
 Alpha  occ. eigenvalues --   -0.96365  -0.92261  -0.87613  -0.83460  -0.82725
 Alpha  occ. eigenvalues --   -0.82473  -0.79250  -0.79010  -0.76799  -0.73188
 Alpha  occ. eigenvalues --   -0.69999  -0.68398  -0.64661  -0.61074  -0.60780
 Alpha  occ. eigenvalues --   -0.60119  -0.59498  -0.56584  -0.55701
 Alpha virt. eigenvalues --   -0.30383  -0.24141  -0.16350  -0.14745  -0.09795
 Alpha virt. eigenvalues --   -0.07244  -0.06847  -0.05772  -0.05584  -0.03975
 Alpha virt. eigenvalues --   -0.03297  -0.02721  -0.02221  -0.00799  -0.00266

 Mulliken charges:
               1
     1  C   -0.596810
     2  C    0.543655
     3  C   -0.736510
     4  C    0.248368
     5  C    0.028835
     6  H    0.349912
     7  H    0.352264
     8  H    0.362468
     9  H    0.384467
    10  N   -0.104306
    11  O   -0.003419
    12  O   -0.006659
    13  C   -0.456715
    14  H    0.416703
    15  Br   0.217747
 Sum of Mulliken charges =   1.00000

 Dipole moment (field-independent basis, Debye):
    X=             -3.1386    Y=             -0.8511    Z=             -0.2109  Tot=              3.2587
 Quadrupole moment (field-independent basis, Debye-Ang):
   XX=            -76.7307   YY=            -51.7523   ZZ=            -62.0650
   XY=              1.6574   XZ=              1.7023   YZ=              2.2000

 Normal termination of Gaussian 16 at Wed May  1 14:45:33 2024.
