 Gaussian 16, Revision A.03,
 Gaussian 16:  ES64L-G16RevA.03 25-Dec-2016

 --------------------------------------------------------------------
 #p B3LYP/6-311+G** #p TD=(singlets,nstates=30)IOp(6/8=3) IOp(9/40=4)
 --------------------------------------------------------------------

 -------------------------------
 Scan Step 170, Bond Length 1.35
 -------------------------------
 Symbolic Z-matrix:
 Charge =  0 Multiplicity = 1

                         Standard orientation:
 ---------------------------------------------------------------------
 Center     Atomic      Atomic             Coordinates (Angstroms)
 Number     Number       Type             X           Y           Z
 ---------------------------------------------------------------------
      1          6           0        0.000000    0.000000   -0.601081
      2          1           0        0.000000    0.937260   -1.192431
      3          1           0       -0.000000   -0.937260   -1.192431
      4          8           0        0.000000   -0.000000    0.748919
 ---------------------------------------------------------------------

 SCF Done:  E(RB3LYP) =  -114.516472719     A.U. after    9 cycles

 Excitation energies and oscillator strengths:

 Excited State   1:      Singlet-A2     3.1225 eV  397.06 nm  f=0.0000  <S**2>=0.000
       3 -> 27         0.00197
       3 -> 38         0.00163
       3 -> 46         0.00288
       4 -> 27         0.00135
       4 -> 38        -0.00037
       4 -> 46        -0.00141
       5 ->  9         0.01710
       5 -> 13        -0.00076
       5 -> 17         0.00470
       5 -> 23         0.00097
       5 -> 29         0.00408
       5 -> 31        -0.00117
       5 -> 37         0.00262
       5 -> 44         0.00051
       5 -> 48         0.00012
       5 -> 52         0.00062
       6 -> 27        -0.00043
       6 -> 38        -0.00089
       6 -> 46         0.00171
       7 -> 12        -0.00065
       7 -> 15         0.00365
       7 -> 19        -0.00330
       7 -> 25         0.00134
       7 -> 30        -0.00112
       7 -> 33         0.00045
       7 -> 35         0.00011
       7 -> 40         0.00012
       7 -> 42        -0.00012
       7 -> 49         0.00020
       7 -> 50         0.00029
       7 -> 53         0.00048
       8 ->  9         0.70669
       8 -> 13        -0.02760
       8 -> 17         0.02237
       8 -> 23        -0.00773
       8 -> 29         0.01044
       8 -> 31        -0.00099
       8 -> 37         0.00044
       8 -> 48        -0.00028
       8 -> 52         0.00185
       3 <- 27         0.00118
       3 <- 38         0.00130
       3 <- 46         0.00296
       4 <- 27         0.00209
       4 <- 38         0.00016
       4 <- 46        -0.00116
       5 <-  9        -0.00058
       5 <- 13        -0.00073
       5 <- 17        -0.00098
       5 <- 23         0.00046
       5 <- 29        -0.00070
       5 <- 31         0.00064
       5 <- 37         0.00133
       5 <- 44         0.00018
       5 <- 48         0.00012
       5 <- 52         0.00016
       6 <- 27         0.00019
       6 <- 38        -0.00076
       6 <- 46         0.00134
       7 <- 12        -0.00043
       7 <- 15        -0.00851
       7 <- 19         0.00152
       7 <- 22         0.00748
       7 <- 25         0.00021
       7 <- 30         0.00427
       7 <- 33        -0.00107
       7 <- 35         0.00192
       7 <- 40         0.00084
       7 <- 50         0.00019
       7 <- 53         0.00139
       8 <-  9        -0.03201
       8 <- 13         0.00189
       8 <- 17        -0.00510
       8 <- 23         0.00068
       8 <- 29        -0.00152
       8 <- 31        -0.00055
       8 <- 37        -0.00100
       8 <- 52         0.00052
 This state for optimization and/or second-order correction.
 Total Energy, E(TD-HF/TD-DFT) =  -114.401721298
 Copying the excited state density for this state as the 1-particle RhoCI density.

 Excited State   2:      Singlet-B2     6.9535 eV  178.30 nm  f=0.0155  <S**2>=0.000
       3 -> 12         0.00174
       3 -> 15         0.00054
       3 -> 19         0.00141
       3 -> 22        -0.00034
       3 -> 25         0.00113
       3 -> 33         0.00028
       3 -> 35        -0.00060
       3 -> 40        -0.00030
       3 -> 49         0.00025
       3 -> 53        -0.00010
       4 -> 12        -0.00215
       4 -> 15         0.00214
       4 -> 19         0.00169
       4 -> 22        -0.00317
       4 -> 25         0.00295
       4 -> 30         0.00031
       4 -> 33        -0.00019
       4 -> 35         0.00033
       4 -> 40         0.00042
       4 -> 42        -0.00013
       5 -> 10        -0.00860
       5 -> 11        -0.00553
       5 -> 14         0.00742
       5 -> 16        -0.00053
       5 -> 18         0.00421
       5 -> 20         0.00218
       5 -> 21        -0.00557
       5 -> 24        -0.00093
       5 -> 26         0.00191
       5 -> 28         0.00096
       5 -> 32        -0.00106
       5 -> 34        -0.00098
       5 -> 36        -0.00020
       5 -> 39        -0.00016
       5 -> 41        -0.00055
       5 -> 43        -0.00042
       5 -> 45        -0.00011
       5 -> 54         0.00013
       6 -> 12        -0.00133
       6 -> 15         0.00127
       6 -> 19         0.00071
       6 -> 22        -0.00201
       6 -> 25         0.00084
       6 -> 30        -0.00047
       6 -> 33        -0.00032
       6 -> 35         0.00077
       6 -> 40         0.00013
       6 -> 42        -0.00014
       6 -> 49         0.00034
       6 -> 50        -0.00017
       7 -> 38        -0.00074
       8 -> 10         0.70312
       8 -> 11        -0.06696
       8 -> 14         0.02401
       8 -> 16        -0.00222
       8 -> 18         0.00714
       8 -> 20         0.01730
       8 -> 21         0.00199
       8 -> 24         0.00016
       8 -> 26         0.00327
       8 -> 28         0.00144
       8 -> 32         0.00088
       8 -> 34         0.00047
       8 -> 36         0.00021
       8 -> 39         0.00029
       8 -> 41        -0.00029
       8 -> 43         0.00059
       8 -> 45        -0.00011
       8 -> 47         0.00019
       8 -> 51        -0.00025
       8 -> 54         0.00025
       3 <- 12         0.00038
       3 <- 15         0.00047
       3 <- 19         0.00054
       3 <- 22        -0.00056
       3 <- 25         0.00059
       3 <- 33         0.00024
       3 <- 35        -0.00053
       3 <- 40        -0.00030
       3 <- 49         0.00030
       3 <- 53        -0.00010
       4 <- 12         0.00077
       4 <- 15         0.00199
       4 <- 19         0.00161
       4 <- 22        -0.00203
       4 <- 25         0.00197
       4 <- 30         0.00021
       4 <- 42        -0.00022
       4 <- 50        -0.00014
       5 <- 10         0.00218
       5 <- 11        -0.00023
       5 <- 14         0.00447
       5 <- 16        -0.00044
       5 <- 18         0.00041
       5 <- 20         0.00056
       5 <- 21        -0.00147
       5 <- 24        -0.00225
       5 <- 26         0.00133
       5 <- 28         0.00012
       5 <- 32        -0.00083
       5 <- 34        -0.00083
       5 <- 36        -0.00021
       5 <- 39        -0.00011
       5 <- 41        -0.00038
       5 <- 43        -0.00034
       6 <- 12        -0.00012
       6 <- 15        -0.00048
       6 <- 19         0.00087
       6 <- 22        -0.00021
       6 <- 25         0.00028
       6 <- 30         0.00051
       6 <- 33        -0.00037
       6 <- 35         0.00078
       6 <- 40         0.00011
       6 <- 42        -0.00012
       6 <- 49         0.00026
       6 <- 50        -0.00019
       6 <- 53         0.00020
       7 <- 38        -0.00055
       8 <- 10        -0.00136
       8 <- 11        -0.00088
       8 <- 14        -0.00385
       8 <- 16        -0.00066
       8 <- 18        -0.00093
       8 <- 20        -0.00068
       8 <- 21         0.00134
       8 <- 24         0.00143
       8 <- 26        -0.00094
       8 <- 28        -0.00031
       8 <- 32         0.00073
       8 <- 34        -0.00011
       8 <- 36         0.00031
       8 <- 39         0.00011
       8 <- 43         0.00033

 Excited State   3:      Singlet-B1     7.5170 eV  164.94 nm  f=0.0014  <S**2>=0.000
       3 ->  9        -0.03341
       3 -> 13         0.00390
       3 -> 17        -0.00648
       3 -> 23         0.00332
       3 -> 29        -0.00208
       3 -> 31        -0.00043
       3 -> 44         0.00053
       3 -> 48         0.00040
       3 -> 52         0.00111
       4 ->  9         0.01636
       4 -> 13        -0.00272
       4 -> 17         0.00081
       4 -> 23        -0.00249
       4 -> 29         0.00014
       4 -> 31        -0.00218
       4 -> 37        -0.00045
       4 -> 48        -0.00153
       4 -> 52        -0.00090
       5 -> 27        -0.00141
       5 -> 38         0.00202
       5 -> 46         0.00226
       6 ->  9         0.70555
       6 -> 13        -0.02935
       6 -> 17         0.02108
       6 -> 23        -0.01217
       6 -> 29         0.00681
       6 -> 31         0.00395
       6 -> 37        -0.00259
       6 -> 44        -0.00349
       6 -> 48         0.00524
       6 -> 52         0.00186
       7 -> 10         0.00067
       7 -> 11         0.00245
       7 -> 14        -0.00112
       7 -> 16        -0.01175
       7 -> 18         0.00140
       7 -> 20         0.00191
       7 -> 21        -0.00260
       7 -> 24         0.00161
       7 -> 26         0.00083
       7 -> 28        -0.00472
       7 -> 32        -0.00124
       7 -> 34         0.00022
       7 -> 36        -0.00158
       7 -> 39         0.00019
       7 -> 41        -0.00169
       7 -> 43         0.00092
       7 -> 45         0.00461
       7 -> 47         0.00255
       7 -> 51         0.00112
       7 -> 54         0.00057
       8 -> 27         0.00216
       8 -> 38         0.00073
       8 -> 46         0.00663
       3 <-  9        -0.01059
       3 <- 13         0.00036
       3 <- 17        -0.00333
       3 <- 23         0.00018
       3 <- 29        -0.00131
       3 <- 31        -0.00035
       3 <- 37        -0.00012
       3 <- 44        -0.00017
       3 <- 48         0.00066
       3 <- 52         0.00089
       4 <-  9         0.00586
       4 <- 17         0.00245
       4 <- 23        -0.00029
       4 <- 29         0.00223
       4 <- 31        -0.00195
       4 <- 44         0.00020
       4 <- 48        -0.00132
       4 <- 52        -0.00050
       5 <- 27        -0.00156
       5 <- 38         0.00154
       5 <- 46         0.00200
       6 <-  9        -0.02183
       6 <- 13         0.00257
       6 <- 17        -0.00302
       6 <- 23         0.00027
       6 <- 29        -0.00246
       6 <- 31         0.00271
       6 <- 37        -0.00254
       6 <- 44        -0.00214
       6 <- 48         0.00461
       6 <- 52         0.00068
       7 <- 10         0.00228
       7 <- 11         0.00390
       7 <- 14         0.00150
       7 <- 16         0.00105
       7 <- 18         0.01215
       7 <- 20         0.00765
       7 <- 21        -0.00675
       7 <- 24         0.00608
       7 <- 26         0.00340
       7 <- 28         0.00054
       7 <- 32        -0.00112
       7 <- 34         0.00150
       7 <- 36        -0.00253
       7 <- 39         0.00042
       7 <- 41        -0.00116
       7 <- 43         0.00087
       7 <- 45         0.00418
       7 <- 47         0.00212
       7 <- 51         0.00080
       7 <- 54         0.00105
       8 <- 27         0.00212
       8 <- 38         0.00080
       8 <- 46         0.00590

 Excited State   4:      Singlet-B2     7.6386 eV  162.31 nm  f=0.0286  <S**2>=0.000
       3 -> 12        -0.00037
       3 -> 15        -0.00127
       3 -> 19         0.00148
       3 -> 22         0.00055
       3 -> 25        -0.00013
       3 -> 30         0.00294
       3 -> 33         0.00018
       3 -> 35        -0.00085
       3 -> 40        -0.00069
       3 -> 49         0.00081
       3 -> 50        -0.00017
       4 -> 12         0.00214
       4 -> 15         0.00073
       4 -> 19         0.00126
       4 -> 22        -0.00149
       4 -> 25         0.00251
       4 -> 30        -0.00158
       4 -> 33         0.00048
       4 -> 35        -0.00062
       4 -> 49         0.00019
       5 -> 10        -0.00319
       5 -> 11         0.00013
       5 -> 14         0.01086
       5 -> 16        -0.00614
       5 -> 18        -0.00064
       5 -> 20        -0.00429
       5 -> 21        -0.00344
       5 -> 24        -0.00064
       5 -> 26         0.00192
       5 -> 28         0.00150
       5 -> 32         0.00020
       5 -> 34        -0.00065
       5 -> 36        -0.00056
       5 -> 39         0.00057
       5 -> 41        -0.00060
       5 -> 43         0.00025
       5 -> 45         0.00093
       5 -> 47         0.00018
       5 -> 51        -0.00046
       6 -> 12        -0.00250
       6 -> 15        -0.00100
       6 -> 19        -0.00075
       6 -> 22         0.00093
       6 -> 25         0.00017
       6 -> 30         0.00128
       6 -> 33        -0.00053
       6 -> 35         0.00150
       6 -> 40         0.00125
       6 -> 42         0.00010
       6 -> 49        -0.00146
       6 -> 50         0.00021
       6 -> 53         0.00014
       7 -> 27         0.00045
       7 -> 38        -0.00073
       7 -> 46        -0.00236
       8 -> 10         0.06635
       8 -> 11         0.70240
       8 -> 14         0.00536
       8 -> 16         0.00892
       8 -> 18         0.04375
       8 -> 20        -0.00749
       8 -> 21         0.00175
       8 -> 24         0.00159
       8 -> 28         0.00325
       8 -> 32         0.00012
       8 -> 34        -0.00025
       8 -> 36        -0.00046
       8 -> 39        -0.00026
       8 -> 41        -0.00095
       8 -> 43         0.00041
       8 -> 45         0.00289
       8 -> 47         0.00014
       8 -> 51        -0.00131
       8 -> 54         0.00010
       3 <- 12         0.00033
       3 <- 15        -0.00042
       3 <- 19         0.00115
       3 <- 30         0.00151
       3 <- 33         0.00028
       3 <- 35        -0.00081
       3 <- 40        -0.00064
       3 <- 49         0.00076
       3 <- 50        -0.00011
       3 <- 53        -0.00040
       4 <- 12         0.00023
       4 <- 15         0.00095
       4 <- 19         0.00020
       4 <- 22        -0.00122
       4 <- 25         0.00110
       4 <- 30        -0.00090
       4 <- 33         0.00046
       4 <- 35        -0.00039
       4 <- 49         0.00014
       5 <- 10         0.00104
       5 <- 11        -0.00153
       5 <- 14         0.00274
       5 <- 16        -0.00044
       5 <- 18        -0.00187
       5 <- 20        -0.00023
       5 <- 21        -0.00099
       5 <- 24        -0.00143
       5 <- 26         0.00021
       5 <- 28         0.00060
       5 <- 32        -0.00066
       5 <- 34         0.00019
       5 <- 39         0.00015
       5 <- 41        -0.00065
       5 <- 43         0.00013
       5 <- 45         0.00092
       5 <- 51        -0.00031
       6 <- 12        -0.00022
       6 <- 15        -0.00152
       6 <- 19         0.00061
       6 <- 22         0.00122
       6 <- 25        -0.00016
       6 <- 30         0.00159
       6 <- 33        -0.00053
       6 <- 35         0.00140
       6 <- 40         0.00106
       6 <- 42         0.00011
       6 <- 49        -0.00121
       6 <- 50         0.00015
       6 <- 53         0.00016
       7 <- 27         0.00050
       7 <- 38        -0.00058
       7 <- 46        -0.00196
       8 <- 10        -0.00117
       8 <- 11        -0.00309
       8 <- 14        -0.00382
       8 <- 16         0.00029
       8 <- 18        -0.00634
       8 <- 20         0.00152
       8 <- 21         0.00186
       8 <- 24        -0.00062
       8 <- 26        -0.00166
       8 <- 28         0.00084
       8 <- 32        -0.00151
       8 <- 34         0.00184
       8 <- 39        -0.00090
       8 <- 41        -0.00096
       8 <- 43         0.00017
       8 <- 45         0.00236
       8 <- 47        -0.00021
       8 <- 51        -0.00085

 Excited State   5:      Singlet-A1     7.6522 eV  162.02 nm  f=0.1305  <S**2>=0.000
       3 -> 10         0.00550
       3 -> 11         0.01429
       3 -> 14         0.00737
       3 -> 16        -0.00135
       3 -> 18         0.02422
       3 -> 20         0.00246
       3 -> 21        -0.00652
       3 -> 24         0.00685
       3 -> 26         0.00907
       3 -> 28         0.00143
       3 -> 32         0.00315
       3 -> 34        -0.00393
       3 -> 36        -0.00201
       3 -> 39         0.00148
       3 -> 41         0.00021
       3 -> 43         0.00070
       3 -> 45         0.00183
       3 -> 47         0.00076
       3 -> 51         0.00012
       3 -> 54         0.00028
       4 -> 10         0.02804
       4 -> 11        -0.01126
       4 -> 14         0.01666
       4 -> 16         0.00176
       4 -> 18        -0.00793
       4 -> 20         0.01006
       4 -> 21        -0.00028
       4 -> 24        -0.00846
       4 -> 26         0.00634
       4 -> 28         0.00087
       4 -> 32        -0.00132
       4 -> 34         0.00322
       4 -> 36         0.00077
       4 -> 39        -0.00020
       4 -> 45        -0.00078
       4 -> 47        -0.00154
       5 -> 12         0.03354
       5 -> 15         0.03382
       5 -> 19         0.00304
       5 -> 22         0.00106
       5 -> 25         0.01437
       5 -> 30        -0.00342
       5 -> 33        -0.00315
       5 -> 35         0.00152
       5 -> 40         0.00165
       5 -> 42         0.00075
       5 -> 49         0.00060
       5 -> 50        -0.00042
       5 -> 53        -0.00038
       6 -> 10        -0.03251
       6 -> 11        -0.05349
       6 -> 14        -0.01968
       6 -> 16        -0.03210
       6 -> 18        -0.09216
       6 -> 20        -0.04264
       6 -> 21         0.03127
       6 -> 24        -0.02747
       6 -> 26        -0.01438
       6 -> 28        -0.01169
       6 -> 32        -0.00020
       6 -> 34        -0.00335
       6 -> 36         0.00250
       6 -> 41        -0.00107
       6 -> 43         0.00036
       6 -> 45         0.00074
       6 -> 47         0.00177
       6 -> 51         0.00072
       6 -> 54        -0.00023
       7 ->  9         0.68040
       7 -> 13         0.02820
       7 -> 17        -0.02820
       7 -> 23         0.00800
       7 -> 29        -0.00550
       7 -> 31        -0.00134
       7 -> 44        -0.00077
       7 -> 48         0.00058
       7 -> 52         0.00098
       8 -> 12         0.04096
       8 -> 15         0.14649
       8 -> 19        -0.02518
       8 -> 22        -0.05006
       8 -> 25         0.00430
       8 -> 30        -0.01536
       8 -> 33         0.00617
       8 -> 35        -0.00758
       8 -> 40        -0.00290
       8 -> 42        -0.00038
       8 -> 49         0.00060
       8 -> 50         0.00042
       8 -> 53        -0.00106
       3 <- 10         0.00276
       3 <- 11         0.00826
       3 <- 14         0.00501
       3 <- 16        -0.00017
       3 <- 18         0.01528
       3 <- 20         0.00184
       3 <- 21        -0.00530
       3 <- 24         0.00469
       3 <- 26         0.00587
       3 <- 28         0.00108
       3 <- 32         0.00279
       3 <- 34        -0.00249
       3 <- 36        -0.00138
       3 <- 39         0.00111
       3 <- 41         0.00015
       3 <- 43         0.00068
       3 <- 45         0.00190
       3 <- 47         0.00102
       3 <- 51         0.00011
       3 <- 54         0.00031
       4 <- 10         0.01056
       4 <- 11        -0.00485
       4 <- 14         0.00685
       4 <- 16         0.00044
       4 <- 18        -0.00440
       4 <- 20         0.00577
       4 <- 24        -0.00484
       4 <- 26         0.00430
       4 <- 32        -0.00172
       4 <- 34         0.00245
       4 <- 36         0.00044
       4 <- 39        -0.00020

 The electronic state is 1-A1.
 Alpha  occ. eigenvalues --  -19.16032 -10.30080  -1.00639  -0.66710  -0.49243
 Alpha  occ. eigenvalues --   -0.44597  -0.37428  -0.28853
 Alpha virt. eigenvalues --   -0.10021   0.00309   0.03445   0.04180   0.06258
 Alpha virt. eigenvalues --    0.12190   0.16322   0.18839   0.21820   0.22710
 Alpha virt. eigenvalues --    0.23635   0.30384   0.41827   0.44048   0.50943

 Mulliken charges:
               1
     1  C   -0.012705
     2  H    0.145097
     3  H    0.145097
     4  O   -0.277490
 Sum of Mulliken charges =  -0.00000

 Dipole moment (field-independent basis, Debye):
    X=             -0.0000    Y=             -0.0000    Z=             -3.0773  Tot=              3.0773
 Quadrupole moment (field-independent basis, Debye-Ang):
   XX=            -12.1723   YY=            -11.7450   ZZ=            -12.0376
   XY=              0.0000   XZ=              0.0000   YZ=              0.0000

 Normal termination of Gaussian 16 at Fri Sep 17 10:52:46 2021.
