 Gaussian 16, Revision A.03,
 Gaussian 16:  ES64L-G16RevA.03 25-Dec-2016

 --------------------------------------------------------------------
 #p B3LYP/6-311+G** #p TD=(singlets,nstates=30)IOp(6/8=3) IOp(9/40=4)
 --------------------------------------------------------------------

 -------------------------------
 Scan Step 83, Bond Length 0.915
 -------------------------------
 Symbolic Z-matrix:
 Charge =  0 Multiplicity = 1

                         Standard orientation:
 ---------------------------------------------------------------------
 Center     Atomic      Atomic             Coordinates (Angstroms)
 Number     Number       Type             X           Y           Z
 ---------------------------------------------------------------------
      1          6           0        0.000000    0.000000   -0.383581
      2          1           0        0.000000    0.937260   -0.974931
      3          1           0       -0.000000   -0.937260   -0.974931
      4          8           0        0.000000   -0.000000    0.531419
 ---------------------------------------------------------------------

 SCF Done:  E(RB3LYP) =  -114.282839517     A.U. after    9 cycles

 Excitation energies and oscillator strengths:

 Excited State   1:      Singlet-A2     5.4534 eV  227.35 nm  f=0.0000  <S**2>=0.000
       3 -> 27         0.00292
       3 -> 36         0.00232
       3 -> 46         0.00132
       4 -> 27         0.00341
       4 -> 36        -0.00073
       4 -> 46        -0.00074
       5 ->  9         0.01001
       5 -> 13         0.00937
       5 -> 17         0.00613
       5 -> 22        -0.00347
       5 -> 28         0.00316
       5 -> 32         0.00212
       5 -> 37         0.00369
       5 -> 43         0.00056
       5 -> 52         0.00075
       6 -> 12        -0.00058
       6 -> 16        -0.00121
       6 -> 18        -0.00061
       6 -> 23         0.00176
       6 -> 24         0.00062
       6 -> 29        -0.00045
       6 -> 33         0.00027
       6 -> 35         0.00054
       6 -> 40        -0.00013
       6 -> 42         0.00050
       6 -> 47         0.00066
       6 -> 50        -0.00017
       6 -> 53         0.00030
       7 -> 27         0.00095
       7 -> 36        -0.00033
       7 -> 46         0.00126
       8 ->  9         0.69565
       8 -> 13         0.12272
       8 -> 17         0.02952
       8 -> 22        -0.00882
       8 -> 28         0.00547
       8 -> 32         0.00346
       8 -> 37        -0.00224
       8 -> 43        -0.00022
       8 -> 52         0.00100
       3 <- 27         0.00214
       3 <- 36         0.00199
       3 <- 46         0.00137
       4 <- 27         0.00395
       4 <- 36        -0.00043
       4 <- 46        -0.00071
       5 <-  9         0.00026
       5 <- 13         0.00113
       5 <- 22         0.00028
       5 <- 28        -0.00013
       5 <- 32        -0.00110
       5 <- 37         0.00167
       5 <- 43         0.00044
       5 <- 49         0.00011
       5 <- 52         0.00019
       6 <- 12        -0.00094
       6 <- 16         0.00232
       6 <- 18        -0.00314
       6 <- 23         0.00492
       6 <- 24        -0.00154
       6 <- 29         0.00177
       6 <- 33        -0.00097
       6 <- 35         0.00207
       6 <- 40        -0.00019
       6 <- 42         0.00092
       6 <- 47         0.00050
       6 <- 53         0.00079
       7 <- 27         0.00112
       7 <- 36        -0.00038
       7 <- 46         0.00099
       8 <-  9        -0.00999
       8 <- 13        -0.00826
       8 <- 17        -0.00411
       8 <- 22         0.00052
       8 <- 28        -0.00040
       8 <- 32         0.00268
       8 <- 37        -0.00228
       8 <- 52         0.00031
 This state for optimization and/or second-order correction.
 Total Energy, E(TD-HF/TD-DFT) =  -114.082429075
 Copying the excited state density for this state as the 1-particle RhoCI density.

 Excited State   2:      Singlet-B2     6.0160 eV  206.09 nm  f=0.0816  <S**2>=0.000
       3 -> 12         0.00094
       3 -> 16         0.00011
       3 -> 18         0.00107
       3 -> 24         0.00118
       3 -> 29        -0.00018
       3 -> 35        -0.00013
       3 -> 42         0.00013
       3 -> 50        -0.00014
       4 -> 12        -0.00599
       4 -> 16         0.00094
       4 -> 18         0.00168
       4 -> 23        -0.00269
       4 -> 24         0.00406
       4 -> 29        -0.00047
       4 -> 33        -0.00099
       4 -> 35         0.00089
       4 -> 40        -0.00019
       4 -> 42         0.00045
       5 -> 10         0.00103
       5 -> 11        -0.00723
       5 -> 14         0.00558
       5 -> 15         0.00157
       5 -> 19         0.00371
       5 -> 20        -0.00104
       5 -> 21         0.00312
       5 -> 25         0.00109
       5 -> 26        -0.00131
       5 -> 30         0.00235
       5 -> 34         0.00022
       5 -> 38        -0.00076
       5 -> 39         0.00017
       5 -> 41         0.00034
       5 -> 44         0.00044
       5 -> 45        -0.00057
       5 -> 48         0.00036
       6 -> 27         0.00093
       6 -> 36         0.00015
       6 -> 46         0.00085
       7 -> 12         0.00220
       7 -> 16         0.00240
       7 -> 18         0.00404
       7 -> 23        -0.00234
       7 -> 24         0.00233
       7 -> 35        -0.00015
       7 -> 42        -0.00038
       7 -> 47         0.00038
       7 -> 50         0.00050
       8 -> 10         0.70621
       8 -> 11        -0.01974
       8 -> 14        -0.01601
       8 -> 15         0.01148
       8 -> 19         0.01991
       8 -> 20         0.00839
       8 -> 21        -0.00740
       8 -> 25         0.00075
       8 -> 26        -0.00065
       8 -> 31         0.00265
       8 -> 34         0.00163
       8 -> 38         0.00079
       8 -> 39        -0.00057
       8 -> 41        -0.00031
       8 -> 44        -0.00048
       8 -> 45        -0.00104
       8 -> 48         0.00030
       8 -> 54        -0.00015
       3 <- 12         0.00030
       3 <- 16        -0.00013
       3 <- 18         0.00061
       3 <- 23        -0.00013
       3 <- 24         0.00084
       3 <- 29        -0.00016
       3 <- 35        -0.00013
       3 <- 42         0.00010
       4 <- 16         0.00064
       4 <- 18         0.00261
       4 <- 23        -0.00162
       4 <- 24         0.00307
       4 <- 29        -0.00038
       4 <- 33        -0.00073
       4 <- 35         0.00066
       4 <- 40        -0.00022
       4 <- 42         0.00018
       5 <- 10         0.00216
       5 <- 14         0.00434
       5 <- 15         0.00165
       5 <- 19         0.00094
       5 <- 20        -0.00028
       5 <- 21         0.00187
       5 <- 25         0.00167
       5 <- 26        -0.00127
       5 <- 30         0.00086
       5 <- 31        -0.00034
       5 <- 38        -0.00051
       5 <- 39         0.00016
       5 <- 41         0.00038
       5 <- 44         0.00029
       5 <- 45        -0.00050
       5 <- 48         0.00031
       6 <- 27         0.00072
       6 <- 36         0.00012
       6 <- 46         0.00072
       7 <- 12         0.00061
       7 <- 16         0.00169
       7 <- 18         0.00152
       7 <- 23        -0.00093
       7 <- 24         0.00105
       7 <- 29         0.00065
       7 <- 33        -0.00011
       7 <- 42        -0.00033
       7 <- 47         0.00035
       7 <- 50         0.00055
       8 <- 10        -0.00412
       8 <- 11        -0.00181
       8 <- 14        -0.01219
       8 <- 15        -0.00166
       8 <- 19        -0.00096
       8 <- 20        -0.00030
       8 <- 21        -0.00406
       8 <- 25        -0.00309
       8 <- 26        -0.00061
       8 <- 30        -0.00053
       8 <- 31         0.00131
       8 <- 34         0.00157
       8 <- 38         0.00079
       8 <- 39        -0.00046
       8 <- 41        -0.00018
       8 <- 44        -0.00044
       8 <- 45        -0.00073
       8 <- 48         0.00029

 Excited State   3:      Singlet-B2     6.8041 eV  182.22 nm  f=0.0215  <S**2>=0.000
       3 -> 12        -0.00012
       3 -> 16         0.00068
       3 -> 23         0.00018
       3 -> 24         0.00042
       3 -> 29         0.00103
       3 -> 33         0.00014
       3 -> 35        -0.00030
       3 -> 42        -0.00031
       3 -> 47         0.00020
       3 -> 50         0.00022
       4 -> 12         0.00288
       4 -> 16         0.00391
       4 -> 18         0.00218
       4 -> 23        -0.00148
       4 -> 24         0.00364
       4 -> 29        -0.00115
       4 -> 33         0.00056
       4 -> 35        -0.00018
       4 -> 40        -0.00024
       4 -> 47         0.00014
       4 -> 50         0.00013
       5 -> 10        -0.00550
       5 -> 14         0.00332
       5 -> 15         0.00495
       5 -> 19        -0.00348
       5 -> 20        -0.00100
       5 -> 21         0.00132
       5 -> 25         0.00103
       5 -> 26         0.00125
       5 -> 30         0.00076
       5 -> 31        -0.00209
       5 -> 34        -0.00055
       5 -> 39        -0.00072
       5 -> 41        -0.00075
       5 -> 44         0.00011
       5 -> 45         0.00061
       5 -> 48        -0.00045
       5 -> 51        -0.00023
       6 -> 27        -0.00082
       6 -> 36        -0.00132
       6 -> 46        -0.00112
       7 -> 12        -0.00298
       7 -> 16         0.00034
       7 -> 18        -0.00241
       7 -> 23         0.00135
       7 -> 24        -0.00027
       7 -> 33        -0.00027
       7 -> 35         0.00125
       7 -> 40        -0.00032
       7 -> 42         0.00069
       7 -> 47        -0.00067
       7 -> 50        -0.00061
       7 -> 53         0.00016
       8 -> 10         0.02020
       8 -> 11         0.70581
       8 -> 14        -0.01656
       8 -> 15        -0.02266
       8 -> 19        -0.01846
       8 -> 20         0.01470
       8 -> 21        -0.00267
       8 -> 25         0.00033
       8 -> 30        -0.00172
       8 -> 31         0.00031
       8 -> 34         0.00041
       8 -> 38        -0.00014
       8 -> 39        -0.00059
       8 -> 41        -0.00134
       8 -> 44         0.00011
       8 -> 45         0.00072
       8 -> 48        -0.00068
       8 -> 51        -0.00016
       8 -> 54         0.00017
       3 <- 12         0.00025
       3 <- 16         0.00059
       3 <- 18         0.00034
       3 <- 24         0.00048
       3 <- 29         0.00068
       3 <- 33         0.00018
       3 <- 35        -0.00033
       3 <- 42        -0.00027
       3 <- 47         0.00016
       3 <- 50         0.00012
       3 <- 53        -0.00021
       4 <- 12         0.00029
       4 <- 16         0.00055
       4 <- 18         0.00119
       4 <- 23        -0.00128
       4 <- 24         0.00171
       4 <- 29        -0.00049
       4 <- 33         0.00056
       4 <- 35         0.00014
       4 <- 40        -0.00024
       4 <- 50         0.00021
       5 <- 10         0.00136
       5 <- 11        -0.00035
       5 <- 14         0.00187
       5 <- 15         0.00054
       5 <- 19         0.00064
       5 <- 20         0.00023
       5 <- 21         0.00101
       5 <- 25         0.00094
       5 <- 26         0.00093
       5 <- 30         0.00083
       5 <- 31        -0.00071
       5 <- 34        -0.00107
       5 <- 39        -0.00050
       5 <- 41        -0.00076
       5 <- 44         0.00013
       5 <- 45         0.00062
       5 <- 48        -0.00031
       5 <- 51        -0.00022
       6 <- 27        -0.00036
       6 <- 36        -0.00109
       6 <- 46        -0.00097
       7 <- 12        -0.00036
       7 <- 16        -0.00030
       7 <- 18        -0.00025
       7 <- 23         0.00027
       7 <- 29        -0.00029
       7 <- 35         0.00088
       7 <- 40        -0.00026
       7 <- 42         0.00048
       7 <- 47        -0.00058
       7 <- 50        -0.00056
       8 <- 10        -0.00171
       8 <- 11         0.00121
       8 <- 14        -0.00619
       8 <- 15        -0.00132
       8 <- 19         0.00208
       8 <- 20        -0.00189
       8 <- 21        -0.00259
       8 <- 25        -0.00035
       8 <- 26         0.00094
       8 <- 30        -0.00110
       8 <- 31         0.00112
       8 <- 34        -0.00011
       8 <- 38        -0.00030
       8 <- 39        -0.00035
       8 <- 41        -0.00113
       8 <- 45         0.00061
       8 <- 48        -0.00044
       8 <- 51        -0.00018

 Excited State   4:      Singlet-A1     6.9416 eV  178.61 nm  f=0.0449  <S**2>=0.000
       3 -> 10         0.00135
       3 -> 11        -0.00086
       3 -> 14         0.00016
       3 -> 15         0.00056
       3 -> 19         0.00129
       3 -> 20         0.00043
       3 -> 21        -0.00021
       3 -> 25         0.00020
       3 -> 26        -0.00011
       3 -> 30         0.00108
       3 -> 31        -0.00026
       3 -> 34        -0.00021
       3 -> 38        -0.00035
       3 -> 39        -0.00023
       3 -> 41        -0.00014
       3 -> 48        -0.00015
       3 -> 51        -0.00030
       3 -> 54         0.00021
       4 -> 10         0.00558
       4 -> 11         0.01020
       4 -> 14         0.00627
       4 -> 15         0.00165
       4 -> 19         0.00093
       4 -> 20         0.00657
       4 -> 21         0.00227
       4 -> 25         0.00690
       4 -> 26        -0.00082
       4 -> 30        -0.00074
       4 -> 31        -0.00061
       4 -> 34        -0.00099
       4 -> 38        -0.00022
       4 -> 39         0.00078
       4 -> 41         0.00017
       4 -> 45        -0.00033
       4 -> 48        -0.00027
       5 -> 12         0.00761
       5 -> 16         0.00719
       5 -> 18         0.00823
       5 -> 23         0.00047
       5 -> 24         0.00430
       5 -> 29         0.00059
       5 -> 33        -0.00016
       5 -> 35         0.00093
       5 -> 42        -0.00022
       5 -> 50        -0.00036
       5 -> 53        -0.00014
       6 ->  9         0.00808
       6 -> 13        -0.00389
       6 -> 17         0.00518
       6 -> 22         0.00426
       6 -> 28         0.00060
       6 -> 32         0.00088
       6 -> 37         0.00053
       6 -> 43         0.00052
       6 -> 49        -0.00037
       7 -> 10         0.01321
       7 -> 11        -0.00508
       7 -> 14         0.00311
       7 -> 15        -0.00118
       7 -> 19         0.00752
       7 -> 20         0.00329
       7 -> 21         0.00119
       7 -> 25         0.00205
       7 -> 26        -0.00020
       7 -> 31         0.00061
       7 -> 34        -0.00093
       7 -> 39         0.00022
       7 -> 48        -0.00020
       7 -> 51         0.00047
       8 -> 12         0.70551
       8 -> 16         0.04083
       8 -> 18         0.00430
       8 -> 23         0.00395
       8 -> 24         0.00146
       8 -> 29         0.00306
       8 -> 33         0.00153
       8 -> 35        -0.00248
       8 -> 42         0.00135
       8 -> 47        -0.00043
       8 -> 50        -0.00013
       8 -> 53        -0.00013
       3 <- 10         0.00057
       3 <- 11        -0.00031
       3 <- 14         0.00012
       3 <- 15         0.00026
       3 <- 19         0.00070
       3 <- 20         0.00018
       3 <- 25         0.00028
       3 <- 30         0.00064
       3 <- 31        -0.00021
       3 <- 34        -0.00014
       3 <- 38        -0.00026
       3 <- 39        -0.00020
       3 <- 41        -0.00015
       3 <- 48        -0.00017
       3 <- 51        -0.00026
       3 <- 54         0.00019
       4 <- 10         0.00568
       4 <- 11         0.00352
       4 <- 14         0.00466
       4 <- 15         0.00170
       4 <- 19         0.00071
       4 <- 20         0.00371
       4 <- 21         0.00077
       4 <- 25         0.00415
       4 <- 26        -0.00037
       4 <- 31        -0.00086
       4 <- 34        -0.00089
       4 <- 38        -0.00032
       4 <- 39         0.00066
       4 <- 45        -0.00031
       4 <- 48        -0.00022
       5 <- 12         0.00266
       5 <- 16         0.00187
       5 <- 18         0.00383
       5 <- 23         0.00063
       5 <- 24         0.00233
       5 <- 29         0.00018
       5 <- 33        -0.00030
       5 <- 35         0.00081
       5 <- 42        -0.00019
       5 <- 50        -0.00029
       5 <- 53        -0.00013
       6 <-  9         0.00267
       6 <- 13        -0.00150
       6 <- 17         0.00229
       6 <- 22         0.00250
       6 <- 28         0.00035
       6 <- 32         0.00067
       6 <- 37         0.00044
       6 <- 43         0.00044
       6 <- 49        -0.00032
       7 <- 10         0.00444
       7 <- 11        -0.00113
       7 <- 14         0.00148
       7 <- 15        -0.00040
       7 <- 19         0.00316
       7 <- 20         0.00188
       7 <- 21         0.00042
       7 <- 25         0.00121
       7 <- 26        -0.00028
       7 <- 30         0.00022
       7 <- 31         0.00034
       7 <- 34        -0.00066
       7 <- 38        -0.00011
       7 <- 39         0.00029
       7 <- 41         0.00011
       7 <- 51         0.00043
       8 <- 12        -0.00336
       8 <- 16         0.00647
       8 <- 18        -0.00956
       8 <- 23        -0.00048
       8 <- 24        -0.00221
       8 <- 29         0.00145
       8 <- 33         0.00112
       8 <- 35        -0.00171
       8 <- 42         0.00110
       8 <- 47        -0.00050
       8 <- 50        -0.00012
       8 <- 53        -0.00015

 Excited State   5:      Singlet-A2     7.6366 eV  162.35 nm  f=0.0000  <S**2>=0.000
       3 -> 27         0.00155
       3 -> 36         0.00129
       3 -> 46         0.00066
       4 -> 27         0.00070
       4 -> 36        -0.00072
       4 -> 46        -0.00023
       5 ->  9         0.00900
       5 -> 13         0.00674
       5 -> 17        -0.00290
       5 -> 22        -0.00087
       5 -> 28         0.00022
       5 -> 32         0.00220
       5 -> 37         0.00229
       5 -> 43         0.00032
       5 -> 52         0.00037
       6 -> 12         0.00027
       6 -> 16        -0.00207
       6 -> 18        -0.00061
       6 -> 23         0.00120
       6 -> 24         0.00023
       6 -> 29        -0.00035
       6 -> 35         0.00034
       6 -> 42         0.00032
       6 -> 47         0.00032
       6 -> 53         0.00016
       7 -> 27         0.00013
       7 -> 36        -0.00024
       7 -> 46         0.00070
       8 ->  9        -0.12325
       8 -> 13         0.69583
       8 -> 17         0.00208
       8 -> 22        -0.02267
       8 -> 28         0.00160
       8 -> 32         0.00148
       8 -> 37        -0.00086
       8 -> 43        -0.00015
       8 -> 49        -0.00017
       8 -> 52         0.00042
       3 <- 27         0.00090
       3 <- 36         0.00104
       3 <- 46         0.00076
       4 <- 27         0.00125
       4 <- 46        -0.00026
       5 <-  9         0.00030
       5 <- 13         0.00017
       5 <- 17        -0.00056
       5 <- 22         0.00012
       5 <- 32        -0.00022
       5 <- 37         0.00072
       5 <- 43         0.00020
       5 <- 52         0.00012
       6 <- 12         0.00049
       6 <- 16        -0.00048
       6 <- 18        -0.00069
       6 <- 23         0.00239
       6 <- 24        -0.00030
       6 <- 33        -0.00069
       6 <- 35         0.00125
       6 <- 40        -0.00010
       6 <- 42         0.00068
       6 <- 47         0.00013
       6 <- 53         0.00035
       7 <- 27         0.00039
       7 <- 36        -0.00026
       7 <- 46         0.00035
       8 <-  9        -0.00637
       8 <- 13        -0.00058
       8 <- 17        -0.00074
       8 <- 22         0.00051
       8 <- 28        -0.00023
       8 <- 32         0.00091
       8 <- 37        -0.00086
       8 <- 52         0.00017

 Excited State   6:      Singlet-B2     9.9899 eV  124.11 nm  f=0.2767  <S**2>=0.000
       3 -> 12        -0.00042
       3 -> 16         0.00162

 The electronic state is 1-A1.
 Alpha  occ. eigenvalues --  -19.13792 -10.23737  -1.25549  -0.59955  -0.59735
 Alpha  occ. eigenvalues --   -0.54579  -0.51505  -0.24602
 Alpha virt. eigenvalues --    0.01094   0.01391   0.04368   0.04414   0.08563
 Alpha virt. eigenvalues --    0.14130   0.17805   0.20443   0.21906   0.22974
 Alpha virt. eigenvalues --    0.26309   0.36268   0.49989   0.52377   0.53008

 Mulliken charges:
               1
     1  C    0.188775
     2  H    0.011977
     3  H    0.011977
     4  O   -0.212730
 Sum of Mulliken charges =  -0.00000

 Dipole moment (field-independent basis, Debye):
    X=              0.0000    Y=              0.0000    Z=             -0.7208  Tot=              0.7208
 Quadrupole moment (field-independent basis, Debye-Ang):
   XX=            -10.8613   YY=            -12.2537   ZZ=            -13.1563
   XY=             -0.0000   XZ=             -0.0000   YZ=              0.0000

 Normal termination of Gaussian 16 at Fri Sep 17 10:52:32 2021.
