 Gaussian 16, Revision C.01,
 Gaussian 16:  ES64L-G16RevC.01  3-Jul-2019

 ----------------------------------------
 #P wB97XD/6-311+G* NoSymm #P Field=X-223
 ----------------------------------------

 -------
 TitleMe
 -------
 Symbolic Z-matrix:
 Charge =  1 Multiplicity = 1

                          Input orientation:
 ---------------------------------------------------------------------
 Center     Atomic      Atomic             Coordinates (Angstroms)
 Number     Number       Type             X           Y           Z
 ---------------------------------------------------------------------
      1          6           0        0.519300    1.233000   -0.031900
      2          6           0        1.944500    1.269200   -0.036700
      3          6           0        2.620400    0.092800   -0.025000
      4          6           0       -0.196000    0.030100    0.001000
      5          1           0       -0.020700    2.174200   -0.043400
      6          1           0        2.482800    2.208900   -0.036100
      7          1           0       -1.277700    0.039900    0.011700
      8          7           0        4.092100    0.095900    0.036600
      9          8           0        4.639300   -1.021700    0.144600
     10          8           0        4.664900    1.198400   -0.023300
     11          6           0        0.494300   -1.167100    0.021000
     12          1           0       -0.032500   -2.114900    0.054500
     13          6           0        1.962900   -1.216500   -0.021100
     14          1           0        2.443600   -1.963100    0.615100
     15         35           0        2.173000   -1.949100   -1.906200
 ---------------------------------------------------------------------

 SCF Done:  E(RwB97XD) =  -3010.58449683     A.U. after   27 cycles

 Alpha  occ. eigenvalues -- -483.23621 -62.78613 -56.58324 -56.57740 -56.57716
 Alpha  occ. eigenvalues --  -19.32685 -19.32488 -14.72286 -10.51397 -10.51174
 Alpha  occ. eigenvalues --  -10.50826 -10.50193 -10.47950 -10.45197  -8.94396
 Alpha  occ. eigenvalues --   -6.77116  -6.75201  -6.75130  -2.87009  -2.86516
 Alpha  occ. eigenvalues --   -2.86459  -2.84928  -2.84926  -1.36351  -1.19142
 Alpha  occ. eigenvalues --   -1.15281  -1.05909  -1.04706  -0.97139  -0.91658
 Alpha  occ. eigenvalues --   -0.88458  -0.83122  -0.77394  -0.72998  -0.71498
 Alpha  occ. eigenvalues --   -0.69283  -0.68929  -0.67475  -0.64378  -0.62733
 Alpha  occ. eigenvalues --   -0.62052  -0.60020  -0.56815  -0.52094  -0.48294
 Alpha  occ. eigenvalues --   -0.47455  -0.43347  -0.41751  -0.41662
 Alpha virt. eigenvalues --   -0.22869  -0.13220  -0.11776  -0.08358  -0.07898
 Alpha virt. eigenvalues --   -0.05409  -0.03975  -0.02606  -0.00634  -0.00141
 Alpha virt. eigenvalues --    0.01273   0.02212   0.04074   0.04650   0.05405

 Mulliken charges:
               1
     1  C   -0.095355
     2  C    0.136539
     3  C    0.062226
     4  C   -0.287697
     5  H    0.285365
     6  H    0.378736
     7  H    0.213810
     8  N   -0.242373
     9  O    0.175069
    10  O    0.178299
    11  C   -0.337706
    12  H    0.300203
    13  C   -0.445726
    14  H    0.439090
    15  Br   0.239519
 Sum of Mulliken charges =   1.00000

 Dipole moment (field-independent basis, Debye):
    X=              9.2793    Y=             -1.2266    Z=             -1.0781  Tot=              9.4219
 Quadrupole moment (field-independent basis, Debye-Ang):
   XX=            -43.2336   YY=            -50.8619   ZZ=            -61.6059
   XY=             -4.3943   XZ=             -4.3398   YZ=              3.2366

 Normal termination of Gaussian 16 at Thu May  2 14:26:29 2024.
