 Gaussian 16, Revision C.01,
 Gaussian 16:  ES64L-G16RevC.01  3-Jul-2019

 ----------------------------------------
 #P wB97XD/6-311+G* NoSymm #P Field=Y+282
 ----------------------------------------

 -------
 TitleMe
 -------
 Symbolic Z-matrix:
 Charge =  1 Multiplicity = 1

                          Input orientation:
 ---------------------------------------------------------------------
 Center     Atomic      Atomic             Coordinates (Angstroms)
 Number     Number       Type             X           Y           Z
 ---------------------------------------------------------------------
      1          6           0        0.519300    1.233000   -0.031900
      2          6           0        1.944500    1.269200   -0.036700
      3          6           0        2.620400    0.092800   -0.025000
      4          6           0       -0.196000    0.030100    0.001000
      5          1           0       -0.020700    2.174200   -0.043400
      6          1           0        2.482800    2.208900   -0.036100
      7          1           0       -1.277700    0.039900    0.011700
      8          7           0        4.092100    0.095900    0.036600
      9          8           0        4.639300   -1.021700    0.144600
     10          8           0        4.664900    1.198400   -0.023300
     11          6           0        0.494300   -1.167100    0.021000
     12          1           0       -0.032500   -2.114900    0.054500
     13          6           0        1.962900   -1.216500   -0.021100
     14          1           0        2.443600   -1.963100    0.615100
     15         35           0        2.173000   -1.949100   -1.906200
 ---------------------------------------------------------------------

 SCF Done:  E(RwB97XD) =  -3010.58809470     A.U. after   24 cycles

 Alpha  occ. eigenvalues -- -483.27435 -62.82379 -56.62132 -56.61493 -56.61466
 Alpha  occ. eigenvalues --  -19.46558 -19.46051 -14.85427 -10.58508 -10.56691
 Alpha  occ. eigenvalues --  -10.54992 -10.54301 -10.53956 -10.51916  -8.98125
 Alpha  occ. eigenvalues --   -6.80954  -6.78872  -6.78787  -2.90819  -2.90288
 Alpha  occ. eigenvalues --   -2.90221  -2.88556  -2.88555  -1.49843  -1.32829
 Alpha  occ. eigenvalues --   -1.21158  -1.11964  -1.10636  -1.02573  -0.98717
 Alpha  occ. eigenvalues --   -0.93964  -0.89708  -0.84753  -0.80446  -0.79873
 Alpha  occ. eigenvalues --   -0.79185  -0.77113  -0.75794  -0.74140  -0.70443
 Alpha  occ. eigenvalues --   -0.67118  -0.66197  -0.61712  -0.58105  -0.57457
 Alpha  occ. eigenvalues --   -0.56493  -0.55636  -0.51273  -0.50862
 Alpha virt. eigenvalues --   -0.28361  -0.21502  -0.20177  -0.17074  -0.13372
 Alpha virt. eigenvalues --   -0.11913  -0.10034  -0.09891  -0.07576  -0.05671
 Alpha virt. eigenvalues --   -0.05312  -0.03526  -0.01500  -0.00847  -0.00571

 Mulliken charges:
               1
     1  C   -0.104143
     2  C    0.259069
     3  C   -0.163120
     4  C   -0.417947
     5  H    0.216844
     6  H    0.231640
     7  H    0.325518
     8  N   -0.249819
     9  O    0.246919
    10  O   -0.088102
    11  C   -0.151129
    12  H    0.450077
    13  C   -0.437408
    14  H    0.476174
    15  Br   0.405426
 Sum of Mulliken charges =   1.00000

 Dipole moment (field-independent basis, Debye):
    X=              3.2198    Y=             -9.2685    Z=             -1.9482  Tot=             10.0034
 Quadrupole moment (field-independent basis, Debye-Ang):
   XX=            -67.4210   YY=            -47.9901   ZZ=            -59.2690
   XY=            -20.4665   XZ=             -5.1784   YZ=              6.9197

 Normal termination of Gaussian 16 at Thu May  2 14:23:47 2024.
