 Gaussian 16, Revision A.03,
 Gaussian 16:  ES64L-G16RevA.03 25-Dec-2016

 --------------------------------------------------------------------
 #p B3LYP/6-311+G** #p TD=(singlets,nstates=30)IOp(6/8=3) IOp(9/40=4)
 --------------------------------------------------------------------

 ---------------------------------------------
 Scan Step 111, Bond Length 1.0550000000000002
 ---------------------------------------------
 Symbolic Z-matrix:
 Charge =  0 Multiplicity = 1

                         Standard orientation:
 ---------------------------------------------------------------------
 Center     Atomic      Atomic             Coordinates (Angstroms)
 Number     Number       Type             X           Y           Z
 ---------------------------------------------------------------------
      1          6           0        0.000000    0.000000   -0.453581
      2          1           0        0.000000    0.937260   -1.044931
      3          1           0       -0.000000   -0.937260   -1.044931
      4          8           0        0.000000   -0.000000    0.601419
 ---------------------------------------------------------------------

 SCF Done:  E(RB3LYP) =  -114.494468019     A.U. after    9 cycles

 Excitation energies and oscillator strengths:

 Excited State   1:      Singlet-A2     4.8147 eV  257.51 nm  f=0.0000  <S**2>=0.000
       3 -> 27         0.00292
       3 -> 37         0.00244
       3 -> 45         0.00192
       4 -> 27         0.00271
       4 -> 37        -0.00072
       4 -> 45        -0.00105
       5 ->  9         0.01895
       5 -> 13        -0.00732
       5 -> 17         0.00618
       5 -> 23        -0.00217
       5 -> 28         0.00384
       5 -> 31         0.00291
       5 -> 36         0.00400
       5 -> 44         0.00068
       5 -> 47         0.00012
       5 -> 52         0.00086
       6 -> 27         0.00045
       6 -> 37        -0.00063
       6 -> 45         0.00164
       7 -> 12        -0.00062
       7 -> 16         0.00191
       7 -> 18        -0.00186
       7 -> 22         0.00146
       7 -> 24         0.00121
       7 -> 29        -0.00072
       7 -> 34         0.00036
       7 -> 35         0.00048
       7 -> 40        -0.00038
       7 -> 42        -0.00017
       7 -> 48         0.00059
       7 -> 51        -0.00020
       7 -> 53         0.00040
       8 ->  9         0.70190
       8 -> 13        -0.08012
       8 -> 17         0.02535
       8 -> 23        -0.01183
       8 -> 28         0.00711
       8 -> 31         0.00346
       8 -> 36        -0.00127
       8 -> 44        -0.00024
       8 -> 47        -0.00018
       8 -> 52         0.00137
       3 <- 27         0.00202
       3 <- 37         0.00207
       3 <- 45         0.00200
       4 <- 27         0.00349
       4 <- 37        -0.00019
       4 <- 45        -0.00094
       5 <- 13        -0.00095
       5 <- 17        -0.00066
       5 <- 23         0.00051
       5 <- 28        -0.00043
       5 <- 31        -0.00110
       5 <- 36         0.00180
       5 <- 44         0.00038
       5 <- 47         0.00017
       5 <- 52         0.00022
       6 <- 27         0.00086
       6 <- 37        -0.00061
       6 <- 45         0.00127
       7 <- 12        -0.00096
       7 <- 16        -0.00526
       7 <- 18        -0.00141
       7 <- 22         0.00651
       7 <- 24        -0.00081
       7 <- 29         0.00240
       7 <- 34        -0.00128
       7 <- 35         0.00251
       7 <- 40        -0.00084
       7 <- 42        -0.00064
       7 <- 48         0.00042
       7 <- 53         0.00107
       8 <-  9        -0.01706
       8 <- 13         0.00537
       8 <- 17        -0.00385
       8 <- 23         0.00072
       8 <- 28        -0.00053
       8 <- 31         0.00176
       8 <- 36        -0.00202
       8 <- 52         0.00041
 This state for optimization and/or second-order correction.
 Total Energy, E(TD-HF/TD-DFT) =  -114.317529321
 Copying the excited state density for this state as the 1-particle RhoCI density.

 Excited State   2:      Singlet-B2     6.5387 eV  189.62 nm  f=0.0560  <S**2>=0.000
       3 -> 12         0.00118
       3 -> 16         0.00056
       3 -> 18         0.00111
       3 -> 22        -0.00022
       3 -> 24         0.00129
       3 -> 29        -0.00012
       3 -> 35        -0.00024
       4 -> 12        -0.00457
       4 -> 16         0.00089
       4 -> 18         0.00236
       4 -> 22        -0.00327
       4 -> 24         0.00384
       4 -> 34        -0.00081
       4 -> 35         0.00083
       4 -> 40        -0.00047
       4 -> 42        -0.00018
       5 -> 10        -0.00242
       5 -> 11        -0.00910
       5 -> 14         0.00664
       5 -> 15        -0.00130
       5 -> 19         0.00298
       5 -> 21         0.00447
       5 -> 25         0.00034
       5 -> 26         0.00225
       5 -> 30         0.00230
       5 -> 32        -0.00029
       5 -> 33        -0.00068
       5 -> 38        -0.00044
       5 -> 39        -0.00028
       5 -> 43        -0.00054
       5 -> 46        -0.00054
       5 -> 49         0.00020
       6 -> 12         0.00133
       6 -> 16         0.00080
       6 -> 18         0.00377
       6 -> 22        -0.00271
       6 -> 24         0.00175
       6 -> 29        -0.00028
       6 -> 34        -0.00013
       6 -> 40         0.00013
       6 -> 42         0.00033
       6 -> 48         0.00037
       6 -> 51         0.00050
       7 -> 27         0.00052
       7 -> 37        -0.00024
       7 -> 45         0.00072
       8 -> 10         0.70509
       8 -> 11        -0.04698
       8 -> 14        -0.00018
       8 -> 15        -0.00973
       8 -> 19         0.01762
       8 -> 20         0.01041
       8 -> 21        -0.00522
       8 -> 25         0.00079
       8 -> 26         0.00127
       8 -> 30         0.00052
       8 -> 32         0.00122
       8 -> 33         0.00213
       8 -> 38         0.00055
       8 -> 39         0.00054
       8 -> 41        -0.00016
       8 -> 43         0.00069
       8 -> 46        -0.00088
       8 -> 54         0.00017
       3 <- 12         0.00033
       3 <- 16         0.00048
       3 <- 18         0.00049
       3 <- 22        -0.00031
       3 <- 24         0.00085
       3 <- 29        -0.00012
       3 <- 35        -0.00023
       4 <- 12         0.00051
       4 <- 16         0.00135
       4 <- 18         0.00254
       4 <- 22        -0.00199
       4 <- 24         0.00275
       4 <- 34        -0.00055
       4 <- 35         0.00056
       4 <- 40        -0.00027
       4 <- 48        -0.00010
       5 <- 10         0.00243
       5 <- 11        -0.00017
       5 <- 14         0.00489
       5 <- 15        -0.00122
       5 <- 19         0.00072
       5 <- 20         0.00027
       5 <- 21         0.00225
       5 <- 25         0.00168
       5 <- 26         0.00148
       5 <- 30         0.00070
       5 <- 32        -0.00050
       5 <- 33        -0.00065
       5 <- 38        -0.00040
       5 <- 39        -0.00017
       5 <- 41         0.00012
       5 <- 43        -0.00038
       5 <- 46        -0.00046
       5 <- 49         0.00019
       6 <- 12         0.00039
       6 <- 16        -0.00032
       6 <- 18         0.00172
       6 <- 22        -0.00097
       6 <- 24         0.00069
       6 <- 29         0.00041
       6 <- 34        -0.00019
       6 <- 35         0.00025
       6 <- 40         0.00012
       6 <- 42         0.00032
       6 <- 48         0.00031
       6 <- 51         0.00051
       6 <- 53         0.00010
       7 <- 27         0.00040
       7 <- 37        -0.00018
       7 <- 45         0.00061
       8 <- 10        -0.00283
       8 <- 11        -0.00085
       8 <- 14        -0.00866
       8 <- 15         0.00028
       8 <- 19        -0.00053
       8 <- 20        -0.00038
       8 <- 21        -0.00316
       8 <- 25        -0.00286
       8 <- 26         0.00012
       8 <- 30        -0.00069
       8 <- 32         0.00013
       8 <- 33         0.00159
       8 <- 38         0.00056
       8 <- 39         0.00044
       8 <- 43         0.00053
       8 <- 46        -0.00060
       8 <- 49         0.00010
       8 <- 50         0.00014

 Excited State   3:      Singlet-B2     7.3318 eV  169.11 nm  f=0.0210  <S**2>=0.000
       3 -> 12        -0.00020
       3 -> 16        -0.00066
       3 -> 18         0.00052
       3 -> 22         0.00024
       3 -> 24         0.00032
       3 -> 29         0.00148
       3 -> 34         0.00014
       3 -> 35        -0.00034
       3 -> 40         0.00025
       3 -> 42         0.00025
       3 -> 48         0.00026
       3 -> 51         0.00027
       4 -> 12         0.00312
       4 -> 16        -0.00119
       4 -> 18         0.00332
       4 -> 22        -0.00156
       4 -> 24         0.00334
       4 -> 29        -0.00107
       4 -> 34         0.00054
       4 -> 35        -0.00039
       4 -> 42         0.00018
       4 -> 48         0.00018
       4 -> 51         0.00016
       5 -> 10        -0.00735
       5 -> 11         0.00033
       5 -> 14         0.00555
       5 -> 15        -0.00643
       5 -> 19        -0.00383
       5 -> 20        -0.00268
       5 -> 21         0.00102
       5 -> 25         0.00139
       5 -> 26        -0.00075
       5 -> 30         0.00131
       5 -> 32        -0.00132
       5 -> 33        -0.00118
       5 -> 39         0.00048
       5 -> 41        -0.00086
       5 -> 46         0.00076
       5 -> 49        -0.00033
       5 -> 50        -0.00034
       6 -> 12        -0.00323
       6 -> 16        -0.00179
       6 -> 18        -0.00160
       6 -> 22         0.00147
       6 -> 29         0.00049
       6 -> 34        -0.00042
       6 -> 35         0.00143
       6 -> 40        -0.00079
       6 -> 42        -0.00045
       6 -> 48        -0.00077
       6 -> 51        -0.00068
       6 -> 53         0.00013
       7 -> 27        -0.00050
       7 -> 37        -0.00117
       7 -> 45        -0.00141
       8 -> 10         0.04761
       8 -> 11         0.70456
       8 -> 14        -0.01220
       8 -> 15         0.01737
       8 -> 19        -0.02367
       8 -> 20         0.01241
       8 -> 21        -0.00207
       8 -> 25         0.00046
       8 -> 26        -0.00134
       8 -> 30        -0.00095
       8 -> 32        -0.00027
       8 -> 33         0.00031
       8 -> 41        -0.00141
       8 -> 46         0.00118
       8 -> 49        -0.00066
       8 -> 50        -0.00053
       8 -> 54        -0.00017
       3 <- 12         0.00031
       3 <- 16        -0.00030
       3 <- 18         0.00073
       3 <- 24         0.00042
       3 <- 29         0.00091
       3 <- 34         0.00021
       3 <- 35        -0.00039
       3 <- 40         0.00022
       3 <- 42         0.00022
       3 <- 48         0.00021
       3 <- 51         0.00016
       3 <- 53        -0.00023
       4 <- 12         0.00035
       4 <- 16         0.00042
       4 <- 18         0.00099
       4 <- 22        -0.00121
       4 <- 24         0.00140
       4 <- 29        -0.00045
       4 <- 34         0.00050
       4 <- 42         0.00021
       4 <- 48         0.00012
       4 <- 51         0.00021
       5 <- 10         0.00132
       5 <- 11        -0.00076
       5 <- 14         0.00219
       5 <- 15        -0.00046
       5 <- 19         0.00075
       5 <- 20        -0.00010
       5 <- 21         0.00090
       5 <- 25         0.00110
       5 <- 26        -0.00063
       5 <- 30         0.00076
       5 <- 32         0.00018
       5 <- 33        -0.00124
       5 <- 38         0.00017
       5 <- 39         0.00024
       5 <- 41        -0.00088
       5 <- 46         0.00071
       5 <- 49        -0.00020
       5 <- 50        -0.00032
       6 <- 12        -0.00035
       6 <- 16        -0.00019
       6 <- 18        -0.00023
       6 <- 22         0.00045
       6 <- 29         0.00014
       6 <- 34        -0.00022
       6 <- 35         0.00106
       6 <- 40        -0.00058
       6 <- 42        -0.00031
       6 <- 48        -0.00065
       6 <- 51        -0.00058
       7 <- 27        -0.00011
       7 <- 37        -0.00095
       7 <- 45        -0.00119
       8 <- 10        -0.00090
       8 <- 11         0.00043
       8 <- 14        -0.00453
       8 <- 15         0.00067
       8 <- 19         0.00285
       8 <- 20        -0.00145
       8 <- 21        -0.00217
       8 <- 26        -0.00149
       8 <- 30        -0.00056
       8 <- 32         0.00128
       8 <- 38        -0.00017
       8 <- 39        -0.00020
       8 <- 41        -0.00119
       8 <- 46         0.00096
       8 <- 49        -0.00040
       8 <- 50        -0.00044

 Excited State   4:      Singlet-A1     7.4783 eV  165.79 nm  f=0.0538  <S**2>=0.000
       3 -> 10         0.00161
       3 -> 11        -0.00101
       3 -> 14         0.00049
       3 -> 15        -0.00038
       3 -> 19         0.00095
       3 -> 20         0.00101
       3 -> 21         0.00027
       3 -> 25        -0.00018
       3 -> 26         0.00069
       3 -> 30         0.00121
       3 -> 32        -0.00033
       3 -> 33        -0.00029
       3 -> 38        -0.00031
       3 -> 39         0.00014
       3 -> 41        -0.00020
       3 -> 50        -0.00037
       3 -> 54        -0.00021
       4 -> 10         0.00538
       4 -> 11         0.00812
       4 -> 14         0.00580
       4 -> 15        -0.00028
       4 -> 19         0.00052
       4 -> 20         0.00557
       4 -> 21         0.00235
       4 -> 25         0.00714
       4 -> 26         0.00094
       4 -> 30        -0.00050
       4 -> 33        -0.00080
       4 -> 39        -0.00034
       4 -> 41         0.00020
       4 -> 43         0.00014
       4 -> 46        -0.00025
       4 -> 49        -0.00021
       5 -> 12         0.00759
       5 -> 16        -0.00071
       5 -> 18         0.01159
       5 -> 22        -0.00101
       5 -> 24         0.00502
       5 -> 29         0.00020
       5 -> 34        -0.00016
       5 -> 35         0.00084
       5 -> 42         0.00012
       5 -> 51        -0.00034
       5 -> 53        -0.00015
       6 -> 10         0.01331
       6 -> 11        -0.00413
       6 -> 14         0.00413
       6 -> 15         0.00152
       6 -> 19         0.00503
       6 -> 20         0.00441
       6 -> 21         0.00179
       6 -> 25         0.00247
       6 -> 26         0.00055
       6 -> 30        -0.00092
       6 -> 32         0.00057
       6 -> 33        -0.00057
       6 -> 43         0.00012
       6 -> 49        -0.00028
       6 -> 50         0.00055
       7 ->  9         0.01162
       7 -> 13         0.00734
       7 -> 17         0.00451
       7 -> 23         0.00503
       7 -> 31         0.00085
       7 -> 36         0.00055
       7 -> 44         0.00064
       7 -> 47        -0.00036
       7 -> 52        -0.00010
       8 -> 12         0.70569
       8 -> 16        -0.02296
       8 -> 18         0.02698
       8 -> 22         0.00520
       8 -> 24         0.00215
       8 -> 29         0.00163
       8 -> 34         0.00151
       8 -> 35        -0.00217
       8 -> 40        -0.00061
       8 -> 42        -0.00078
       8 -> 48        -0.00036
       8 -> 51        -0.00028
       8 -> 53        -0.00019
       3 <- 10         0.00059
       3 <- 11        -0.00023
       3 <- 14         0.00030
       3 <- 19         0.00042
       3 <- 20         0.00046
       3 <- 21         0.00027
       3 <- 25         0.00012
       3 <- 26         0.00038
       3 <- 30         0.00076
       3 <- 32        -0.00028
       3 <- 33        -0.00014
       3 <- 38        -0.00024
       3 <- 39         0.00012
       3 <- 41        -0.00017
       3 <- 46         0.00016
       3 <- 50        -0.00033
       3 <- 54        -0.00019
       4 <- 10         0.00500
       4 <- 11         0.00231
       4 <- 14         0.00425
       4 <- 15        -0.00069
       4 <- 19         0.00038
       4 <- 20         0.00315
       4 <- 21         0.00096
       4 <- 25         0.00405
       4 <- 26         0.00055
       4 <- 32        -0.00019
       4 <- 33        -0.00102
       4 <- 38        -0.00011
       4 <- 39        -0.00036
       4 <- 46        -0.00024
       4 <- 49        -0.00018
       5 <- 12         0.00277
       5 <- 16         0.00129
       5 <- 18         0.00431
       5 <- 22        -0.00017
       5 <- 24         0.00272
       5 <- 34        -0.00033
       5 <- 35         0.00077
       5 <- 42         0.00010
       5 <- 51        -0.00023
       5 <- 53        -0.00014
       6 <- 10         0.00381
       6 <- 11        -0.00057
       6 <- 14         0.00176
       6 <- 15         0.00050
       6 <- 19         0.00182
       6 <- 20         0.00225
       6 <- 21         0.00069
       6 <- 25         0.00133
       6 <- 26         0.00057
       6 <- 30        -0.00049
       6 <- 32         0.00034
       6 <- 33        -0.00051
       6 <- 39        -0.00015
       6 <- 41         0.00015
       6 <- 49        -0.00016
       6 <- 50         0.00051
       7 <-  9         0.00203
       7 <- 13         0.00214
       7 <- 17         0.00157
       7 <- 23         0.00269
       7 <- 31         0.00061
       7 <- 36         0.00044
       7 <- 44         0.00053
       7 <- 47        -0.00031
       8 <- 12        -0.00191
       8 <- 16        -0.00801
       8 <- 18        -0.00360
       8 <- 22         0.00067
       8 <- 24        -0.00229
       8 <- 29         0.00032
       8 <- 34         0.00086
       8 <- 35        -0.00125
       8 <- 40        -0.00055
       8 <- 42        -0.00065
       8 <- 48        -0.00042
       8 <- 51        -0.00023
       8 <- 53        -0.00020

 Excited State   5:      Singlet-A2     7.9918 eV  155.14 nm  f=0.0000  <S**2>=0.000
       3 -> 27        -0.00078
       3 -> 37        -0.00069
       3 -> 45        -0.00040
       4 -> 37         0.00058
       4 -> 45         0.00012
       5 ->  9        -0.00957
       5 -> 17         0.00551
       5 -> 23        -0.00105
       5 -> 31        -0.00185
       5 -> 36        -0.00138
       5 -> 44        -0.00025
       5 -> 52        -0.00017
       6 -> 27         0.00018
       6 -> 37         0.00028
       6 -> 45        -0.00042
       7 -> 12        -0.00052
       7 -> 16        -0.00182
       7 -> 18         0.00172
       7 -> 22        -0.00076
       7 -> 24        -0.00020
       7 -> 29         0.00016
       7 -> 35        -0.00019
       7 -> 40         0.00014
       7 -> 48        -0.00014
       8 ->  9         0.08019
       8 -> 13         0.70209
       8 -> 17         0.01186
       8 -> 23         0.01941
       8 -> 28        -0.00023
       8 -> 31        -0.00127
       8 -> 47         0.00018
       8 -> 52        -0.00023
       3 <- 27        -0.00034
       3 <- 37        -0.00051
       3 <- 45        -0.00049
       4 <- 27        -0.00035
       4 <- 45         0.00012
       5 <-  9        -0.00025
       5 <- 13        -0.00024
       5 <- 17         0.00063
       5 <- 36        -0.00034
       6 <- 37         0.00022
       6 <- 45        -0.00013
       7 <- 12        -0.00065
       7 <- 16        -0.00071
       7 <- 18         0.00063
       7 <- 22        -0.00143
       7 <- 24        -0.00029
       7 <- 29         0.00017
       7 <- 34         0.00049
       7 <- 35        -0.00082
       7 <- 40         0.00035
       7 <- 42         0.00033
       7 <- 53        -0.00018
       8 <-  9         0.00352
       8 <- 13         0.00134
       8 <- 17         0.00025
       8 <- 23        -0.00030
       8 <- 31        -0.00022
       8 <- 36         0.00031
       8 <- 52        -0.00010

 Excited State   6:      Singlet-B2    10.2581 eV  120.86 nm  f=0.2049  <S**2>=0.000
       3 -> 12        -0.00035
       3 -> 16        -0.00197
       3 -> 18         0.00055
       3 -> 22         0.00145
       3 -> 24         0.00095
       3 -> 29         0.00139
       3 -> 34        -0.00076
       3 -> 40        -0.00013
       3 -> 42        -0.00057

 The electronic state is 1-A1.
 Alpha  occ. eigenvalues --  -19.14202 -10.25446  -1.16459  -0.62202  -0.53994
 Alpha  occ. eigenvalues --   -0.48770  -0.47037  -0.26742
 Alpha virt. eigenvalues --   -0.02360   0.01182   0.04193   0.04351   0.07020
 Alpha virt. eigenvalues --    0.13595   0.18177   0.19539   0.22012   0.22656
 Alpha virt. eigenvalues --    0.27089   0.35295   0.48668   0.49635   0.51270

 Mulliken charges:
               1
     1  C    0.076518
     2  H    0.066349
     3  H    0.066349
     4  O   -0.209216
 Sum of Mulliken charges =   0.00000

 Dipole moment (field-independent basis, Debye):
    X=             -0.0000    Y=              0.0000    Z=             -1.6800  Tot=              1.6800
 Quadrupole moment (field-independent basis, Debye-Ang):
   XX=            -11.2930   YY=            -11.8856   ZZ=            -12.8180
   XY=              0.0000   XZ=              0.0000   YZ=              0.0000

 Normal termination of Gaussian 16 at Fri Sep 17 10:52:37 2021.
