 Gaussian 16, Revision A.03,
 Gaussian 16:  ES64L-G16RevA.03 25-Dec-2016

 --------------------------------------------------------------------
 #p B3LYP/6-311+G** #p TD=(singlets,nstates=30)IOp(6/8=3) IOp(9/40=4)
 --------------------------------------------------------------------

 ------------------------------
 Scan Step 1, Bond Length 0.505
 ------------------------------
 Symbolic Z-matrix:
 Charge =  0 Multiplicity = 1

                         Standard orientation:
 ---------------------------------------------------------------------
 Center     Atomic      Atomic             Coordinates (Angstroms)
 Number     Number       Type             X           Y           Z
 ---------------------------------------------------------------------
      1          6           0        0.000000    0.000000   -0.178581
      2          1           0        0.000000    0.937260   -0.769931
      3          1           0       -0.000000   -0.937260   -0.769931
      4          8           0        0.000000   -0.000000    0.326419
 ---------------------------------------------------------------------

 SCF Done:  E(RB3LYP) =  -108.970978177     A.U. after   11 cycles

 Excitation energies and oscillator strengths:

 Excited State   1:      Singlet-B2     4.2945 eV  288.70 nm  f=0.1634  <S**2>=0.000
       3 -> 11         0.00060
       3 -> 14         0.00176
       3 -> 19         0.00066
       3 -> 22         0.00159
       3 -> 25        -0.00183
       3 -> 31        -0.00040
       3 -> 38        -0.00030
       3 -> 40        -0.00069
       3 -> 42         0.00025
       3 -> 46         0.00013
       3 -> 53         0.00014
       4 ->  9        -0.00222
       4 -> 12         0.00130
       4 -> 13         0.00268
       4 -> 16         0.00107
       4 -> 17         0.00121
       4 -> 20         0.00189
       4 -> 21         0.00153
       4 -> 24         0.00088
       4 -> 28         0.00055
       4 -> 30         0.00172
       4 -> 32         0.00015
       4 -> 33         0.00088
       4 -> 37        -0.00044
       4 -> 43         0.00040
       4 -> 44        -0.00022
       4 -> 47        -0.00059
       4 -> 48        -0.00014
       4 -> 51        -0.00015
       4 -> 54        -0.00014
       5 -> 26         0.00221
       5 -> 35         0.00098
       5 -> 45         0.00059
       6 -> 11         0.01160
       6 -> 14        -0.00036
       6 -> 19         0.00383
       6 -> 22         0.00061
       6 -> 25         0.00264
       6 -> 29        -0.00122
       6 -> 31         0.00087
       6 -> 42        -0.00019
       6 -> 50         0.00018
       7 -> 11         0.00718
       7 -> 14         0.00636
       7 -> 19         0.00383
       7 -> 22         0.00070
       7 -> 25        -0.00341
       7 -> 29        -0.00050
       7 -> 31         0.00120
       7 -> 38         0.00066
       7 -> 42        -0.00032
       7 -> 46         0.00049
       7 -> 50         0.00036
       7 -> 53        -0.00019
       8 ->  9         0.70356
       8 -> 12        -0.00980
       8 -> 13         0.07144
       8 -> 16        -0.01196
       8 -> 17        -0.02434
       8 -> 20         0.00710
       8 -> 21         0.01251
       8 -> 24        -0.00111
       8 -> 28         0.00144
       8 -> 30        -0.00365
       8 -> 32        -0.00125
       8 -> 33        -0.00174
       8 -> 37        -0.00078
       8 -> 39        -0.00036
       8 -> 43         0.00071
       8 -> 44         0.00070
       8 -> 47         0.00042
       8 -> 48         0.00025
       3 <- 11         0.00033
       3 <- 14         0.00133
       3 <- 19         0.00035
       3 <- 22         0.00137
       3 <- 25        -0.00144
       3 <- 29        -0.00016
       3 <- 31        -0.00041
       3 <- 38        -0.00033
       3 <- 40        -0.00066
       3 <- 42         0.00026
       3 <- 46         0.00016
       3 <- 53         0.00016
       4 <-  9        -0.00087
       4 <- 13         0.00217
       4 <- 16         0.00090
       4 <- 17        -0.00023
       4 <- 20         0.00135
       4 <- 21         0.00127
       4 <- 24         0.00038
       4 <- 28         0.00108
       4 <- 30         0.00139
       4 <- 32         0.00010
       4 <- 33         0.00036
       4 <- 37        -0.00029
       4 <- 39         0.00016
       4 <- 43         0.00031
       4 <- 44        -0.00020
       4 <- 47        -0.00056
       5 <- 26         0.00194
       5 <- 35         0.00081
       5 <- 45         0.00050
       6 <- 11         0.00418
       6 <- 14        -0.00156
       6 <- 19         0.00183
       6 <- 22        -0.00011
       6 <- 25         0.00213
       6 <- 29        -0.00109
       6 <- 31         0.00081
       6 <- 40         0.00012
       6 <- 42        -0.00014
       6 <- 50         0.00017
       7 <- 11         0.00128
       7 <- 14         0.00335
       7 <- 19         0.00082
       7 <- 22         0.00045
       7 <- 25        -0.00242
       7 <- 29        -0.00138
       7 <- 31         0.00107
       7 <- 38         0.00041
       7 <- 42        -0.00021
       7 <- 46         0.00051
       7 <- 50         0.00047
       8 <-  9        -0.01786
       8 <- 12        -0.00855
       8 <- 13         0.02970
       8 <- 16         0.00680
       8 <- 17        -0.00310
       8 <- 20         0.00223
       8 <- 21         0.00709
       8 <- 24         0.00228
       8 <- 28         0.00128
       8 <- 30        -0.00254
       8 <- 32        -0.00155
       8 <- 33        -0.00122
       8 <- 37        -0.00079
       8 <- 39        -0.00039
       8 <- 43         0.00070
       8 <- 44         0.00037
       8 <- 47         0.00040
       8 <- 48         0.00015
 This state for optimization and/or second-order correction.
 Total Energy, E(TD-HF/TD-DFT) =  -108.813157186
 Copying the excited state density for this state as the 1-particle RhoCI density.

 Excited State   2:      Singlet-A2     4.7044 eV  263.55 nm  f=0.0000  <S**2>=0.000
       3 -> 26        -0.00226
       3 -> 35        -0.00101
       3 -> 45        -0.00026
       4 -> 10        -0.00076
       4 -> 15        -0.00107
       4 -> 18        -0.00144
       4 -> 23        -0.00014
       4 -> 27        -0.00168
       4 -> 34         0.00029
       4 -> 36        -0.00085
       4 -> 49        -0.00016
       4 -> 52        -0.00019
       5 -> 11         0.00014
       5 -> 14        -0.00021
       5 -> 19         0.00027
       5 -> 22        -0.00056
       5 -> 25        -0.00021
       5 -> 29         0.00040
       5 -> 38         0.00035
       5 -> 40         0.00010
       5 -> 42        -0.00035
       5 -> 46        -0.00022
       5 -> 50         0.00014
       6 -> 26         0.00324
       6 -> 35        -0.00099
       6 -> 45        -0.00025
       7 -> 26         0.00112
       7 -> 35         0.00022
       7 -> 45        -0.00012
       8 -> 10         0.70676
       8 -> 15         0.00575
       8 -> 18         0.02256
       8 -> 23        -0.00323
       8 -> 27        -0.00079
       8 -> 34         0.00373
       8 -> 36        -0.00101
       8 -> 41         0.00087
       8 -> 49         0.00016
       8 -> 52         0.00022
       3 <- 26        -0.00191
       3 <- 35        -0.00087
       3 <- 45        -0.00026
       4 <- 10        -0.00024
       4 <- 18        -0.00073
       4 <- 27        -0.00054
       4 <- 34         0.00055
       4 <- 36        -0.00053
       5 <- 11         0.00035
       5 <- 14        -0.00039
       5 <- 19         0.00079
       5 <- 22        -0.00065
       5 <- 25        -0.00043
       5 <- 29         0.00107
       5 <- 38         0.00053
       5 <- 42        -0.00039
       5 <- 46        -0.00025
       5 <- 53        -0.00016
       6 <- 26         0.00325
       6 <- 35        -0.00113
       6 <- 45        -0.00026
       7 <- 26         0.00100
       7 <- 35         0.00011
       7 <- 45        -0.00016
       8 <- 10         0.00295
       8 <- 18        -0.00781
       8 <- 27        -0.00112
       8 <- 34         0.00350
       8 <- 36        -0.00088
       8 <- 41         0.00049
       8 <- 52         0.00011

 Excited State   3:      Singlet-B2     5.5056 eV  225.20 nm  f=0.0402  <S**2>=0.000
       3 -> 11        -0.00035
       3 -> 14         0.00036
       3 -> 19        -0.00068
       3 -> 25         0.00017
       3 -> 31         0.00014
       3 -> 38         0.00019
       3 -> 40         0.00031
       3 -> 42        -0.00014
       3 -> 53        -0.00019
       4 ->  9         0.00046
       4 -> 13         0.00068
       4 -> 16         0.00120
       4 -> 17        -0.00088
       4 -> 20        -0.00045
       4 -> 21         0.00069
       4 -> 24         0.00085
       4 -> 28         0.00018
       4 -> 30        -0.00182
       4 -> 32        -0.00015
       4 -> 37         0.00052
       4 -> 39        -0.00078
       4 -> 43        -0.00031
       4 -> 47         0.00031
       5 -> 26        -0.00097
       5 -> 35        -0.00100
       5 -> 45        -0.00053
       6 -> 11         0.00115
       6 -> 14        -0.00472
       6 -> 19         0.00189
       6 -> 22         0.00032
       6 -> 25         0.00198
       6 -> 29        -0.00256
       6 -> 31        -0.00070
       6 -> 38         0.00019
       6 -> 40        -0.00029
       6 -> 42        -0.00028
       6 -> 50         0.00011
       7 -> 11        -0.00107
       7 -> 14        -0.00275
       7 -> 19        -0.00177
       7 -> 22        -0.00085
       7 -> 25         0.00220
       7 -> 29        -0.00040
       7 -> 31        -0.00029
       7 -> 38        -0.00061
       7 -> 40         0.00032
       7 -> 42         0.00018
       7 -> 46        -0.00059
       7 -> 50        -0.00027
       7 -> 53         0.00025
       8 ->  9         0.00577
       8 -> 12         0.70515
       8 -> 13         0.04798
       8 -> 16         0.01941
       8 -> 17        -0.00314
       8 -> 20         0.01561
       8 -> 21         0.00487
       8 -> 24        -0.00113
       8 -> 28        -0.00191
       8 -> 30        -0.00350
       8 -> 32         0.00043
       8 -> 33         0.00034
       8 -> 37        -0.00098
       8 -> 39         0.00112
       8 -> 43         0.00102
       8 -> 44        -0.00017
       8 -> 48        -0.00010
       8 -> 54        -0.00011
       3 <- 11        -0.00019
       3 <- 14         0.00017
       3 <- 19        -0.00026
       3 <- 29         0.00020
       3 <- 31         0.00019
       3 <- 38         0.00023
       3 <- 40         0.00024
       3 <- 42        -0.00015
       3 <- 50        -0.00010
       3 <- 53        -0.00022
       4 <-  9        -0.00082
       4 <- 12        -0.00021
       4 <- 13         0.00076
       4 <- 16         0.00065
       4 <- 17         0.00020
       4 <- 20        -0.00027
       4 <- 21         0.00050
       4 <- 24         0.00085
       4 <- 30        -0.00130
       4 <- 32        -0.00046
       4 <- 33         0.00023
       4 <- 37         0.00033
       4 <- 39        -0.00054
       4 <- 43        -0.00035
       4 <- 44         0.00011
       4 <- 47         0.00029
       5 <- 26        -0.00065
       5 <- 35        -0.00089
       5 <- 45        -0.00048
       6 <- 11         0.00115
       6 <- 14        -0.00098
       6 <- 22         0.00041
       6 <- 25         0.00178
       6 <- 29        -0.00188
       6 <- 31        -0.00081
       6 <- 38         0.00029
       6 <- 40        -0.00023
       6 <- 42        -0.00025
       6 <- 53        -0.00010
       7 <- 11         0.00031
       7 <- 14        -0.00103
       7 <- 19        -0.00050
       7 <- 22        -0.00064
       7 <- 25         0.00127
       7 <- 29         0.00020
       7 <- 31        -0.00013
       7 <- 38        -0.00033
       7 <- 40         0.00018
       7 <- 46        -0.00050
       7 <- 50        -0.00032
       7 <- 53         0.00019
       8 <-  9        -0.00783
       8 <- 12         0.00044
       8 <- 13         0.01326
       8 <- 16         0.00369
       8 <- 17        -0.00329
       8 <- 20        -0.00323
       8 <- 21         0.00306
       8 <- 24         0.00040
       8 <- 30        -0.00265
       8 <- 32         0.00024
       8 <- 33         0.00040
       8 <- 37        -0.00088
       8 <- 39         0.00112
       8 <- 43         0.00087
       8 <- 44        -0.00011
       8 <- 47        -0.00010

 Excited State   4:      Singlet-A1     5.8413 eV  212.26 nm  f=0.0013  <S**2>=0.000
       3 ->  9         0.00210
       3 -> 13        -0.00016
       3 -> 16        -0.00189
       3 -> 17        -0.00172
       3 -> 20         0.00012
       3 -> 21         0.00108
       3 -> 24        -0.00171
       3 -> 28         0.00031
       3 -> 30         0.00072
       3 -> 32         0.00044
       3 -> 33        -0.00089
       3 -> 37         0.00075
       3 -> 39         0.00033
       3 -> 44        -0.00021
       3 -> 51        -0.00012
       3 -> 54         0.00019
       4 -> 11        -0.00468
       4 -> 14        -0.00367
       4 -> 19        -0.00470
       4 -> 22        -0.00269
       4 -> 25         0.00295
       4 -> 29        -0.00179
       4 -> 31        -0.00015
       4 -> 38         0.00056
       4 -> 40        -0.00016
       4 -> 42         0.00012
       4 -> 46        -0.00013
       4 -> 53         0.00011
       5 -> 10        -0.00131
       5 -> 15        -0.00329
       5 -> 18         0.00117
       5 -> 23         0.00378
       5 -> 27         0.00077
       5 -> 34        -0.00040
       5 -> 36        -0.00046
       6 ->  9        -0.00731
       6 -> 12        -0.01037
       6 -> 13         0.00171
       6 -> 16         0.00853
       6 -> 17        -0.00024
       6 -> 20        -0.00378
       6 -> 21        -0.00450
       6 -> 24         0.00349
       6 -> 28         0.00357
       6 -> 30         0.00035
       6 -> 32        -0.00298
       6 -> 33        -0.00310
       6 -> 37        -0.00232
       6 -> 39         0.00108
       6 -> 43         0.00050
       6 -> 44        -0.00107
       6 -> 47         0.00022
       6 -> 48         0.00043
       6 -> 51         0.00021
       7 ->  9         0.02694
       7 -> 12        -0.01134
       7 -> 13        -0.00597
       7 -> 16         0.00213
       7 -> 17        -0.01541
       7 -> 20        -0.00177
       7 -> 21        -0.00296
       7 -> 24        -0.00243
       7 -> 28         0.00357
       7 -> 30        -0.00140
       7 -> 32         0.00136
       7 -> 37        -0.00083
       7 -> 39        -0.00023
       7 -> 44         0.00032
       7 -> 47        -0.00015
       7 -> 54        -0.00018
       8 -> 11         0.70383
       8 -> 14         0.05668
       8 -> 19        -0.02623
       8 -> 22        -0.00205
       8 -> 25        -0.01179
       8 -> 29        -0.00084
       8 -> 31         0.00245
       8 -> 38         0.00356
       8 -> 40        -0.00215
       8 -> 42         0.00179
       8 -> 46        -0.00130
       8 -> 50         0.00021
       3 <-  9         0.00147
       3 <- 12         0.00016
       3 <- 16        -0.00133
       3 <- 17        -0.00108
       3 <- 20         0.00013
       3 <- 21         0.00087
       3 <- 24        -0.00128
       3 <- 28         0.00025
       3 <- 30         0.00061
       3 <- 32         0.00034
       3 <- 33        -0.00070
       3 <- 37         0.00063
       3 <- 39         0.00029
       3 <- 44        -0.00017
       3 <- 51        -0.00010
       3 <- 54         0.00018
       4 <- 11        -0.00233
       4 <- 14        -0.00165
       4 <- 19        -0.00298
       4 <- 22        -0.00186
       4 <- 25         0.00182
       4 <- 29        -0.00133
       4 <- 38         0.00047
       4 <- 40        -0.00016
       4 <- 42         0.00013
       4 <- 53         0.00011
       5 <- 10        -0.00086
       5 <- 15        -0.00220
       5 <- 18         0.00080
       5 <- 23         0.00283
       5 <- 27         0.00062
       5 <- 34        -0.00034
       5 <- 36        -0.00040
       6 <-  9        -0.00728
       6 <- 12        -0.00486
       6 <- 13         0.00214
       6 <- 16         0.00568
       6 <- 17        -0.00063
       6 <- 20        -0.00157
       6 <- 21        -0.00406
       6 <- 24         0.00244
       6 <- 28         0.00263
       6 <- 30         0.00013
       6 <- 32        -0.00221
       6 <- 33        -0.00244
       6 <- 37        -0.00207
       6 <- 39         0.00069
       6 <- 43         0.00044
       6 <- 44        -0.00100
       6 <- 47         0.00019
       6 <- 48         0.00039
       6 <- 51         0.00019
       7 <-  9         0.00538
       7 <- 12        -0.00340
       7 <- 13        -0.00160
       7 <- 16         0.00158
       7 <- 17        -0.00657
       7 <- 20        -0.00049
       7 <- 21        -0.00182
       7 <- 24        -0.00132
       7 <- 28         0.00242
       7 <- 30        -0.00100
       7 <- 32         0.00098
       7 <- 37        -0.00067
       7 <- 39        -0.00028
       7 <- 44         0.00026
       7 <- 54        -0.00016
       8 <- 11        -0.01808
       8 <- 14         0.00403
       8 <- 19        -0.01777
       8 <- 22        -0.00486
       8 <- 25        -0.00715
       8 <- 29        -0.00093
       8 <- 31         0.00224
       8 <- 38         0.00298
       8 <- 40        -0.00152
       8 <- 42         0.00149
       8 <- 46        -0.00117
       8 <- 50         0.00022

 Excited State   5:      Singlet-A2     8.6711 eV  142.99 nm  f=0.0000  <S**2>=0.000
       3 -> 26         0.00095
       3 -> 35         0.00037
       4 -> 10        -0.00120
       4 -> 15        -0.00257
       4 -> 18         0.00109
       4 -> 23         0.00181
       4 -> 27        -0.00017
       4 -> 34         0.00011
       4 -> 36         0.00064
       4 -> 41        -0.00038
       4 -> 49        -0.00011
       5 -> 14         0.00016
       5 -> 19        -0.00024
       5 -> 22         0.00039
       5 -> 25         0.00040
       5 -> 29        -0.00014
       5 -> 38        -0.00014
       5 -> 42         0.00019
       5 -> 46         0.00011
       6 -> 26        -0.00121
       6 -> 35         0.00033
       7 -> 26        -0.00068
       7 -> 35        -0.00020
       8 -> 10        -0.00420
       8 -> 15         0.70514
       8 -> 18        -0.05095
       8 -> 23        -0.01311
       8 -> 27        -0.00023
       8 -> 34        -0.00135
       8 -> 36         0.00166
       8 -> 41        -0.00025
       8 -> 52        -0.00013
       3 <- 26         0.00075
       3 <- 35         0.00025
       4 <- 10         0.00017
       4 <- 18         0.00040
       4 <- 23         0.00011
       4 <- 27         0.00018
       4 <- 34        -0.00022
       4 <- 36         0.00026
       5 <- 11         0.00042
       5 <- 19         0.00027
       5 <- 22         0.00037
       5 <- 25         0.00055
       5 <- 29         0.00014
       5 <- 31        -0.00019
       5 <- 38        -0.00025
       5 <- 40         0.00015
       5 <- 42         0.00018
       6 <- 26        -0.00108
       6 <- 35         0.00035
       7 <- 26        -0.00024
       7 <- 35        -0.00028
       7 <- 45        -0.00013
       8 <- 10         0.00048
       8 <- 15         0.00267
       8 <- 18         0.00314
       8 <- 23         0.00083
       8 <- 34        -0.00153
       8 <- 36         0.00052
       8 <- 41        -0.00016

 Excited State   6:      Singlet-A1     8.7042 eV  142.44 nm  f=0.0532  <S**2>=0.000
       3 ->  9        -0.00050
       3 -> 12         0.00016
       3 -> 13        -0.00054
       3 -> 16         0.00095
       3 -> 17         0.00043
       3 -> 20        -0.00039
       3 -> 21        -0.00055
       3 -> 24         0.00085
       3 -> 28        -0.00024
       3 -> 30        -0.00100
       3 -> 32        -0.00059
       3 -> 37         0.00012
       3 -> 39        -0.00021
       3 -> 43        -0.00024
       3 -> 47         0.00030

 The electronic state is 1-A1.
 Alpha  occ. eigenvalues --  -19.53452 -10.79009  -1.16258  -1.05495  -1.03293
 Alpha  occ. eigenvalues --   -0.56217  -0.41587  -0.19560
 Alpha virt. eigenvalues --   -0.00688   0.01980   0.04444   0.04605   0.13610
 Alpha virt. eigenvalues --    0.16519   0.16787   0.18497   0.20956   0.22538
 Alpha virt. eigenvalues --    0.29816   0.36853   0.50215   0.56609   0.64370

 Mulliken charges:
               1
     1  C    0.121123
     2  H   -0.146448
     3  H   -0.146448
     4  O    0.171773
 Sum of Mulliken charges =  -0.00000

 Dipole moment (field-independent basis, Debye):
    X=              0.0000    Y=              0.0000    Z=              1.7833  Tot=              1.7833
 Quadrupole moment (field-independent basis, Debye-Ang):
   XX=             -9.8530   YY=            -14.6808   ZZ=            -13.9127
   XY=             -0.0000   XZ=             -0.0000   YZ=             -0.0000

 Normal termination of Gaussian 16 at Fri Sep 17 10:52:16 2021.
