 Gaussian 16, Revision C.01,
 Gaussian 16:  ES64L-G16RevC.01  3-Jul-2019

 ----------------------------------------
 #P wB97XD/6-311+G* NoSymm #P Field=Z+272
 ----------------------------------------

 -------
 TitleMe
 -------
 Symbolic Z-matrix:
 Charge =  1 Multiplicity = 1

                          Input orientation:
 ---------------------------------------------------------------------
 Center     Atomic      Atomic             Coordinates (Angstroms)
 Number     Number       Type             X           Y           Z
 ---------------------------------------------------------------------
      1          6           0        0.519300    1.233000   -0.031900
      2          6           0        1.944500    1.269200   -0.036700
      3          6           0        2.620400    0.092800   -0.025000
      4          6           0       -0.196000    0.030100    0.001000
      5          1           0       -0.020700    2.174200   -0.043400
      6          1           0        2.482800    2.208900   -0.036100
      7          1           0       -1.277700    0.039900    0.011700
      8          7           0        4.092100    0.095900    0.036600
      9          8           0        4.639300   -1.021700    0.144600
     10          8           0        4.664900    1.198400   -0.023300
     11          6           0        0.494300   -1.167100    0.021000
     12          1           0       -0.032500   -2.114900    0.054500
     13          6           0        1.962900   -1.216500   -0.021100
     14          1           0        2.443600   -1.963100    0.615100
     15         35           0        2.173000   -1.949100   -1.906200
 ---------------------------------------------------------------------

 SCF Done:  E(RwB97XD) =  -3010.56639341     A.U. after   22 cycles

 Alpha  occ. eigenvalues -- -483.27203 -62.82137 -56.61911 -56.61243 -56.61213
 Alpha  occ. eigenvalues --  -19.45675 -19.45668 -14.85011 -10.57686 -10.55733
 Alpha  occ. eigenvalues --  -10.55657 -10.55021 -10.51940 -10.51388  -8.97878
 Alpha  occ. eigenvalues --   -6.80765  -6.78597  -6.78505  -2.90617  -2.90066
 Alpha  occ. eigenvalues --   -2.89993  -2.88261  -2.88259  -1.49318  -1.32303
 Alpha  occ. eigenvalues --   -1.20693  -1.11373  -1.10281  -1.02004  -0.98215
 Alpha  occ. eigenvalues --   -0.93591  -0.89107  -0.84000  -0.79891  -0.79200
 Alpha  occ. eigenvalues --   -0.78848  -0.76560  -0.75324  -0.74072  -0.69821
 Alpha  occ. eigenvalues --   -0.66976  -0.66052  -0.60744  -0.57754  -0.56780
 Alpha  occ. eigenvalues --   -0.56028  -0.55324  -0.51131  -0.50375
 Alpha virt. eigenvalues --   -0.28037  -0.19536  -0.15357  -0.12995  -0.11567
 Alpha virt. eigenvalues --   -0.10787  -0.10558  -0.07055  -0.06356  -0.05148
 Alpha virt. eigenvalues --   -0.03038  -0.01458   0.00077   0.00120   0.01106

 Mulliken charges:
               1
     1  C   -0.183389
     2  C    0.258541
     3  C   -0.006050
     4  C   -0.350510
     5  H    0.344953
     6  H    0.350273
     7  H    0.328244
     8  N   -0.300013
     9  O    0.089732
    10  O    0.072332
    11  C   -0.263012
    12  H    0.351445
    13  C   -0.466220
    14  H    0.323523
    15  Br   0.450152
 Sum of Mulliken charges =   1.00000

 Dipole moment (field-independent basis, Debye):
    X=              3.2313    Y=             -2.0628    Z=             -5.7459  Tot=              6.9073
 Quadrupole moment (field-independent basis, Debye-Ang):
   XX=            -67.8902   YY=            -49.4133   ZZ=            -56.4913
   XY=             -5.3474   XZ=            -12.8334   YZ=              7.2942

 Normal termination of Gaussian 16 at Thu May  2 14:21:18 2024.
