 Gaussian 16, Revision A.03,
 Gaussian 16:  ES64L-G16RevA.03 25-Dec-2016

 --------------------------------------------------------------------
 #p B3LYP/6-311+G** #p TD=(singlets,nstates=30)IOp(6/8=3) IOp(9/40=4)
 --------------------------------------------------------------------

 --------------------------------
 Scan Step 199, Bond Length 1.495
 --------------------------------
 Symbolic Z-matrix:
 Charge =  0 Multiplicity = 1

                         Standard orientation:
 ---------------------------------------------------------------------
 Center     Atomic      Atomic             Coordinates (Angstroms)
 Number     Number       Type             X           Y           Z
 ---------------------------------------------------------------------
      1          6           0        0.000000    0.000000   -0.673581
      2          1           0        0.000000    0.937260   -1.264931
      3          1           0       -0.000000   -0.937260   -1.264931
      4          8           0        0.000000   -0.000000    0.821419
 ---------------------------------------------------------------------

 SCF Done:  E(RB3LYP) =  -114.467176463     A.U. after   10 cycles

 Excitation energies and oscillator strengths:

 Excited State   1:      Singlet-A2     2.4112 eV  514.20 nm  f=0.0000  <S**2>=0.000
       3 -> 27         0.00148
       3 -> 38         0.00116
       3 -> 46         0.00317
       4 -> 27         0.00093
       4 -> 38        -0.00021
       4 -> 46        -0.00139
       5 ->  9         0.01121
       5 -> 13         0.00052
       5 -> 18         0.00359
       5 -> 23         0.00153
       5 -> 28         0.00320
       5 -> 31        -0.00041
       5 -> 37         0.00183
       5 -> 44         0.00040
       5 -> 52         0.00044
       6 -> 27        -0.00059
       6 -> 38        -0.00084
       6 -> 46         0.00151
       7 -> 12        -0.00077
       7 -> 15         0.00436
       7 -> 19        -0.00375
       7 -> 22        -0.00050
       7 -> 25         0.00112
       7 -> 30        -0.00136
       7 -> 33         0.00041
       7 -> 42        -0.00010
       7 -> 49         0.00014
       7 -> 50         0.00021
       7 -> 53         0.00046
       8 ->  9         0.70774
       8 -> 13        -0.01785
       8 -> 18         0.02193
       8 -> 23        -0.00505
       8 -> 28         0.01104
       8 -> 31         0.00043
       8 -> 37         0.00065
       8 -> 48        -0.00030
       8 -> 52         0.00193
       3 <- 27         0.00078
       3 <- 38         0.00086
       3 <- 46         0.00323
       4 <- 27         0.00154
       4 <- 38         0.00022
       4 <- 46        -0.00113
       5 <-  9        -0.00045
       5 <- 13        -0.00061
       5 <- 18        -0.00083
       5 <- 23         0.00034
       5 <- 28        -0.00058
       5 <- 31         0.00044
       5 <- 37         0.00099
       5 <- 44         0.00014
       5 <- 52         0.00012
       6 <- 38        -0.00070
       6 <- 46         0.00118
       7 <- 12         0.00015
       7 <- 15        -0.00954
       7 <- 19         0.00283
       7 <- 22         0.00725
       7 <- 25         0.00043
       7 <- 30         0.00495
       7 <- 33        -0.00071
       7 <- 35         0.00126
       7 <- 40         0.00065
       7 <- 42         0.00011
       7 <- 49        -0.00029
       7 <- 50         0.00013
       7 <- 53         0.00144
       8 <-  9        -0.04258
       8 <- 13         0.00099
       8 <- 18        -0.00599
       8 <- 23         0.00040
       8 <- 28        -0.00208
       8 <- 31        -0.00056
       8 <- 37        -0.00065
       8 <- 52         0.00052
 This state for optimization and/or second-order correction.
 Total Energy, E(TD-HF/TD-DFT) =  -114.378565774
 Copying the excited state density for this state as the 1-particle RhoCI density.

 Excited State   2:      Singlet-A1     6.0771 eV  204.02 nm  f=0.1047  <S**2>=0.000
       3 -> 10         0.00936
       3 -> 11        -0.01671
       3 -> 14         0.01192
       3 -> 16         0.01741
       3 -> 17        -0.00398
       3 -> 20        -0.00296
       3 -> 21        -0.00283
       3 -> 24         0.00398
       3 -> 26         0.00582
       3 -> 29        -0.00050
       3 -> 32         0.00281
       3 -> 34         0.00350
       3 -> 36         0.00021
       3 -> 39         0.00107
       3 -> 43         0.00045
       3 -> 45         0.00104
       3 -> 47         0.00189
       3 -> 51         0.00068
       3 -> 54         0.00028
       4 -> 10         0.01931
       4 -> 11         0.01039
       4 -> 14         0.01147
       4 -> 16        -0.00756
       4 -> 17         0.00334
       4 -> 20         0.00747
       4 -> 21         0.00032
       4 -> 24        -0.00612
       4 -> 26         0.00576
       4 -> 29         0.00115
       4 -> 32        -0.00123
       4 -> 34        -0.00245
       4 -> 36        -0.00012
       4 -> 39        -0.00018
       4 -> 41         0.00014
       4 -> 43        -0.00029
       4 -> 45         0.00020
       4 -> 47        -0.00164
       4 -> 51        -0.00025
       5 -> 12         0.02290
       5 -> 15         0.01867
       5 -> 19         0.00166
       5 -> 22         0.00605
       5 -> 25         0.01055
       5 -> 30        -0.00123
       5 -> 33        -0.00332
       5 -> 35         0.00249
       5 -> 40         0.00160
       5 -> 42         0.00063
       5 -> 49         0.00058
       5 -> 50        -0.00057
       5 -> 53        -0.00022
       6 -> 10        -0.06876
       6 -> 11         0.09848
       6 -> 14        -0.06654
       6 -> 16        -0.11608
       6 -> 17        -0.01955
       6 -> 20        -0.02064
       6 -> 21         0.02033
       6 -> 24        -0.01876
       6 -> 26        -0.00952
       6 -> 29        -0.00948
       6 -> 34         0.00203
       6 -> 36        -0.00143
       6 -> 39         0.00052
       6 -> 41        -0.00065
       6 -> 43         0.00066
       6 -> 45        -0.00023
       6 -> 47         0.00170
       6 -> 51         0.00083
       6 -> 54        -0.00046
       7 ->  9         0.68612
       7 -> 13         0.00898
       7 -> 18        -0.02307
       7 -> 23         0.00270
       7 -> 28        -0.00319
       7 -> 31        -0.00256
       7 -> 37         0.00052
       7 -> 44        -0.00104
       7 -> 48         0.00055
       7 -> 52         0.00103
       8 -> 12        -0.00416
       8 -> 15         0.09571
       8 -> 19        -0.02642
       8 -> 22        -0.03623
       8 -> 25         0.00160
       8 -> 30        -0.01400
       8 -> 33         0.00360
       8 -> 35        -0.00455
       8 -> 40        -0.00202
       8 -> 42        -0.00034
       8 -> 49         0.00069
       8 -> 50         0.00030
       8 -> 53        -0.00085
       3 <- 10         0.00564
       3 <- 11        -0.01076
       3 <- 14         0.00844
       3 <- 16         0.01168
       3 <- 17        -0.00200
       3 <- 20        -0.00188
       3 <- 21        -0.00275
       3 <- 24         0.00266
       3 <- 26         0.00367
       3 <- 29        -0.00023
       3 <- 32         0.00258
       3 <- 34         0.00233
       3 <- 39         0.00087
       3 <- 41         0.00012
       3 <- 43         0.00051
       3 <- 45         0.00092
       3 <- 47         0.00211
       3 <- 51         0.00065
       3 <- 54         0.00035
       4 <- 10         0.00901
       4 <- 11         0.00587
       4 <- 14         0.00543
       4 <- 16        -0.00448
       4 <- 17         0.00151
       4 <- 20         0.00533
       4 <- 21         0.00029
       4 <- 24        -0.00389
       4 <- 26         0.00427
       4 <- 29         0.00027
       4 <- 32        -0.00159
       4 <- 34        -0.00212
       4 <- 39        -0.00024
       4 <- 43        -0.00029
       4 <- 45         0.00053
       4 <- 47        -0.00130
       5 <- 12         0.00851
       5 <- 15         0.00828
       5 <- 19         0.00107
       5 <- 22         0.00342
       5 <- 25         0.00659
       5 <- 30        -0.00068
       5 <- 33        -0.00247
       5 <- 35         0.00198
       5 <- 40         0.00137
       5 <- 42         0.00050
       5 <- 49         0.00050
       5 <- 50        -0.00052
       5 <- 53        -0.00019
       6 <- 10        -0.01733
       6 <- 11         0.02663
       6 <- 14        -0.02314
       6 <- 16        -0.04474
       6 <- 17        -0.00827
       6 <- 20        -0.01079
       6 <- 21         0.01076
       6 <- 24        -0.01075
       6 <- 26        -0.00560
       6 <- 29        -0.00619
       6 <- 32         0.00056
       6 <- 34         0.00222
       6 <- 36        -0.00110
       6 <- 39         0.00067
       6 <- 41        -0.00043
       6 <- 43         0.00058
       6 <- 45        -0.00042
       6 <- 47         0.00123
       6 <- 51         0.00064
       6 <- 54        -0.00036
       7 <-  9        -0.11502
       7 <- 13         0.00979
       7 <- 18        -0.01463
       7 <- 23         0.00527
       7 <- 28        -0.00500
       7 <- 31        -0.00097
       7 <- 44        -0.00052
       7 <- 52         0.00087
       8 <- 12        -0.00064
       8 <- 15         0.02665
       8 <- 19        -0.00925
       8 <- 22        -0.01733
       8 <- 25         0.00051
       8 <- 30        -0.00945
       8 <- 33         0.00256
       8 <- 35        -0.00333
       8 <- 40        -0.00160
       8 <- 42        -0.00027
       8 <- 49         0.00048
       8 <- 50         0.00023
       8 <- 53        -0.00076

 Excited State   3:      Singlet-B1     6.2207 eV  199.31 nm  f=0.0015  <S**2>=0.000
       3 ->  9        -0.03142
       3 -> 13         0.00246
       3 -> 18        -0.00543
       3 -> 23         0.00233
       3 -> 28        -0.00133
       3 -> 31        -0.00050
       3 -> 44         0.00033
       3 -> 48         0.00078
       3 -> 52         0.00104
       4 ->  9         0.01491
       4 -> 13        -0.00271
       4 -> 18         0.00047
       4 -> 23        -0.00247
       4 -> 28         0.00020
       4 -> 31        -0.00176
       4 -> 37        -0.00045
       4 -> 48        -0.00131
       4 -> 52        -0.00073
       5 -> 27        -0.00065
       5 -> 38         0.00199
       5 -> 46         0.00137
       6 ->  9         0.70601
       6 -> 13        -0.02307
       6 -> 18         0.01850
       6 -> 23        -0.01149
       6 -> 28         0.00514
       6 -> 31         0.00372
       6 -> 37        -0.00240
       6 -> 44        -0.00321
       6 -> 48         0.00461
       6 -> 52         0.00164
       7 -> 10        -0.00965
       7 -> 11         0.01257
       7 -> 14        -0.00792
       7 -> 16        -0.00758
       7 -> 17        -0.00991
       7 -> 20         0.00234
       7 -> 21        -0.00074
       7 -> 24         0.00011
       7 -> 26        -0.00085
       7 -> 29        -0.00427
       7 -> 32        -0.00096
       7 -> 36         0.00181
       7 -> 39         0.00012
       7 -> 41        -0.00095
       7 -> 43         0.00067
       7 -> 45         0.00247
       7 -> 47         0.00402
       7 -> 51         0.00115
       7 -> 54         0.00052
       8 -> 27         0.00103
       8 -> 38         0.00030
       8 -> 46         0.00594
       3 <-  9        -0.01032
       3 <- 13        -0.00029
       3 <- 18        -0.00313
       3 <- 23        -0.00033
       3 <- 28        -0.00089
       3 <- 31        -0.00058
       3 <- 44        -0.00026
       3 <- 48         0.00099
       3 <- 52         0.00083
       4 <-  9         0.00653
       4 <- 18         0.00221
       4 <- 23        -0.00042
       4 <- 28         0.00192
       4 <- 31        -0.00129
       4 <- 37        -0.00014
       4 <- 44         0.00016
       4 <- 48        -0.00113
       4 <- 52        -0.00041
       5 <- 27        -0.00108
       5 <- 38         0.00157
       5 <- 46         0.00122
       6 <-  9        -0.02317
       6 <- 13         0.00185
       6 <- 18        -0.00305
       6 <- 23        -0.00020
       6 <- 28        -0.00308
       6 <- 31         0.00178
       6 <- 37        -0.00218
       6 <- 44        -0.00188
       6 <- 48         0.00410
       6 <- 52         0.00060
       7 <- 10         0.00597
       7 <- 11        -0.00893
       7 <- 14         0.00761
       7 <- 16         0.01694
       7 <- 17         0.00042
       7 <- 20         0.00585
       7 <- 21        -0.00522
       7 <- 24         0.00489
       7 <- 26         0.00214
       7 <- 29         0.00073
       7 <- 32        -0.00067
       7 <- 34        -0.00058
       7 <- 36         0.00286
       7 <- 39         0.00039
       7 <- 41        -0.00054
       7 <- 43         0.00058
       7 <- 45         0.00238
       7 <- 47         0.00356
       7 <- 51         0.00092
       7 <- 54         0.00110
       8 <- 27         0.00137
       8 <- 38         0.00046
       8 <- 46         0.00545

 Excited State   4:      Singlet-B2     6.8055 eV  182.18 nm  f=0.0165  <S**2>=0.000
       3 -> 12         0.00186
       3 -> 15        -0.00065
       3 -> 19         0.00290
       3 -> 22        -0.00029
       3 -> 25         0.00054
       3 -> 30         0.00171
       3 -> 33         0.00038
       3 -> 35        -0.00144
       3 -> 40        -0.00104
       3 -> 42        -0.00012
       3 -> 49         0.00127
       3 -> 50        -0.00016
       3 -> 53        -0.00020
       4 -> 12        -0.00099
       4 -> 15         0.00275
       4 -> 19         0.00104
       4 -> 22        -0.00346
       4 -> 25         0.00288
       4 -> 30        -0.00060
       4 -> 33         0.00026
       4 -> 35        -0.00020
       4 -> 40         0.00046
       4 -> 49        -0.00018
       5 -> 10        -0.00476
       5 -> 11        -0.00173
       5 -> 14         0.01303
       5 -> 16         0.00397
       5 -> 17        -0.00162
       5 -> 20        -0.00051
       5 -> 21        -0.00631
       5 -> 24        -0.00169
       5 -> 26         0.00204
       5 -> 29         0.00151
       5 -> 32        -0.00015
       5 -> 34         0.00121
       5 -> 36         0.00055
       5 -> 39         0.00044
       5 -> 41        -0.00079
       5 -> 43        -0.00014
       5 -> 45         0.00025
       5 -> 47         0.00048
       5 -> 51        -0.00031
       5 -> 54         0.00018
       6 -> 12        -0.00321
       6 -> 15         0.00100
       6 -> 19        -0.00124
       6 -> 22        -0.00093
       6 -> 25         0.00071
       6 -> 30         0.00016
       6 -> 33        -0.00047
       6 -> 35         0.00176
       6 -> 40         0.00109
       6 -> 49        -0.00063
       6 -> 53         0.00017
       7 -> 27         0.00027
       7 -> 38        -0.00099
       7 -> 46        -0.00189
       8 -> 10         0.68990
       8 -> 11        -0.12709
       8 -> 14         0.06503
       8 -> 16         0.05779
       8 -> 17         0.00304
       8 -> 20         0.01022
       8 -> 21        -0.00132
       8 -> 24         0.00277
       8 -> 26         0.00481
       8 -> 29         0.00522
       8 -> 32         0.00128
       8 -> 34         0.00055
       8 -> 36         0.00044
       8 -> 39         0.00034
       8 -> 41        -0.00049
       8 -> 43         0.00067
       8 -> 45         0.00168
       8 -> 47         0.00159
       8 -> 51        -0.00125
       8 -> 54         0.00073
       3 <- 12         0.00051
       3 <- 19         0.00131
       3 <- 22        -0.00074
       3 <- 25         0.00021
       3 <- 30         0.00062
       3 <- 33         0.00034
       3 <- 35        -0.00119
       3 <- 40        -0.00096
       3 <- 49         0.00132
       3 <- 50        -0.00013
       3 <- 53        -0.00047
       4 <- 12         0.00064
       4 <- 15         0.00236
       4 <- 19         0.00104
       4 <- 22        -0.00256
       4 <- 25         0.00181
       4 <- 30        -0.00048
       4 <- 33         0.00036
       4 <- 35        -0.00038
       4 <- 40         0.00012
       4 <- 42        -0.00020
       4 <- 49        -0.00014
       5 <- 10         0.00187
       5 <- 11         0.00085
       5 <- 14         0.00417
       5 <- 16        -0.00192
       5 <- 17        -0.00028
       5 <- 21        -0.00166
       5 <- 24        -0.00274
       5 <- 26         0.00103
       5 <- 29         0.00035
       5 <- 32        -0.00069
       5 <- 34         0.00062
       5 <- 36         0.00012
       5 <- 39         0.00010
       5 <- 41        -0.00069
       5 <- 43        -0.00021
       5 <- 45         0.00040
       5 <- 47         0.00023
       5 <- 51        -0.00014
       6 <- 12        -0.00028
       6 <- 15        -0.00256
       6 <- 19         0.00132
       6 <- 22         0.00161
       6 <- 25         0.00025
       6 <- 30         0.00226
       6 <- 33        -0.00061
       6 <- 35         0.00171
       6 <- 40         0.00103
       6 <- 49        -0.00066
       6 <- 50        -0.00010
       6 <- 53         0.00052
       7 <- 27         0.00032
       7 <- 38        -0.00075
       7 <- 46        -0.00152
       8 <- 10        -0.00367
       8 <- 11         0.00550
       8 <- 14        -0.00640
       8 <- 16        -0.00503
       8 <- 17        -0.00030
       8 <- 20         0.00063
       8 <- 21         0.00194
       8 <- 26        -0.00161
       8 <- 29         0.00038
       8 <- 32        -0.00061
       8 <- 34        -0.00066
       8 <- 36        -0.00037
       8 <- 39        -0.00068
       8 <- 41        -0.00043
       8 <- 43         0.00014
       8 <- 45         0.00182
       8 <- 47         0.00085
       8 <- 51        -0.00066
       8 <- 54         0.00018

 Excited State   5:      Singlet-B2     7.2600 eV  170.78 nm  f=0.0142  <S**2>=0.000
       3 -> 12         0.00078
       3 -> 15         0.00201
       3 -> 19        -0.00210
       3 -> 22        -0.00046
       3 -> 25         0.00079
       3 -> 30        -0.00351
       3 -> 33        -0.00011
       3 -> 35         0.00118
       3 -> 40         0.00097
       3 -> 49        -0.00128
       3 -> 50         0.00013
       4 -> 12        -0.00163
       4 -> 15        -0.00059
       4 -> 19         0.00037
       4 -> 22         0.00064
       4 -> 25        -0.00085
       4 -> 30         0.00184
       4 -> 33        -0.00042
       4 -> 35         0.00063
       4 -> 50        -0.00013
       5 -> 10        -0.00609
       5 -> 11         0.00179
       5 -> 14        -0.00748
       5 -> 16         0.00469
       5 -> 17         0.00284
       5 -> 20         0.00312
       5 -> 21         0.00305
       5 -> 24         0.00035
       5 -> 26        -0.00144
       5 -> 29        -0.00123
       5 -> 32        -0.00144
       5 -> 34        -0.00029
       5 -> 36        -0.00072
       5 -> 39        -0.00088
       5 -> 41         0.00028
       5 -> 43        -0.00037
       5 -> 45        -0.00068
       5 -> 47        -0.00060
       5 -> 51         0.00049
       6 -> 12         0.00079
       6 -> 19         0.00116
       6 -> 22        -0.00104
       6 -> 30        -0.00124
       6 -> 33         0.00028
       6 -> 35        -0.00116
       6 -> 40        -0.00134
       6 -> 42        -0.00024
       6 -> 49         0.00177
       6 -> 50        -0.00014
       6 -> 53        -0.00019
       7 -> 27        -0.00077
       7 -> 38         0.00032
       7 -> 46         0.00292
       8 -> 10         0.13574
       8 -> 11         0.68936
       8 -> 14        -0.03165
       8 -> 16        -0.07111
       8 -> 17        -0.00613
       8 -> 20         0.01409
       8 -> 21         0.00367
       8 -> 24        -0.00452
       8 -> 26        -0.00052
       8 -> 29        -0.00525
       8 -> 32        -0.00062
       8 -> 34        -0.00085
       8 -> 36        -0.00105
       8 -> 39         0.00011
       8 -> 41         0.00040
       8 -> 43        -0.00015
       8 -> 45        -0.00308

 The electronic state is 1-A1.
 Alpha  occ. eigenvalues --  -19.16786 -10.31722  -0.95583  -0.68536  -0.48831
 Alpha  occ. eigenvalues --   -0.42857  -0.34625  -0.29009
 Alpha virt. eigenvalues --   -0.12847  -0.00299   0.02447   0.04121   0.06163
 Alpha virt. eigenvalues --    0.10970   0.15154   0.15570   0.18956   0.21592
 Alpha virt. eigenvalues --    0.23881   0.30062   0.39837   0.42190   0.50979

 Mulliken charges:
               1
     1  C   -0.040884
     2  H    0.167788
     3  H    0.167788
     4  O   -0.294691
 Sum of Mulliken charges =  -0.00000

 Dipole moment (field-independent basis, Debye):
    X=             -0.0000    Y=              0.0000    Z=             -3.5082  Tot=              3.5082
 Quadrupole moment (field-independent basis, Debye-Ang):
   XX=            -12.5238   YY=            -11.8179   ZZ=            -11.6219
   XY=              0.0000   XZ=              0.0000   YZ=              0.0000

 Normal termination of Gaussian 16 at Fri Sep 17 10:52:54 2021.
