 Gaussian 16, Revision A.03,
 Gaussian 16:  ES64L-G16RevA.03 25-Dec-2016

 --------------------------------------------------------------------
 #p B3LYP/6-311+G** #p TD=(singlets,nstates=30)IOp(6/8=3) IOp(9/40=4)
 --------------------------------------------------------------------

 -------------------------------
 Scan Step 184, Bond Length 1.42
 -------------------------------
 Symbolic Z-matrix:
 Charge =  0 Multiplicity = 1

                         Standard orientation:
 ---------------------------------------------------------------------
 Center     Atomic      Atomic             Coordinates (Angstroms)
 Number     Number       Type             X           Y           Z
 ---------------------------------------------------------------------
      1          6           0        0.000000    0.000000   -0.636081
      2          1           0        0.000000    0.937260   -1.227431
      3          1           0       -0.000000   -0.937260   -1.227431
      4          8           0        0.000000   -0.000000    0.783919
 ---------------------------------------------------------------------

 SCF Done:  E(RB3LYP) =  -114.494114590     A.U. after    9 cycles

 Excitation energies and oscillator strengths:

 Excited State   1:      Singlet-A2     2.7625 eV  448.81 nm  f=0.0000  <S**2>=0.000
       3 -> 27         0.00173
       3 -> 38         0.00139
       3 -> 46         0.00304
       4 -> 27         0.00113
       4 -> 38        -0.00029
       4 -> 46        -0.00141
       5 ->  9         0.01426
       5 -> 18         0.00416
       5 -> 23         0.00132
       5 -> 28         0.00369
       5 -> 31        -0.00073
       5 -> 37         0.00222
       5 -> 44         0.00045
       5 -> 48         0.00010
       5 -> 52         0.00053
       6 -> 27        -0.00052
       6 -> 38        -0.00087
       6 -> 46         0.00163
       7 -> 12        -0.00070
       7 -> 15         0.00402
       7 -> 19        -0.00352
       7 -> 22        -0.00023
       7 -> 25         0.00125
       7 -> 30        -0.00123
       7 -> 33         0.00043
       7 -> 42        -0.00011
       7 -> 49         0.00016
       7 -> 50         0.00025
       7 -> 53         0.00047
       8 ->  9         0.70720
       8 -> 13        -0.02228
       8 -> 18         0.02215
       8 -> 23        -0.00639
       8 -> 28         0.01083
       8 -> 31        -0.00022
       8 -> 37         0.00058
       8 -> 48        -0.00029
       8 -> 52         0.00190
       3 <- 27         0.00098
       3 <- 38         0.00108
       3 <- 46         0.00311
       4 <- 27         0.00181
       4 <- 38         0.00020
       4 <- 46        -0.00116
       5 <-  9        -0.00055
       5 <- 13        -0.00068
       5 <- 18        -0.00092
       5 <- 23         0.00040
       5 <- 28        -0.00065
       5 <- 31         0.00053
       5 <- 37         0.00116
       5 <- 44         0.00016
       5 <- 52         0.00014
       6 <- 38        -0.00074
       6 <- 46         0.00127
       7 <- 12        -0.00017
       7 <- 15        -0.00905
       7 <- 19         0.00216
       7 <- 22         0.00741
       7 <- 25         0.00033
       7 <- 30         0.00464
       7 <- 33        -0.00089
       7 <- 35         0.00160
       7 <- 40         0.00076
       7 <- 49        -0.00020
       7 <- 50         0.00016
       7 <- 53         0.00142
       8 <-  9        -0.03681
       8 <- 13         0.00142
       8 <- 18        -0.00553
       8 <- 23         0.00056
       8 <- 28        -0.00181
       8 <- 31        -0.00053
       8 <- 37        -0.00081
       8 <- 52         0.00052
 This state for optimization and/or second-order correction.
 Total Energy, E(TD-HF/TD-DFT) =  -114.392594641
 Copying the excited state density for this state as the 1-particle RhoCI density.

 Excited State   2:      Singlet-A1     6.8614 eV  180.70 nm  f=0.1245  <S**2>=0.000
       3 -> 10         0.00687
       3 -> 11         0.01575
       3 -> 14         0.00915
       3 -> 16         0.00988
       3 -> 17         0.02088
       3 -> 20        -0.00111
       3 -> 21        -0.00456
       3 -> 24         0.00535
       3 -> 26         0.00741
       3 -> 29         0.00033
       3 -> 32         0.00294
       3 -> 34         0.00383
       3 -> 36        -0.00124
       3 -> 39         0.00128
       3 -> 41         0.00015
       3 -> 43         0.00055
       3 -> 45         0.00167
       3 -> 47         0.00123
       3 -> 51         0.00040
       3 -> 54         0.00030
       4 -> 10         0.02367
       4 -> 11        -0.01059
       4 -> 14         0.01440
       4 -> 16        -0.00125
       4 -> 17        -0.00708
       4 -> 20         0.00905
       4 -> 21         0.00010
       4 -> 24        -0.00710
       4 -> 26         0.00613
       4 -> 29         0.00106
       4 -> 32        -0.00122
       4 -> 34        -0.00287
       4 -> 36         0.00053
       4 -> 39        -0.00021
       4 -> 41         0.00012
       4 -> 43        -0.00017
       4 -> 45        -0.00045
       4 -> 47        -0.00166
       4 -> 51        -0.00016
       5 -> 12         0.02789
       5 -> 15         0.02582
       5 -> 19         0.00200
       5 -> 22         0.00403
       5 -> 25         0.01237
       5 -> 30        -0.00225
       5 -> 33        -0.00335
       5 -> 35         0.00209
       5 -> 40         0.00165
       5 -> 42         0.00068
       5 -> 49         0.00062
       5 -> 50        -0.00050
       5 -> 53        -0.00029
       6 -> 10        -0.04536
       6 -> 11        -0.07451
       6 -> 14        -0.03636
       6 -> 16        -0.08463
       6 -> 17        -0.08325
       6 -> 20        -0.03046
       6 -> 21         0.02607
       6 -> 24        -0.02293
       6 -> 26        -0.01187
       6 -> 29        -0.01055
       6 -> 32        -0.00013
       6 -> 34         0.00272
       6 -> 36         0.00195
       6 -> 39         0.00028
       6 -> 41        -0.00085
       6 -> 43         0.00051
       6 -> 45         0.00042
       6 -> 47         0.00178
       6 -> 51         0.00078
       6 -> 54        -0.00033
       7 ->  9         0.68527
       7 -> 13         0.01740
       7 -> 18        -0.02613
       7 -> 23         0.00513
       7 -> 28        -0.00446
       7 -> 31        -0.00202
       7 -> 37         0.00024
       7 -> 44        -0.00095
       7 -> 48         0.00060
       7 -> 52         0.00101
       8 -> 12         0.00283
       8 -> 15         0.11920
       8 -> 19        -0.02700
       8 -> 22        -0.04359
       8 -> 25         0.00270
       8 -> 30        -0.01497
       8 -> 33         0.00485
       8 -> 35        -0.00607
       8 -> 40        -0.00251
       8 -> 42        -0.00036
       8 -> 49         0.00069
       8 -> 50         0.00035
       8 -> 53        -0.00096
       3 <- 10         0.00380
       3 <- 11         0.00956
       3 <- 14         0.00635
       3 <- 16         0.00701
       3 <- 17         0.01326
       3 <- 20        -0.00050
       3 <- 21        -0.00398
       3 <- 24         0.00364
       3 <- 26         0.00475
       3 <- 29         0.00033
       3 <- 32         0.00266
       3 <- 34         0.00250
       3 <- 36        -0.00082
       3 <- 39         0.00099
       3 <- 41         0.00014
       3 <- 43         0.00057
       3 <- 45         0.00167
       3 <- 47         0.00149
       3 <- 51         0.00038
       3 <- 54         0.00034
       4 <- 10         0.00998
       4 <- 11        -0.00525
       4 <- 14         0.00638
       4 <- 16        -0.00123
       4 <- 17        -0.00388
       4 <- 20         0.00578
       4 <- 21         0.00020
       4 <- 24        -0.00429
       4 <- 26         0.00434
       4 <- 29         0.00016
       4 <- 32        -0.00160
       4 <- 34        -0.00236
       4 <- 36         0.00027
       4 <- 39        -0.00024
       4 <- 43        -0.00017
       4 <- 47        -0.00146
       5 <- 12         0.00894
       5 <- 15         0.01029
       5 <- 19         0.00120
       5 <- 22         0.00211
       5 <- 25         0.00723
       5 <- 30        -0.00129
       5 <- 33        -0.00241
       5 <- 35         0.00166
       5 <- 40         0.00138
       5 <- 42         0.00053
       5 <- 49         0.00052
       5 <- 50        -0.00045
       5 <- 53        -0.00025
       6 <- 10        -0.00992
       6 <- 11        -0.01754
       6 <- 14        -0.01133
       6 <- 16        -0.03128
       6 <- 17        -0.03075
       6 <- 20        -0.01417
       6 <- 21         0.01293
       6 <- 24        -0.01256
       6 <- 26        -0.00691
       6 <- 29        -0.00664
       6 <- 32         0.00030
       6 <- 34         0.00257
       6 <- 36         0.00133
       6 <- 39         0.00045
       6 <- 41        -0.00056
       6 <- 43         0.00044
       6 <- 47         0.00140
       6 <- 51         0.00058
       6 <- 54        -0.00024
       7 <-  9        -0.10606
       7 <- 13         0.01147
       7 <- 18        -0.01482
       7 <- 23         0.00658
       7 <- 28        -0.00567
       7 <- 31        -0.00050
       7 <- 37        -0.00013
       7 <- 44        -0.00041
       7 <- 52         0.00084
       8 <- 15         0.02711
       8 <- 19        -0.00801
       8 <- 22        -0.01891
       8 <- 25         0.00085
       8 <- 30        -0.00959
       8 <- 33         0.00332
       8 <- 35        -0.00429
       8 <- 40        -0.00195
       8 <- 42        -0.00028
       8 <- 49         0.00047
       8 <- 50         0.00027
       8 <- 53        -0.00084

 Excited State   3:      Singlet-B1     6.8631 eV  180.65 nm  f=0.0015  <S**2>=0.000
       3 ->  9        -0.03272
       3 -> 13         0.00312
       3 -> 18        -0.00598
       3 -> 23         0.00281
       3 -> 28        -0.00169
       3 -> 31        -0.00049
       3 -> 44         0.00043
       3 -> 48         0.00059
       3 -> 52         0.00109
       4 ->  9         0.01571
       4 -> 13        -0.00271
       4 -> 18         0.00064
       4 -> 23        -0.00248
       4 -> 28         0.00018
       4 -> 31        -0.00196
       4 -> 37        -0.00046
       4 -> 48        -0.00143
       4 -> 52        -0.00082
       5 -> 27        -0.00105
       5 -> 38         0.00198
       5 -> 46         0.00179
       6 ->  9         0.70587
       6 -> 13        -0.02585
       6 -> 18         0.01977
       6 -> 23        -0.01185
       6 -> 28         0.00592
       6 -> 31         0.00393
       6 -> 37        -0.00252
       6 -> 44        -0.00339
       6 -> 48         0.00494
       6 -> 52         0.00176
       7 -> 10        -0.00277
       7 -> 11        -0.00393
       7 -> 14        -0.00338
       7 -> 16        -0.01093
       7 -> 17         0.00337
       7 -> 20         0.00197
       7 -> 21        -0.00158
       7 -> 24         0.00075
       7 -> 26        -0.00016
       7 -> 29        -0.00454
       7 -> 32        -0.00114
       7 -> 34        -0.00023
       7 -> 36        -0.00168
       7 -> 39         0.00013
       7 -> 41        -0.00130
       7 -> 43         0.00080
       7 -> 45         0.00398
       7 -> 47         0.00307
       7 -> 51         0.00114
       7 -> 54         0.00056
       8 -> 27         0.00154
       8 -> 38         0.00050
       8 -> 46         0.00633
       3 <-  9        -0.01056
       3 <- 18        -0.00325
       3 <- 28        -0.00110
       3 <- 31        -0.00048
       3 <- 44        -0.00022
       3 <- 48         0.00083
       3 <- 52         0.00087
       4 <-  9         0.00624
       4 <- 18         0.00236
       4 <- 23        -0.00033
       4 <- 28         0.00211
       4 <- 31        -0.00157
       4 <- 44         0.00019
       4 <- 48        -0.00124
       4 <- 52        -0.00046
       5 <- 27        -0.00135
       5 <- 38         0.00154
       5 <- 46         0.00159
       6 <-  9        -0.02237
       6 <- 13         0.00214
       6 <- 18        -0.00301
       6 <- 28        -0.00281
       6 <- 31         0.00224
       6 <- 37        -0.00237
       6 <- 44        -0.00205
       6 <- 48         0.00437
       6 <- 52         0.00065
       7 <- 10         0.00342
       7 <- 11         0.00584
       7 <- 14         0.00330
       7 <- 16         0.00904
       7 <- 17         0.01270
       7 <- 20         0.00662
       7 <- 21        -0.00600
       7 <- 24         0.00540
       7 <- 26         0.00266
       7 <- 29         0.00056
       7 <- 32        -0.00094
       7 <- 34        -0.00123
       7 <- 36        -0.00267
       7 <- 39         0.00038
       7 <- 41        -0.00084
       7 <- 43         0.00073
       7 <- 45         0.00367
       7 <- 47         0.00263
       7 <- 51         0.00085
       7 <- 54         0.00109
       8 <- 27         0.00173
       8 <- 38         0.00062
       8 <- 46         0.00572

 Excited State   4:      Singlet-B2     6.9329 eV  178.83 nm  f=0.0130  <S**2>=0.000
       3 -> 12         0.00184
       3 -> 15         0.00024
       3 -> 19         0.00177
       3 -> 22        -0.00033
       3 -> 25         0.00096
       3 -> 30         0.00043
       3 -> 33         0.00032
       3 -> 35        -0.00083
       3 -> 40        -0.00051
       3 -> 49         0.00052
       3 -> 53        -0.00014
       4 -> 12        -0.00165
       4 -> 15         0.00233
       4 -> 19         0.00147
       4 -> 22        -0.00320
       4 -> 25         0.00285
       4 -> 35         0.00013
       4 -> 40         0.00042
       4 -> 42        -0.00012
       4 -> 49        -0.00011
       5 -> 10        -0.00823
       5 -> 11        -0.00279
       5 -> 14         0.00888
       5 -> 16         0.00216
       5 -> 17         0.00510
       5 -> 20         0.00110
       5 -> 21        -0.00550
       5 -> 24        -0.00129
       5 -> 26         0.00180
       5 -> 29         0.00105
       5 -> 32        -0.00089
       5 -> 34         0.00101
       5 -> 36        -0.00031
       5 -> 41        -0.00064
       5 -> 43        -0.00032
       5 -> 47         0.00017
       5 -> 51        -0.00010
       5 -> 54         0.00014
       6 -> 12        -0.00217
       6 -> 15         0.00106
       6 -> 22        -0.00160
       6 -> 25         0.00073
       6 -> 30        -0.00029
       6 -> 33        -0.00038
       6 -> 35         0.00111
       6 -> 40         0.00042
       6 -> 50        -0.00012
       7 -> 38        -0.00083
       7 -> 46        -0.00055
       8 -> 10         0.70499
       8 -> 11        -0.02994
       8 -> 14         0.03357
       8 -> 16         0.01229
       8 -> 17         0.01928
       8 -> 20         0.01522
       8 -> 21         0.00122
       8 -> 24         0.00067
       8 -> 26         0.00381
       8 -> 29         0.00241
       8 -> 32         0.00087
       8 -> 34        -0.00012
       8 -> 39         0.00028
       8 -> 41        -0.00037
       8 -> 43         0.00061
       8 -> 45         0.00048
       8 -> 47         0.00037
       8 -> 51        -0.00050
       8 -> 54         0.00036
       3 <- 12         0.00042
       3 <- 15         0.00037
       3 <- 19         0.00072
       3 <- 22        -0.00063
       3 <- 25         0.00047
       3 <- 33         0.00028
       3 <- 35        -0.00071
       3 <- 40        -0.00049
       3 <- 49         0.00057
       3 <- 53        -0.00020
       4 <- 12         0.00075
       4 <- 15         0.00208
       4 <- 19         0.00140
       4 <- 22        -0.00215
       4 <- 25         0.00186
       4 <- 33         0.00011
       4 <- 42        -0.00021
       4 <- 50        -0.00013
       5 <- 10         0.00208
       5 <- 11        -0.00032
       5 <- 14         0.00435
       5 <- 16        -0.00039
       5 <- 20         0.00030
       5 <- 21        -0.00135
       5 <- 24        -0.00242
       5 <- 26         0.00120
       5 <- 29         0.00018
       5 <- 32        -0.00083
       5 <- 34         0.00075
       5 <- 36        -0.00017
       5 <- 41        -0.00049
       5 <- 43        -0.00029
       6 <- 12        -0.00022
       6 <- 15        -0.00103
       6 <- 19         0.00088
       6 <- 22         0.00032
       6 <- 25         0.00024
       6 <- 30         0.00094
       6 <- 33        -0.00045
       6 <- 35         0.00107
       6 <- 40         0.00038
       6 <- 50        -0.00015
       6 <- 53         0.00027
       7 <- 38        -0.00062
       7 <- 46        -0.00041
       8 <- 10        -0.00163
       8 <- 11        -0.00187
       8 <- 14        -0.00392
       8 <- 16        -0.00174
       8 <- 17        -0.00154
       8 <- 20        -0.00042
       8 <- 21         0.00142
       8 <- 24         0.00090
       8 <- 26        -0.00111
       8 <- 29        -0.00010
       8 <- 32         0.00036
       8 <- 36         0.00037
       8 <- 39        -0.00011
       8 <- 41        -0.00017
       8 <- 43         0.00027
       8 <- 45         0.00057
       8 <- 51        -0.00020
       8 <- 54         0.00010

 Excited State   5:      Singlet-B2     7.5043 eV  165.22 nm  f=0.0260  <S**2>=0.000
       3 -> 12        -0.00041
       3 -> 15        -0.00167
       3 -> 19         0.00197
       3 -> 22         0.00054
       3 -> 25        -0.00038
       3 -> 30         0.00340
       3 -> 33         0.00020
       3 -> 35        -0.00113
       3 -> 40        -0.00090
       3 -> 49         0.00110
       3 -> 50        -0.00016
       4 -> 12         0.00184
       4 -> 15         0.00095
       4 -> 19         0.00057
       4 -> 22        -0.00141
       4 -> 25         0.00203
       4 -> 30        -0.00178
       4 -> 33         0.00048
       4 -> 35        -0.00066
       4 -> 40         0.00012
       4 -> 49         0.00012
       5 -> 10         0.00053
       5 -> 11         0.00109
       5 -> 14         0.01105
       5 -> 16        -0.00516
       5 -> 17         0.00105
       5 -> 20        -0.00370
       5 -> 21        -0.00404
       5 -> 24        -0.00061
       5 -> 26         0.00198
       5 -> 29         0.00148
       5 -> 32         0.00071
       5 -> 34         0.00052
       5 -> 36        -0.00073
       5 -> 39         0.00075
       5 -> 41        -0.00052
       5 -> 43         0.00030
       5 -> 45         0.00092
       5 -> 47         0.00037
       5 -> 51        -0.00051
       6 -> 12        -0.00203
       6 -> 15        -0.00047
       6 -> 19        -0.00097
       6 -> 22         0.00086
       6 -> 25         0.00015
       6 -> 30         0.00133
       6 -> 33        -0.00047
       6 -> 35         0.00151
       6 -> 40         0.00140
       6 -> 42         0.00016
       6 -> 49        -0.00167
       6 -> 50         0.00016
       6 -> 53         0.00017
       7 -> 27         0.00065
       7 -> 38        -0.00063
       7 -> 46        -0.00278
       8 -> 10         0.02725
       8 -> 11         0.70355
       8 -> 14         0.01689
       8 -> 16         0.03919
       8 -> 17         0.04721
       8 -> 20        -0.01104
       8 -> 21        -0.00058
       8 -> 24         0.00316
       8 -> 26         0.00077
       8 -> 29         0.00457
       8 -> 32         0.00031
       8 -> 34         0.00044
       8 -> 36        -0.00080
       8 -> 39        -0.00021
       8 -> 41        -0.00075
       8 -> 43         0.00038
       8 -> 45         0.00342
       8 -> 47         0.00081
       8 -> 51        -0.00159
       8 -> 54         0.00032
       3 <- 12         0.00032
       3 <- 15        -0.00058
       3 <- 19         0.00133
       3 <- 30         0.00168
       3 <- 33         0.00028
       3 <- 35        -0.00100
       3 <- 40        -0.00082
       3 <- 49         0.00107
       3 <- 50        -0.00011
       3 <- 53        -0.00050
       4 <- 15         0.00097
       4 <- 22        -0.00124
       4 <- 25         0.00090
       4 <- 30        -0.00111
       4 <- 33         0.00048
       4 <- 35        -0.00049

 The electronic state is 1-A1.
 Alpha  occ. eigenvalues --  -19.16420 -10.30935  -0.97984  -0.67633  -0.48958
 Alpha  occ. eigenvalues --   -0.43752  -0.35961  -0.28971
 Alpha virt. eigenvalues --   -0.11469   0.00054   0.03062   0.04149   0.06203
 Alpha virt. eigenvalues --    0.11739   0.15724   0.18807   0.19187   0.21716
 Alpha virt. eigenvalues --    0.23774   0.30102   0.40666   0.43085   0.50968

 Mulliken charges:
               1
     1  C   -0.026304
     2  H    0.157203
     3  H    0.157203
     4  O   -0.288102
 Sum of Mulliken charges =  -0.00000

 Dipole moment (field-independent basis, Debye):
    X=             -0.0000    Y=              0.0000    Z=             -3.3012  Tot=              3.3012
 Quadrupole moment (field-independent basis, Debye-Ang):
   XX=            -12.3510   YY=            -11.7750   ZZ=            -11.8389
   XY=              0.0000   XZ=              0.0000   YZ=              0.0000

 Normal termination of Gaussian 16 at Fri Sep 17 10:52:52 2021.
