 Gaussian 16, Revision A.03,
 Gaussian 16:  ES64L-G16RevA.03 25-Dec-2016

 --------------------------------------------------------------------
 #p B3LYP/6-311+G** #p TD=(singlets,nstates=30)IOp(6/8=3) IOp(9/40=4)
 --------------------------------------------------------------------

 --------------------------------------------
 Scan Step 86, Bond Length 0.9299999999999999
 --------------------------------------------
 Symbolic Z-matrix:
 Charge =  0 Multiplicity = 1

                         Standard orientation:
 ---------------------------------------------------------------------
 Center     Atomic      Atomic             Coordinates (Angstroms)
 Number     Number       Type             X           Y           Z
 ---------------------------------------------------------------------
      1          6           0        0.000000   -0.000000   -0.391081
      2          1           0        0.000000    0.937260   -0.982431
      3          1           0       -0.000000   -0.937260   -0.982431
      4          8           0        0.000000    0.000000    0.538919
 ---------------------------------------------------------------------

 SCF Done:  E(RB3LYP) =  -114.318397351     A.U. after    9 cycles

 Excitation energies and oscillator strengths:

 Excited State   1:      Singlet-A2     5.4050 eV  229.39 nm  f=0.0000  <S**2>=0.000
       3 -> 27         0.00295
       3 -> 36         0.00237
       3 -> 46         0.00139
       4 -> 27         0.00335
       4 -> 36        -0.00074
       4 -> 46        -0.00078
       5 ->  9         0.01117
       5 -> 13        -0.00947
       5 -> 17         0.00616
       5 -> 22        -0.00341
       5 -> 28         0.00323
       5 -> 31         0.00227
       5 -> 37         0.00378
       5 -> 43         0.00058
       5 -> 52         0.00077
       6 -> 12        -0.00059
       6 -> 16        -0.00132
       6 -> 18        -0.00070
       6 -> 23         0.00177
       6 -> 24         0.00070
       6 -> 29        -0.00049
       6 -> 33         0.00029
       6 -> 35         0.00055
       6 -> 40        -0.00015
       6 -> 42         0.00049
       6 -> 47         0.00066
       6 -> 50        -0.00017
       6 -> 53         0.00031
       7 -> 27         0.00092
       7 -> 36        -0.00037
       7 -> 46         0.00131
       8 ->  9         0.69597
       8 -> 13        -0.12088
       8 -> 17         0.02907
       8 -> 22        -0.00949
       8 -> 28         0.00566
       8 -> 31         0.00348
       8 -> 37        -0.00217
       8 -> 43        -0.00024
       8 -> 52         0.00104
       3 <- 27         0.00215
       3 <- 36         0.00202
       3 <- 46         0.00145
       4 <- 27         0.00392
       4 <- 36        -0.00040
       4 <- 46        -0.00075
       5 <-  9         0.00026
       5 <- 13        -0.00112
       5 <- 17        -0.00014
       5 <- 22         0.00032
       5 <- 28        -0.00016
       5 <- 31        -0.00111
       5 <- 37         0.00170
       5 <- 43         0.00044
       5 <- 49         0.00012
       5 <- 52         0.00020
       6 <- 12        -0.00095
       6 <- 16         0.00265
       6 <- 18        -0.00308
       6 <- 23         0.00515
       6 <- 24        -0.00147
       6 <- 29         0.00182
       6 <- 33        -0.00102
       6 <- 35         0.00215
       6 <- 40        -0.00021
       6 <- 42         0.00094
       6 <- 47         0.00050
       6 <- 53         0.00083
       7 <- 27         0.00111
       7 <- 36        -0.00041
       7 <- 46         0.00103
       8 <-  9        -0.01088
       8 <- 13         0.00802
       8 <- 17        -0.00405
       8 <- 22         0.00055
       8 <- 28        -0.00041
       8 <- 31         0.00260
       8 <- 37        -0.00228
       8 <- 52         0.00032
 This state for optimization and/or second-order correction.
 Total Energy, E(TD-HF/TD-DFT) =  -114.119768791
 Copying the excited state density for this state as the 1-particle RhoCI density.

 Excited State   2:      Singlet-B2     6.0816 eV  203.87 nm  f=0.0790  <S**2>=0.000
       3 -> 12         0.00096
       3 -> 18         0.00110
       3 -> 24         0.00119
       3 -> 29        -0.00017
       3 -> 35        -0.00014
       3 -> 42         0.00012
       3 -> 50        -0.00014
       4 -> 12        -0.00583
       4 -> 16         0.00078
       4 -> 18         0.00184
       4 -> 23        -0.00278
       4 -> 24         0.00404
       4 -> 29        -0.00043
       4 -> 33        -0.00097
       4 -> 35         0.00089
       4 -> 40        -0.00021
       4 -> 42         0.00044
       5 -> 10         0.00073
       5 -> 11        -0.00749
       5 -> 14         0.00572
       5 -> 15         0.00155
       5 -> 19         0.00369
       5 -> 20        -0.00095
       5 -> 21         0.00325
       5 -> 25         0.00103
       5 -> 26         0.00138
       5 -> 30         0.00241
       5 -> 34         0.00015
       5 -> 38        -0.00073
       5 -> 39         0.00018
       5 -> 41         0.00030
       5 -> 44         0.00045
       5 -> 45        -0.00058
       5 -> 48         0.00035
       6 -> 27         0.00088
       6 -> 36         0.00010
       6 -> 46         0.00084
       7 -> 12         0.00210
       7 -> 16         0.00202
       7 -> 18         0.00416
       7 -> 23        -0.00241
       7 -> 24         0.00227
       7 -> 35        -0.00013
       7 -> 42        -0.00038
       7 -> 47         0.00037
       7 -> 50         0.00051
       8 -> 10         0.70616
       8 -> 11        -0.02246
       8 -> 14        -0.01415
       8 -> 15         0.01142
       8 -> 19         0.01973
       8 -> 20         0.00861
       8 -> 21        -0.00717
       8 -> 25         0.00078
       8 -> 26         0.00070
       8 -> 30         0.00014
       8 -> 32         0.00255
       8 -> 34         0.00168
       8 -> 38         0.00075
       8 -> 39        -0.00057
       8 -> 41        -0.00028
       8 -> 44        -0.00054
       8 -> 45        -0.00102
       8 -> 48         0.00028
       8 -> 54        -0.00015
       3 <- 12         0.00030
       3 <- 16        -0.00017
       3 <- 18         0.00061
       3 <- 23        -0.00016
       3 <- 24         0.00085
       3 <- 29        -0.00016
       3 <- 35        -0.00014
       4 <- 12         0.00011
       4 <- 16         0.00041
       4 <- 18         0.00269
       4 <- 23        -0.00168
       4 <- 24         0.00304
       4 <- 29        -0.00034
       4 <- 33        -0.00071
       4 <- 35         0.00066
       4 <- 40        -0.00023
       4 <- 42         0.00017
       5 <- 10         0.00220
       5 <- 14         0.00442
       5 <- 15         0.00161
       5 <- 19         0.00093
       5 <- 20        -0.00022
       5 <- 21         0.00191
       5 <- 25         0.00167
       5 <- 26         0.00128
       5 <- 30         0.00087
       5 <- 32        -0.00039
       5 <- 38        -0.00051
       5 <- 39         0.00016
       5 <- 41         0.00036
       5 <- 44         0.00030
       5 <- 45        -0.00050
       5 <- 48         0.00030
       6 <- 27         0.00068
       6 <- 46         0.00071
       7 <- 12         0.00059
       7 <- 16         0.00153
       7 <- 18         0.00161
       7 <- 23        -0.00095
       7 <- 24         0.00101
       7 <- 29         0.00062
       7 <- 33        -0.00012
       7 <- 35         0.00011
       7 <- 42        -0.00034
       7 <- 47         0.00034
       7 <- 50         0.00055
       8 <- 10        -0.00396
       8 <- 11        -0.00166
       8 <- 14        -0.01179
       8 <- 15        -0.00146
       8 <- 19        -0.00090
       8 <- 20        -0.00031
       8 <- 21        -0.00398
       8 <- 25        -0.00307
       8 <- 26         0.00059
       8 <- 30        -0.00055
       8 <- 32         0.00122
       8 <- 34         0.00158
       8 <- 38         0.00077
       8 <- 39        -0.00047
       8 <- 41        -0.00015
       8 <- 44        -0.00048
       8 <- 45        -0.00071
       8 <- 48         0.00028

 Excited State   3:      Singlet-B2     6.8688 eV  180.50 nm  f=0.0211  <S**2>=0.000
       3 -> 12        -0.00013
       3 -> 16         0.00069
       3 -> 23         0.00018
       3 -> 24         0.00041
       3 -> 29         0.00108
       3 -> 33         0.00014
       3 -> 35        -0.00030
       3 -> 42        -0.00032
       3 -> 47         0.00020
       3 -> 50         0.00023
       4 -> 12         0.00294
       4 -> 16         0.00364
       4 -> 18         0.00245
       4 -> 23        -0.00150
       4 -> 24         0.00361
       4 -> 29        -0.00113
       4 -> 33         0.00056
       4 -> 35        -0.00021
       4 -> 40        -0.00023
       4 -> 47         0.00015
       4 -> 50         0.00014
       5 -> 10        -0.00574
       5 -> 11         0.00014
       5 -> 14         0.00352
       5 -> 15         0.00512
       5 -> 19        -0.00358
       5 -> 20        -0.00115
       5 -> 21         0.00129
       5 -> 25         0.00107
       5 -> 26        -0.00125
       5 -> 30         0.00078
       5 -> 32        -0.00205
       5 -> 34        -0.00060
       5 -> 39        -0.00069
       5 -> 41        -0.00078
       5 -> 44         0.00011
       5 -> 45         0.00062
       5 -> 48        -0.00045
       5 -> 51        -0.00024
       6 -> 27        -0.00079
       6 -> 36        -0.00131
       6 -> 46        -0.00115
       7 -> 12        -0.00301
       7 -> 16         0.00054
       7 -> 18        -0.00238
       7 -> 23         0.00137
       7 -> 24        -0.00022
       7 -> 33        -0.00029
       7 -> 35         0.00128
       7 -> 40        -0.00034
       7 -> 42         0.00071
       7 -> 47        -0.00067
       7 -> 50        -0.00063
       7 -> 53         0.00015
       8 -> 10         0.02296
       8 -> 11         0.70573
       8 -> 14        -0.01604
       8 -> 15        -0.02220
       8 -> 19        -0.01907
       8 -> 20         0.01452
       8 -> 21        -0.00253
       8 -> 25         0.00032
       8 -> 30        -0.00169
       8 -> 32         0.00024
       8 -> 34         0.00042
       8 -> 38        -0.00013
       8 -> 39        -0.00052
       8 -> 41        -0.00137
       8 -> 45         0.00074
       8 -> 48        -0.00070
       8 -> 51        -0.00019
       8 -> 54         0.00017
       3 <- 12         0.00026
       3 <- 16         0.00057
       3 <- 18         0.00039
       3 <- 24         0.00048
       3 <- 29         0.00070
       3 <- 33         0.00018
       3 <- 35        -0.00034
       3 <- 42        -0.00027
       3 <- 47         0.00016
       3 <- 50         0.00013
       3 <- 53        -0.00021
       4 <- 12         0.00030
       4 <- 16         0.00043
       4 <- 18         0.00121
       4 <- 23        -0.00127
       4 <- 24         0.00167
       4 <- 29        -0.00047
       4 <- 33         0.00055
       4 <- 35         0.00013
       4 <- 40        -0.00023
       4 <- 42        -0.00011
       4 <- 50         0.00021
       5 <- 10         0.00136
       5 <- 11        -0.00039
       5 <- 14         0.00190
       5 <- 15         0.00053
       5 <- 19         0.00064
       5 <- 20         0.00020
       5 <- 21         0.00101
       5 <- 25         0.00095
       5 <- 26        -0.00091
       5 <- 30         0.00082
       5 <- 32        -0.00065
       5 <- 34        -0.00111
       5 <- 38         0.00011
       5 <- 39        -0.00047
       5 <- 41        -0.00079
       5 <- 44         0.00014
       5 <- 45         0.00062
       5 <- 48        -0.00031
       5 <- 51        -0.00023
       6 <- 27        -0.00034
       6 <- 36        -0.00108
       6 <- 46        -0.00099
       7 <- 12        -0.00036
       7 <- 16        -0.00025
       7 <- 18        -0.00027
       7 <- 23         0.00028
       7 <- 29        -0.00025
       7 <- 35         0.00090
       7 <- 40        -0.00026
       7 <- 42         0.00049
       7 <- 47        -0.00058
       7 <- 50        -0.00057
       8 <- 10        -0.00158
       8 <- 11         0.00114
       8 <- 14        -0.00596
       8 <- 15        -0.00122
       8 <- 19         0.00215
       8 <- 20        -0.00183
       8 <- 21        -0.00253
       8 <- 25        -0.00031
       8 <- 26        -0.00100
       8 <- 30        -0.00106
       8 <- 32         0.00112
       8 <- 34        -0.00011
       8 <- 38        -0.00029
       8 <- 39        -0.00028
       8 <- 41        -0.00115
       8 <- 45         0.00063
       8 <- 48        -0.00046
       8 <- 51        -0.00019

 Excited State   4:      Singlet-A1     7.0066 eV  176.95 nm  f=0.0464  <S**2>=0.000
       3 -> 10         0.00138
       3 -> 11        -0.00088
       3 -> 14         0.00019
       3 -> 15         0.00055
       3 -> 19         0.00127
       3 -> 20         0.00048
       3 -> 21        -0.00017
       3 -> 25         0.00017
       3 -> 26         0.00015
       3 -> 30         0.00110
       3 -> 32        -0.00027
       3 -> 34        -0.00020
       3 -> 38        -0.00035
       3 -> 39        -0.00022
       3 -> 41        -0.00015
       3 -> 48        -0.00015
       3 -> 51        -0.00031
       3 -> 54         0.00021
       4 -> 10         0.00556
       4 -> 11         0.01001
       4 -> 14         0.00625
       4 -> 15         0.00146
       4 -> 19         0.00087
       4 -> 20         0.00650
       4 -> 21         0.00236
       4 -> 25         0.00693
       4 -> 26         0.00081
       4 -> 30        -0.00071
       4 -> 32        -0.00055
       4 -> 34        -0.00097
       4 -> 38        -0.00020
       4 -> 39         0.00072
       4 -> 41         0.00018
       4 -> 45        -0.00033
       4 -> 48        -0.00026
       5 -> 12         0.00766
       5 -> 16         0.00666
       5 -> 18         0.00884
       5 -> 23         0.00032
       5 -> 24         0.00439
       5 -> 29         0.00055
       5 -> 33        -0.00016
       5 -> 35         0.00092
       5 -> 42        -0.00021
       5 -> 50        -0.00036
       5 -> 53        -0.00014
       6 ->  9         0.00840
       6 -> 13         0.00421
       6 -> 17         0.00517
       6 -> 22         0.00436
       6 -> 28         0.00054
       6 -> 31         0.00088
       6 -> 37         0.00053
       6 -> 43         0.00054
       6 -> 49        -0.00037
       7 -> 10         0.01326
       7 -> 11        -0.00499
       7 -> 14         0.00325
       7 -> 15        -0.00123
       7 -> 19         0.00730
       7 -> 20         0.00347
       7 -> 21         0.00131
       7 -> 25         0.00208
       7 -> 26         0.00029
       7 -> 32         0.00059
       7 -> 34        -0.00091
       7 -> 39         0.00021
       7 -> 48        -0.00019
       7 -> 51         0.00048
       8 -> 12         0.70553
       8 -> 16         0.03968
       8 -> 18         0.00755
       8 -> 23         0.00419
       8 -> 24         0.00145
       8 -> 29         0.00292
       8 -> 33         0.00152
       8 -> 35        -0.00245
       8 -> 42         0.00132
       8 -> 47        -0.00041
       8 -> 50        -0.00015
       8 -> 53        -0.00014
       3 <- 10         0.00057
       3 <- 11        -0.00031
       3 <- 14         0.00014
       3 <- 15         0.00025
       3 <- 19         0.00068
       3 <- 20         0.00020
       3 <- 25         0.00027
       3 <- 30         0.00065
       3 <- 32        -0.00022
       3 <- 34        -0.00014
       3 <- 38        -0.00027
       3 <- 39        -0.00019
       3 <- 41        -0.00015
       3 <- 48        -0.00017
       3 <- 51        -0.00026
       3 <- 54         0.00019
       4 <- 10         0.00561
       4 <- 11         0.00339
       4 <- 14         0.00464
       4 <- 15         0.00156
       4 <- 19         0.00066
       4 <- 20         0.00367
       4 <- 21         0.00084
       4 <- 25         0.00414
       4 <- 26         0.00036
       4 <- 32        -0.00082
       4 <- 34        -0.00090
       4 <- 38        -0.00029
       4 <- 39         0.00063
       4 <- 45        -0.00030
       4 <- 48        -0.00021
       5 <- 12         0.00268
       5 <- 16         0.00155
       5 <- 18         0.00400
       5 <- 23         0.00054
       5 <- 24         0.00238
       5 <- 29         0.00015
       5 <- 33        -0.00030
       5 <- 35         0.00081
       5 <- 42        -0.00019
       5 <- 50        -0.00028
       5 <- 53        -0.00013
       6 <-  9         0.00264
       6 <- 13         0.00158
       6 <- 17         0.00224
       6 <- 22         0.00253
       6 <- 28         0.00031
       6 <- 31         0.00066
       6 <- 37         0.00043
       6 <- 43         0.00046
       6 <- 49        -0.00032
       7 <- 10         0.00439
       7 <- 11        -0.00107
       7 <- 14         0.00154
       7 <- 15        -0.00042
       7 <- 19         0.00303
       7 <- 20         0.00195
       7 <- 21         0.00048
       7 <- 25         0.00122
       7 <- 26         0.00034
       7 <- 30         0.00017
       7 <- 32         0.00033
       7 <- 34        -0.00065
       7 <- 39         0.00028
       7 <- 41         0.00012
       7 <- 51         0.00044
       8 <- 12        -0.00318
       8 <- 16         0.00690
       8 <- 18        -0.00888
       8 <- 23        -0.00030
       8 <- 24        -0.00228
       8 <- 29         0.00132
       8 <- 33         0.00109
       8 <- 35        -0.00166
       8 <- 42         0.00108
       8 <- 47        -0.00048
       8 <- 50        -0.00013
       8 <- 53        -0.00015

 Excited State   5:      Singlet-A2     7.6631 eV  161.79 nm  f=0.0000  <S**2>=0.000
       3 -> 27        -0.00143
       3 -> 36        -0.00121
       3 -> 46        -0.00063
       4 -> 27        -0.00056
       4 -> 36         0.00070
       4 -> 46         0.00021
       5 ->  9        -0.00931
       5 -> 13         0.00599
       5 -> 17         0.00325
       5 -> 22         0.00061
       5 -> 28        -0.00017
       5 -> 31        -0.00217
       5 -> 37        -0.00217
       5 -> 43        -0.00031
       5 -> 52        -0.00034
       6 -> 12        -0.00031
       6 -> 16         0.00208
       6 -> 18         0.00073
       6 -> 23        -0.00113
       6 -> 24        -0.00025
       6 -> 29         0.00033
       6 -> 35        -0.00032
       6 -> 42        -0.00030
       6 -> 47        -0.00029
       6 -> 53        -0.00016
       7 -> 36         0.00025
       7 -> 46        -0.00067
       8 ->  9         0.12135
       8 -> 13         0.69618
       8 -> 22         0.02231
       8 -> 28        -0.00141
       8 -> 31        -0.00141
       8 -> 37         0.00072
       8 -> 43         0.00014
       8 -> 49         0.00017
       8 -> 52        -0.00040
       3 <- 27        -0.00082
       3 <- 36        -0.00097
       3 <- 46        -0.00073
       4 <- 27        -0.00110
       4 <- 46         0.00025
       5 <-  9        -0.00029
       5 <- 13         0.00010
       5 <- 17         0.00059
       5 <- 22        -0.00012
       5 <- 31         0.00019
       5 <- 37        -0.00066
       5 <- 43        -0.00018
       5 <- 52        -0.00011
       6 <- 12        -0.00052
       6 <- 16         0.00049
       6 <- 18         0.00065
       6 <- 23        -0.00227
       6 <- 24         0.00020
       6 <- 33         0.00066
       6 <- 35        -0.00119
       6 <- 40         0.00011
       6 <- 42        -0.00065
       6 <- 47        -0.00012
       6 <- 53        -0.00033
       7 <- 27        -0.00035
       7 <- 36         0.00026
       7 <- 46        -0.00032
       8 <-  9         0.00606
       8 <- 13        -0.00020
       8 <- 17         0.00063
       8 <- 22        -0.00049
       8 <- 28         0.00021
       8 <- 31        -0.00079
       8 <- 37         0.00078
       8 <- 52        -0.00016

 Excited State   6:      Singlet-B2    10.0295 eV  123.62 nm  f=0.2752  <S**2>=0.000
       3 -> 12        -0.00042
       3 -> 16         0.00171

 The electronic state is 1-A1.
 Alpha  occ. eigenvalues --  -19.13789 -10.23838  -1.24607  -0.60191  -0.58970
 Alpha  occ. eigenvalues --   -0.53642  -0.51185  -0.24859
 Alpha virt. eigenvalues --    0.00797   0.01383   0.04350   0.04409   0.08310
 Alpha virt. eigenvalues --    0.14081   0.17839   0.20452   0.21923   0.22831
 Alpha virt. eigenvalues --    0.26424   0.36205   0.49894   0.52201   0.52642

 Mulliken charges:
               1
     1  C    0.173924
     2  H    0.018316
     3  H    0.018316
     4  O   -0.210555
 Sum of Mulliken charges =  -0.00000

 Dipole moment (field-independent basis, Debye):
    X=              0.0000    Y=              0.0000    Z=             -0.8319  Tot=              0.8319
 Quadrupole moment (field-independent basis, Debye-Ang):
   XX=            -10.9062   YY=            -12.2004   ZZ=            -13.1211
   XY=             -0.0000   XZ=             -0.0000   YZ=              0.0000

 Normal termination of Gaussian 16 at Fri Sep 17 10:52:33 2021.
