 Gaussian 16, Revision A.03,
 Gaussian 16:  ES64L-G16RevA.03 25-Dec-2016

 --------------------------------------------------------------------
 #p B3LYP/6-311+G** #p TD=(singlets,nstates=30)IOp(6/8=3) IOp(9/40=4)
 --------------------------------------------------------------------

 -------------------------------
 Scan Step 256, Bond Length 1.78
 -------------------------------
 Symbolic Z-matrix:
 Charge =  0 Multiplicity = 1

                         Standard orientation:
 ---------------------------------------------------------------------
 Center     Atomic      Atomic             Coordinates (Angstroms)
 Number     Number       Type             X           Y           Z
 ---------------------------------------------------------------------
      1          6           0        0.000000    0.000000   -0.816081
      2          1           0        0.000000    0.937260   -1.407431
      3          1           0       -0.000000   -0.937260   -1.407431
      4          8           0        0.000000   -0.000000    0.963919
 ---------------------------------------------------------------------

 SCF Done:  E(RB3LYP) =  -114.363277613     A.U. after   11 cycles

 Excitation energies and oscillator strengths:

 Excited State   1:      Singlet-A2     1.4180 eV  874.38 nm  f=0.0000  <S**2>=0.000
       3 -> 27         0.00080
       3 -> 38         0.00052
       3 -> 46         0.00335
       4 -> 27         0.00044
       4 -> 46        -0.00105
       5 ->  9         0.00271
       5 -> 13         0.00111
       5 -> 18         0.00193
       5 -> 23         0.00145
       5 -> 28         0.00154
       5 -> 37         0.00085
       5 -> 44         0.00023
       5 -> 52         0.00021
       6 -> 27        -0.00059
       6 -> 38        -0.00061
       6 -> 46         0.00103
       7 -> 12        -0.00119
       7 -> 16         0.00521
       7 -> 19        -0.00454
       7 -> 22        -0.00108
       7 -> 25        -0.00065
       7 -> 29        -0.00183
       7 -> 33         0.00029
       7 -> 49         0.00013
       7 -> 53         0.00040
       8 ->  9         0.71024
       8 -> 13        -0.00795
       8 -> 18         0.02103
       8 -> 23        -0.00140
       8 -> 28         0.01052
       8 -> 31         0.00156
       8 -> 37         0.00052
       8 -> 48        -0.00030
       8 -> 52         0.00188
       3 <- 27         0.00026
       3 <- 38         0.00029
       3 <- 46         0.00339
       4 <- 27         0.00081
       4 <- 38         0.00021
       4 <- 46        -0.00082
       5 <-  9         0.00022
       5 <- 13        -0.00037
       5 <- 18        -0.00044
       5 <- 23         0.00018
       5 <- 28        -0.00032
       5 <- 31         0.00024
       5 <- 37         0.00049
       6 <- 38        -0.00047
       6 <- 46         0.00076
       7 <- 12         0.00155
       7 <- 16        -0.01051
       7 <- 19         0.00519
       7 <- 22         0.00604
       7 <- 25        -0.00062
       7 <- 29         0.00557
       7 <- 33        -0.00036
       7 <- 35         0.00027
       7 <- 40        -0.00018
       7 <- 42         0.00014
       7 <- 49        -0.00048
       7 <- 53         0.00146
       8 <-  9        -0.06973
       8 <- 13        -0.00025
       8 <- 18        -0.00751
       8 <- 23        -0.00023
       8 <- 28        -0.00270
       8 <- 31        -0.00078
       8 <- 37        -0.00025
       8 <- 48         0.00013
       8 <- 52         0.00046
 This state for optimization and/or second-order correction.
 Total Energy, E(TD-HF/TD-DFT) =  -114.311168323
 Copying the excited state density for this state as the 1-particle RhoCI density.

 Excited State   2:      Singlet-A1     3.7244 eV  332.89 nm  f=0.0386  <S**2>=0.000
       3 -> 10        -0.01629
       3 -> 11        -0.00428
       3 -> 14         0.00277
       3 -> 15         0.00092
       3 -> 17        -0.00319
       3 -> 20        -0.00374
       3 -> 21         0.00022
       3 -> 24         0.00088
       3 -> 26         0.00182
       3 -> 30        -0.00099
       3 -> 32         0.00277
       3 -> 34        -0.00125
       3 -> 36        -0.00108
       3 -> 39         0.00051
       3 -> 43         0.00053
       3 -> 45        -0.00080
       3 -> 47         0.00230
       3 -> 50         0.00146
       4 -> 10        -0.00293
       4 -> 11         0.01144
       4 -> 14         0.00240
       4 -> 15        -0.00834
       4 -> 17         0.00245
       4 -> 20         0.00271
       4 -> 21         0.00032
       4 -> 24        -0.00402
       4 -> 26         0.00373
       4 -> 30         0.00057
       4 -> 32        -0.00131
       4 -> 34         0.00093
       4 -> 36         0.00023
       4 -> 39         0.00014
       4 -> 43        -0.00050
       4 -> 45         0.00079
       4 -> 47        -0.00086
       4 -> 50        -0.00030
       4 -> 54         0.00015
       5 -> 12         0.01113
       5 -> 16         0.00408
       5 -> 19         0.00126
       5 -> 22         0.00716
       5 -> 25        -0.00537
       5 -> 29         0.00030
       5 -> 33        -0.00256
       5 -> 35         0.00276
       5 -> 40        -0.00112
       5 -> 42         0.00092
       5 -> 49         0.00021
       5 -> 51        -0.00082
       6 -> 10         0.23741
       6 -> 11         0.04733
       6 -> 14        -0.05348
       6 -> 15        -0.02818
       6 -> 17        -0.01682
       6 -> 20        -0.00307
       6 -> 21         0.00699
       6 -> 24        -0.00914
       6 -> 26        -0.00390
       6 -> 30        -0.00534
       6 -> 32         0.00315
       6 -> 34        -0.00140
       6 -> 36         0.00028
       6 -> 39         0.00123
       6 -> 41        -0.00017
       6 -> 43         0.00085
       6 -> 45        -0.00084
       6 -> 47         0.00087
       6 -> 50         0.00064
       6 -> 54        -0.00092
       7 ->  9         0.67797
       7 -> 13        -0.00574
       7 -> 18        -0.01204
       7 -> 23        -0.00219
       7 -> 28         0.00077
       7 -> 31        -0.00326
       7 -> 37         0.00126
       7 -> 44        -0.00098
       7 -> 48         0.00015
       7 -> 52         0.00106
       8 -> 12        -0.00778
       8 -> 16         0.04275
       8 -> 19        -0.01987
       8 -> 22        -0.01528
       8 -> 29        -0.00887
       8 -> 33         0.00117
       8 -> 35        -0.00102
       8 -> 40         0.00044
       8 -> 42        -0.00031
       8 -> 49         0.00023
       8 -> 51         0.00016
       8 -> 53        -0.00054
       3 <- 10        -0.01239
       3 <- 11        -0.00362
       3 <- 14         0.00228
       3 <- 15         0.00032
       3 <- 17        -0.00179
       3 <- 20        -0.00311
       3 <- 21        -0.00025
       3 <- 24         0.00030
       3 <- 26         0.00079
       3 <- 30        -0.00050
       3 <- 32         0.00246
       3 <- 34        -0.00068
       3 <- 36        -0.00103
       3 <- 39         0.00047
       3 <- 43         0.00060
       3 <- 45        -0.00095
       3 <- 47         0.00233
       3 <- 50         0.00146
       4 <- 10        -0.00074
       4 <- 11         0.00807
       4 <- 14         0.00166
       4 <- 15        -0.00554
       4 <- 17         0.00143
       4 <- 20         0.00299
       4 <- 21         0.00016
       4 <- 24        -0.00300
       4 <- 26         0.00321
       4 <- 32        -0.00146
       4 <- 34         0.00079
       4 <- 36         0.00052
       4 <- 39         0.00014
       4 <- 43        -0.00046
       4 <- 45         0.00076
       4 <- 47        -0.00053
       4 <- 50        -0.00017
       4 <- 54         0.00012
       5 <- 12         0.00631
       5 <- 16         0.00255
       5 <- 19         0.00098
       5 <- 22         0.00500
       5 <- 25        -0.00408
       5 <- 29         0.00033
       5 <- 33        -0.00210
       5 <- 35         0.00236
       5 <- 40        -0.00101
       5 <- 42         0.00081
       5 <- 49         0.00020
       5 <- 51        -0.00076
       6 <- 10         0.07943
       6 <- 11         0.01858
       6 <- 14        -0.02473
       6 <- 15        -0.01436
       6 <- 17        -0.00972
       6 <- 20        -0.00314
       6 <- 21         0.00467
       6 <- 24        -0.00596
       6 <- 26        -0.00211
       6 <- 30        -0.00369
       6 <- 32         0.00323
       6 <- 34        -0.00158
       6 <- 36        -0.00022
       6 <- 39         0.00114
       6 <- 41        -0.00014
       6 <- 43         0.00070
       6 <- 45        -0.00064
       6 <- 47         0.00051
       6 <- 50         0.00049
       6 <- 54        -0.00083
       7 <-  9        -0.13066
       7 <- 13         0.00425
       7 <- 18        -0.01198
       7 <- 23         0.00134
       7 <- 28        -0.00216
       7 <- 31        -0.00159
       7 <- 37         0.00059
       7 <- 44        -0.00074
       7 <- 48        -0.00038
       7 <- 52         0.00096
       8 <- 12        -0.00288
       8 <- 16         0.02001
       8 <- 19        -0.01084
       8 <- 22        -0.00971
       8 <- 25         0.00011
       8 <- 29        -0.00696
       8 <- 33         0.00092
       8 <- 35        -0.00080
       8 <- 40         0.00035
       8 <- 42        -0.00025
       8 <- 51         0.00014
       8 <- 53        -0.00051

 Excited State   3:      Singlet-B1     4.1950 eV  295.55 nm  f=0.0007  <S**2>=0.000
       3 ->  9        -0.02445
       3 -> 13         0.00102
       3 -> 18        -0.00385
       3 -> 23         0.00131
       3 -> 28        -0.00082
       3 -> 31        -0.00063
       3 -> 37         0.00012
       3 -> 44         0.00031
       3 -> 48         0.00068
       3 -> 52         0.00079
       4 ->  9         0.00927
       4 -> 13        -0.00207
       4 -> 18         0.00013
       4 -> 23        -0.00186
       4 -> 28         0.00045
       4 -> 31        -0.00127
       4 -> 37        -0.00030
       4 -> 48        -0.00066
       4 -> 52        -0.00036
       5 -> 38         0.00175
       5 -> 46         0.00052
       6 ->  9         0.68355
       6 -> 13        -0.01737
       6 -> 18         0.01456
       6 -> 23        -0.01028
       6 -> 28         0.00360
       6 -> 31         0.00244
       6 -> 37        -0.00165
       6 -> 44        -0.00202
       6 -> 48         0.00353
       6 -> 52         0.00108
       7 -> 10         0.18304
       7 -> 11         0.02607
       7 -> 14        -0.02416
       7 -> 15        -0.00754
       7 -> 17        -0.00950
       7 -> 20         0.00364
       7 -> 21         0.00144
       7 -> 24        -0.00229
       7 -> 26        -0.00263
       7 -> 30        -0.00444
       7 -> 34        -0.00072
       7 -> 36         0.00149
       7 -> 39         0.00018
       7 -> 41        -0.00023
       7 -> 43         0.00048
       7 -> 45        -0.00047
       7 -> 47         0.00369
       7 -> 50         0.00122
       8 -> 27         0.00014
       8 -> 46         0.00453
       3 <-  9        -0.00824
       3 <- 13        -0.00084
       3 <- 18        -0.00257
       3 <- 23        -0.00057
       3 <- 28        -0.00046
       3 <- 31        -0.00075
       3 <- 37         0.00016
       3 <- 48         0.00080
       3 <- 52         0.00070
       4 <-  9         0.00565
       4 <- 13        -0.00038
       4 <- 18         0.00151
       4 <- 23        -0.00070
       4 <- 28         0.00142
       4 <- 31        -0.00088
       4 <- 37        -0.00019
       4 <- 48        -0.00058
       4 <- 52        -0.00019
       5 <- 27        -0.00047
       5 <- 38         0.00150
       5 <- 46         0.00046
       6 <-  9        -0.03611
       6 <- 13         0.00202
       6 <- 18        -0.00441
       6 <- 28        -0.00389
       6 <- 31         0.00031
       6 <- 37        -0.00135
       6 <- 44        -0.00071
       6 <- 48         0.00317
       6 <- 52         0.00013
       7 <- 10        -0.04114
       7 <- 11        -0.00951
       7 <- 14         0.01372
       7 <- 15         0.00883
       7 <- 17         0.00274
       7 <- 20         0.00332
       7 <- 21        -0.00348
       7 <- 24         0.00419
       7 <- 26         0.00175
       7 <- 30         0.00188
       7 <- 32         0.00036
       7 <- 34        -0.00103
       7 <- 36         0.00162
       7 <- 39         0.00058
       7 <- 41         0.00012
       7 <- 43         0.00028
       7 <- 45        -0.00024
       7 <- 47         0.00342
       7 <- 50         0.00129
       7 <- 54         0.00088
       8 <- 27         0.00061
       8 <- 38         0.00013
       8 <- 46         0.00425

 Excited State   4:      Singlet-B2     4.2212 eV  293.72 nm  f=0.0037  <S**2>=0.000
       3 -> 12        -0.00132
       3 -> 16         0.00155
       3 -> 19        -0.00424
       3 -> 22         0.00098
       3 -> 25        -0.00083
       3 -> 29        -0.00286
       3 -> 33         0.00012
       3 -> 35         0.00167
       3 -> 40        -0.00149
       3 -> 42         0.00052
       3 -> 49        -0.00366
       3 -> 51         0.00019
       3 -> 53         0.00029
       4 -> 12         0.00043
       4 -> 16        -0.00177
       4 -> 19         0.00042
       4 -> 22         0.00207
       4 -> 25         0.00085
       4 -> 29         0.00108
       4 -> 33        -0.00038
       4 -> 35         0.00046
       4 -> 40         0.00035
       4 -> 42        -0.00012
       4 -> 49         0.00070
       4 -> 51        -0.00011
       5 -> 10         0.01077
       5 -> 11         0.00192
       5 -> 14        -0.00485
       5 -> 15         0.00371
       5 -> 17        -0.00043
       5 -> 20         0.00207
       5 -> 21         0.00379
       5 -> 24         0.00157
       5 -> 26        -0.00080
       5 -> 30        -0.00202
       5 -> 32        -0.00171
       5 -> 34         0.00045
       5 -> 39        -0.00079
       5 -> 41         0.00049
       5 -> 47        -0.00051
       5 -> 50         0.00032
       5 -> 54        -0.00021
       6 -> 12         0.00261
       6 -> 16        -0.00258
       6 -> 19         0.00397
       6 -> 22        -0.00055
       6 -> 25         0.00108
       6 -> 35        -0.00148
       6 -> 40         0.00109
       6 -> 42        -0.00068
       6 -> 49         0.00140
       6 -> 53        -0.00045
       7 -> 27        -0.00060
       7 -> 38         0.00044
       7 -> 46         0.00335
       8 -> 10         0.69855
       8 -> 11         0.08294
       8 -> 14        -0.07170
       8 -> 15        -0.02809
       8 -> 17        -0.01643
       8 -> 20         0.00335
       8 -> 21         0.00683
       8 -> 24        -0.00637
       8 -> 26        -0.00493
       8 -> 30        -0.01230
       8 -> 32        -0.00304
       8 -> 34         0.00147
       8 -> 36         0.00104
       8 -> 39        -0.00067
       8 -> 41        -0.00012
       8 -> 45        -0.00095
       8 -> 47        -0.00415
       8 -> 50         0.00173
       8 -> 54        -0.00233
       3 <- 12        -0.00047
       3 <- 16         0.00051
       3 <- 19        -0.00206
       3 <- 22         0.00096
       3 <- 25        -0.00075
       3 <- 29        -0.00115
       3 <- 33         0.00013
       3 <- 35         0.00117
       3 <- 40        -0.00129
       3 <- 42         0.00040
       3 <- 49        -0.00373
       3 <- 51         0.00018
       3 <- 53         0.00080
       4 <- 16        -0.00187
       4 <- 19         0.00016
       4 <- 22         0.00229
       4 <- 25         0.00052
       4 <- 29         0.00123
       4 <- 33        -0.00041
       4 <- 35         0.00068
       4 <- 40         0.00014
       4 <- 49         0.00050
       5 <- 10        -0.00085
       5 <- 11        -0.00087
       5 <- 14        -0.00058
       5 <- 15         0.00288
       5 <- 17         0.00020
       5 <- 20         0.00077
       5 <- 21         0.00181
       5 <- 24         0.00185
       5 <- 26        -0.00020
       5 <- 30        -0.00043
       5 <- 32        -0.00032
       5 <- 39        -0.00033
       5 <- 41         0.00052
       5 <- 45        -0.00027
       5 <- 47        -0.00050
       5 <- 50         0.00017
       6 <- 12        -0.00053
       6 <- 16         0.00727
       6 <- 19        -0.00369
       6 <- 22        -0.00503
       6 <- 25         0.00106
       6 <- 29        -0.00587
       6 <- 33         0.00030
       6 <- 35        -0.00137
       6 <- 40         0.00110
       6 <- 42        -0.00073
       6 <- 49         0.00182
       6 <- 53        -0.00136
       7 <- 27        -0.00059
       7 <- 38         0.00036
       7 <- 46         0.00286
       8 <- 10        -0.03554
       8 <- 11        -0.00824
       8 <- 14         0.00876
       8 <- 15         0.00243
       8 <- 17         0.00146
       8 <- 20        -0.00303
       8 <- 21        -0.00163
       8 <- 24         0.00160
       8 <- 26         0.00145
       8 <- 30         0.00067
       8 <- 32         0.00306
       8 <- 34        -0.00096
       8 <- 36        -0.00067
       8 <- 39         0.00129
       8 <- 41         0.00029
       8 <- 43         0.00048
       8 <- 45        -0.00173
       8 <- 47        -0.00336
       8 <- 50         0.00128
       8 <- 54        -0.00063

 Excited State   5:      Singlet-B1     5.0583 eV  245.11 nm  f=0.0073  <S**2>=0.000
       3 ->  9        -0.00787
       3 -> 13         0.00035
       3 -> 18        -0.00244
       3 -> 23         0.00059
       3 -> 28        -0.00282
       3 -> 31        -0.00152
       3 -> 37         0.00011
       3 -> 44         0.00028
       3 -> 48        -0.00288
       3 -> 52        -0.00014
       4 ->  9        -0.03116
       4 -> 13         0.00606
       4 -> 18         0.00105
       4 -> 23         0.00462
       4 -> 28         0.00133
       4 -> 31         0.00017
       4 -> 37         0.00033
       4 -> 44        -0.00045
       4 -> 48         0.00078
       4 -> 52         0.00015
       5 -> 27        -0.00665
       5 -> 38        -0.00332
       5 -> 46         0.00028
       6 ->  9        -0.18354
       6 -> 13         0.00042
       6 -> 18         0.00106
       6 -> 23         0.00083
       6 -> 28         0.00307
       6 -> 31        -0.00378
       6 -> 37         0.00223
       6 -> 44         0.00057
       6 -> 52        -0.00072
       7 -> 10         0.67549
       7 -> 11         0.06961
       7 -> 14        -0.06342
       7 -> 15        -0.03402
       7 -> 17        -0.00947
       7 -> 20        -0.00294
       7 -> 21         0.00359
       7 -> 24        -0.00966
       7 -> 26        -0.00632
       7 -> 30        -0.00723
       7 -> 32        -0.00187
       7 -> 34         0.00379
       7 -> 36        -0.00145
       7 -> 39        -0.00063
       7 -> 43         0.00058
       7 -> 45        -0.00096
       7 -> 47         0.00121
       7 -> 50         0.00058
       7 -> 54        -0.00162
       8 -> 27         0.00074
       8 -> 38         0.00022
       8 -> 46         0.00147
       3 <-  9        -0.00167
       3 <- 13         0.00068
       3 <- 18        -0.00094
       3 <- 23         0.00060
       3 <- 28        -0.00187
       3 <- 31        -0.00023
       3 <- 37        -0.00022
       3 <- 48        -0.00302
       3 <- 52         0.00031
       4 <-  9        -0.01282
       4 <- 13         0.00271
       4 <- 18         0.00032
       4 <- 23         0.00264
       4 <- 28         0.00128
       4 <- 37         0.00037
       4 <- 44        -0.00065
       4 <- 48         0.00037
       4 <- 52         0.00013
       5 <- 27        -0.00470
       5 <- 38        -0.00267
       5 <- 46         0.00029
       6 <-  9        -0.02818
       6 <- 18        -0.00365
       6 <- 23         0.00056
       6 <- 28        -0.00039
       6 <- 31        -0.00456
       6 <- 37         0.00207
       6 <- 44         0.00069
       6 <- 48         0.00061
       6 <- 52        -0.00124

 The electronic state is 1-A1.
 Alpha  occ. eigenvalues --  -19.17663 -10.33721  -0.89829  -0.71108  -0.49138
 Alpha  occ. eigenvalues --   -0.39473  -0.31145  -0.28770
 Alpha virt. eigenvalues --   -0.16686  -0.05857   0.00095   0.04054   0.06097
 Alpha virt. eigenvalues --    0.06693   0.11925   0.13534   0.18787   0.21093
 Alpha virt. eigenvalues --    0.23970   0.30373   0.38585   0.39854   0.50712

 Mulliken charges:
               1
     1  C   -0.090772
     2  H    0.190416
     3  H    0.190416
     4  O   -0.290059
 Sum of Mulliken charges =   0.00000

 Dipole moment (field-independent basis, Debye):
    X=             -0.0000    Y=              0.0000    Z=             -4.0962  Tot=              4.0962
 Quadrupole moment (field-independent basis, Debye-Ang):
   XX=            -12.9890   YY=            -12.0088   ZZ=            -10.7819
   XY=              0.0000   XZ=              0.0000   YZ=             -0.0000

 Normal termination of Gaussian 16 at Fri Sep 17 10:53:07 2021.
