 Gaussian 16, Revision A.03,
 Gaussian 16:  ES64L-G16RevA.03 25-Dec-2016

 --------------------------------------------------------------------
 #p B3LYP/6-311+G** #p TD=(singlets,nstates=30)IOp(6/8=3) IOp(9/40=4)
 --------------------------------------------------------------------

 -------------------------------
 Scan Step 192, Bond Length 1.46
 -------------------------------
 Symbolic Z-matrix:
 Charge =  0 Multiplicity = 1

                         Standard orientation:
 ---------------------------------------------------------------------
 Center     Atomic      Atomic             Coordinates (Angstroms)
 Number     Number       Type             X           Y           Z
 ---------------------------------------------------------------------
      1          6           0        0.000000    0.000000   -0.656081
      2          1           0        0.000000    0.937260   -1.247431
      3          1           0       -0.000000   -0.937260   -1.247431
      4          8           0        0.000000   -0.000000    0.803919
 ---------------------------------------------------------------------

 SCF Done:  E(RB3LYP) =  -114.479990697     A.U. after    9 cycles

 Excitation energies and oscillator strengths:

 Excited State   1:      Singlet-A2     2.5705 eV  482.34 nm  f=0.0000  <S**2>=0.000
       3 -> 27         0.00159
       3 -> 38         0.00126
       3 -> 46         0.00311
       4 -> 27         0.00102
       4 -> 38        -0.00025
       4 -> 46        -0.00140
       5 ->  9         0.01261
       5 -> 13         0.00031
       5 -> 18         0.00385
       5 -> 23         0.00145
       5 -> 28         0.00343
       5 -> 31        -0.00054
       5 -> 37         0.00201
       5 -> 44         0.00042
       5 -> 52         0.00048
       6 -> 27        -0.00056
       6 -> 38        -0.00086
       6 -> 46         0.00157
       7 -> 12        -0.00074
       7 -> 15         0.00421
       7 -> 19        -0.00364
       7 -> 22        -0.00038
       7 -> 25         0.00118
       7 -> 30        -0.00130
       7 -> 33         0.00042
       7 -> 42        -0.00010
       7 -> 49         0.00015
       7 -> 50         0.00023
       7 -> 53         0.00047
       8 ->  9         0.70749
       8 -> 13        -0.01978
       8 -> 18         0.02203
       8 -> 23        -0.00566
       8 -> 28         0.01097
       8 -> 31         0.00015
       8 -> 37         0.00063
       8 -> 48        -0.00030
       8 -> 52         0.00192
       3 <- 27         0.00087
       3 <- 38         0.00096
       3 <- 46         0.00318
       4 <- 27         0.00166
       4 <- 38         0.00021
       4 <- 46        -0.00115
       5 <-  9        -0.00050
       5 <- 13        -0.00064
       5 <- 18        -0.00087
       5 <- 23         0.00037
       5 <- 28        -0.00061
       5 <- 31         0.00048
       5 <- 37         0.00107
       5 <- 44         0.00015
       5 <- 52         0.00013
       6 <- 38        -0.00072
       6 <- 46         0.00122
       7 <- 15        -0.00932
       7 <- 19         0.00252
       7 <- 22         0.00734
       7 <- 25         0.00039
       7 <- 30         0.00481
       7 <- 33        -0.00079
       7 <- 35         0.00142
       7 <- 40         0.00070
       7 <- 49        -0.00025
       7 <- 50         0.00015
       7 <- 53         0.00143
       8 <-  9        -0.03981
       8 <- 13         0.00118
       8 <- 18        -0.00578
       8 <- 23         0.00048
       8 <- 28        -0.00196
       8 <- 31        -0.00054
       8 <- 37        -0.00072
       8 <- 52         0.00052
 This state for optimization and/or second-order correction.
 Total Energy, E(TD-HF/TD-DFT) =  -114.385526717
 Copying the excited state density for this state as the 1-particle RhoCI density.

 Excited State   2:      Singlet-A1     6.4347 eV  192.68 nm  f=0.1145  <S**2>=0.000
       3 -> 10         0.00802
       3 -> 11        -0.01638
       3 -> 14         0.01055
       3 -> 16         0.02027
       3 -> 17        -0.00483
       3 -> 20        -0.00227
       3 -> 21        -0.00358
       3 -> 24         0.00459
       3 -> 26         0.00653
       3 -> 29        -0.00015
       3 -> 32         0.00286
       3 -> 34         0.00369
       3 -> 36         0.00072
       3 -> 39         0.00117
       3 -> 41         0.00011
       3 -> 43         0.00049
       3 -> 45         0.00142
       3 -> 47         0.00158
       3 -> 51         0.00055
       3 -> 54         0.00029
       4 -> 10         0.02134
       4 -> 11         0.01035
       4 -> 14         0.01298
       4 -> 16        -0.00665
       4 -> 17         0.00351
       4 -> 20         0.00823
       4 -> 21         0.00024
       4 -> 24        -0.00655
       4 -> 26         0.00595
       4 -> 29         0.00113
       4 -> 32        -0.00121
       4 -> 34        -0.00266
       4 -> 36        -0.00033
       4 -> 39        -0.00020
       4 -> 41         0.00013
       4 -> 43        -0.00023
       4 -> 45        -0.00014
       4 -> 47        -0.00168
       4 -> 51        -0.00021
       5 -> 12         0.02510
       5 -> 15         0.02181
       5 -> 19         0.00178
       5 -> 22         0.00524
       5 -> 25         0.01137
       5 -> 30        -0.00167
       5 -> 33        -0.00336
       5 -> 35         0.00233
       5 -> 40         0.00163
       5 -> 42         0.00065
       5 -> 49         0.00061
       5 -> 50        -0.00054
       5 -> 53        -0.00025
       6 -> 10        -0.05595
       6 -> 11         0.08738
       6 -> 14        -0.05060
       6 -> 16        -0.12114
       6 -> 17        -0.01532
       6 -> 20        -0.02480
       6 -> 21         0.02292
       6 -> 24        -0.02060
       6 -> 26        -0.01056
       6 -> 29        -0.00997
       6 -> 34         0.00234
       6 -> 36        -0.00166
       6 -> 39         0.00041
       6 -> 41        -0.00074
       6 -> 43         0.00059
       6 -> 45         0.00011
       6 -> 47         0.00177
       6 -> 51         0.00082
       6 -> 54        -0.00040
       7 ->  9         0.68605
       7 -> 13         0.01257
       7 -> 18        -0.02455
       7 -> 23         0.00376
       7 -> 28        -0.00379
       7 -> 31        -0.00234
       7 -> 37         0.00039
       7 -> 44        -0.00101
       7 -> 48         0.00058
       7 -> 52         0.00102
       8 -> 12        -0.00184
       8 -> 15         0.10600
       8 -> 19        -0.02683
       8 -> 22        -0.03963
       8 -> 25         0.00206
       8 -> 30        -0.01451
       8 -> 33         0.00416
       8 -> 35        -0.00524
       8 -> 40        -0.00226
       8 -> 42        -0.00035
       8 -> 49         0.00070
       8 -> 50         0.00032
       8 -> 53        -0.00090
       3 <- 10         0.00465
       3 <- 11        -0.01026
       3 <- 14         0.00740
       3 <- 16         0.01348
       3 <- 17        -0.00253
       3 <- 20        -0.00134
       3 <- 21        -0.00329
       3 <- 24         0.00310
       3 <- 26         0.00416
       3 <- 32         0.00261
       3 <- 34         0.00244
       3 <- 36         0.00043
       3 <- 39         0.00093
       3 <- 41         0.00013
       3 <- 43         0.00053
       3 <- 45         0.00135
       3 <- 47         0.00183
       3 <- 51         0.00052
       3 <- 54         0.00035
       4 <- 10         0.00953
       4 <- 11         0.00553
       4 <- 14         0.00598
       4 <- 16        -0.00400
       4 <- 17         0.00156
       4 <- 20         0.00558
       4 <- 21         0.00026
       4 <- 24        -0.00407
       4 <- 26         0.00432
       4 <- 29         0.00023
       4 <- 32        -0.00159
       4 <- 34        -0.00225
       4 <- 39        -0.00024
       4 <- 43        -0.00023
       4 <- 45         0.00027
       4 <- 47        -0.00141
       5 <- 12         0.00872
       5 <- 15         0.00920
       5 <- 19         0.00111
       5 <- 22         0.00286
       5 <- 25         0.00689
       5 <- 30        -0.00095
       5 <- 33        -0.00246
       5 <- 35         0.00185
       5 <- 40         0.00138
       5 <- 42         0.00051
       5 <- 49         0.00052
       5 <- 50        -0.00049
       5 <- 53        -0.00022
       6 <- 10        -0.01324
       6 <- 11         0.02223
       6 <- 14        -0.01677
       6 <- 16        -0.04572
       6 <- 17        -0.00621
       6 <- 20        -0.01227
       6 <- 21         0.01177
       6 <- 24        -0.01157
       6 <- 26        -0.00619
       6 <- 29        -0.00640
       6 <- 32         0.00042
       6 <- 34         0.00239
       6 <- 36        -0.00118
       6 <- 39         0.00057
       6 <- 41        -0.00049
       6 <- 43         0.00052
       6 <- 45        -0.00019
       6 <- 47         0.00134
       6 <- 51         0.00062
       6 <- 54        -0.00031
       7 <-  9        -0.11114
       7 <- 13         0.01057
       7 <- 18        -0.01476
       7 <- 23         0.00587
       7 <- 28        -0.00534
       7 <- 31        -0.00077
       7 <- 44        -0.00048
       7 <- 52         0.00086
       8 <- 12        -0.00029
       8 <- 15         0.02699
       8 <- 19        -0.00872
       8 <- 22        -0.01814
       8 <- 25         0.00066
       8 <- 30        -0.00957
       8 <- 33         0.00290
       8 <- 35        -0.00378
       8 <- 40        -0.00177
       8 <- 42        -0.00028
       8 <- 49         0.00048
       8 <- 50         0.00025
       8 <- 53        -0.00080

 Excited State   3:      Singlet-B1     6.5135 eV  190.35 nm  f=0.0015  <S**2>=0.000
       3 ->  9        -0.03209
       3 -> 13         0.00275
       3 -> 18        -0.00569
       3 -> 23         0.00254
       3 -> 28        -0.00149
       3 -> 31        -0.00050
       3 -> 44         0.00037
       3 -> 48         0.00070
       3 -> 52         0.00107
       4 ->  9         0.01530
       4 -> 13        -0.00271
       4 -> 18         0.00055
       4 -> 23        -0.00248
       4 -> 28         0.00019
       4 -> 31        -0.00184
       4 -> 37        -0.00045
       4 -> 48        -0.00137
       4 -> 52        -0.00077
       5 -> 27        -0.00084
       5 -> 38         0.00198
       5 -> 46         0.00156
       6 ->  9         0.70598
       6 -> 13        -0.02426
       6 -> 18         0.01908
       6 -> 23        -0.01166
       6 -> 28         0.00548
       6 -> 31         0.00383
       6 -> 37        -0.00246
       6 -> 44        -0.00330
       6 -> 48         0.00476
       6 -> 52         0.00170
       7 -> 10        -0.00580
       7 -> 11         0.00825
       7 -> 14        -0.00541
       7 -> 16        -0.00633
       7 -> 17        -0.01009
       7 -> 20         0.00215
       7 -> 21        -0.00110
       7 -> 24         0.00038
       7 -> 26        -0.00057
       7 -> 29        -0.00440
       7 -> 32        -0.00105
       7 -> 34        -0.00012
       7 -> 36         0.00175
       7 -> 39         0.00012
       7 -> 41        -0.00110
       7 -> 43         0.00073
       7 -> 45         0.00331
       7 -> 47         0.00357
       7 -> 51         0.00115
       7 -> 54         0.00055
       8 -> 27         0.00125
       8 -> 38         0.00039
       8 -> 46         0.00613
       3 <-  9        -0.01045
       3 <- 13        -0.00016
       3 <- 18        -0.00319
       3 <- 23        -0.00023
       3 <- 28        -0.00099
       3 <- 31        -0.00054
       3 <- 44        -0.00025
       3 <- 48         0.00092
       3 <- 52         0.00085
       4 <-  9         0.00641
       4 <- 18         0.00229
       4 <- 23        -0.00037
       4 <- 28         0.00202
       4 <- 31        -0.00141
       4 <- 37        -0.00010
       4 <- 44         0.00017
       4 <- 48        -0.00118
       4 <- 52        -0.00043
       5 <- 27        -0.00121
       5 <- 38         0.00155
       5 <- 46         0.00139
       6 <-  9        -0.02275
       6 <- 13         0.00196
       6 <- 18        -0.00302
       6 <- 23        -0.00013
       6 <- 28        -0.00297
       6 <- 31         0.00199
       6 <- 37        -0.00227
       6 <- 44        -0.00197
       6 <- 48         0.00423
       6 <- 52         0.00062
       7 <- 10         0.00453
       7 <- 11        -0.00736
       7 <- 14         0.00520
       7 <- 16         0.01671
       7 <- 17        -0.00044
       7 <- 20         0.00618
       7 <- 21        -0.00557
       7 <- 24         0.00510
       7 <- 26         0.00235
       7 <- 29         0.00064
       7 <- 32        -0.00081
       7 <- 34        -0.00094
       7 <- 36         0.00278
       7 <- 39         0.00038
       7 <- 41        -0.00068
       7 <- 43         0.00064
       7 <- 45         0.00310
       7 <- 47         0.00311
       7 <- 51         0.00089
       7 <- 54         0.00109
       8 <- 27         0.00153
       8 <- 38         0.00053
       8 <- 46         0.00558

 Excited State   4:      Singlet-B2     6.8885 eV  179.99 nm  f=0.0139  <S**2>=0.000
       3 -> 12         0.00188
       3 -> 15        -0.00012
       3 -> 19         0.00223
       3 -> 22        -0.00031
       3 -> 25         0.00079
       3 -> 30         0.00094
       3 -> 33         0.00036
       3 -> 35        -0.00109
       3 -> 40        -0.00073
       3 -> 42        -0.00011
       3 -> 49         0.00083
       3 -> 50        -0.00013
       3 -> 53        -0.00017
       4 -> 12        -0.00133
       4 -> 15         0.00252
       4 -> 19         0.00129
       4 -> 22        -0.00331
       4 -> 25         0.00287
       4 -> 30        -0.00019
       4 -> 33         0.00012
       4 -> 40         0.00043
       4 -> 42        -0.00011
       4 -> 49        -0.00014
       5 -> 10        -0.00705
       5 -> 11         0.00064
       5 -> 14         0.01076
       5 -> 16         0.00521
       5 -> 17        -0.00162
       5 -> 20         0.00033
       5 -> 21        -0.00579
       5 -> 24        -0.00149
       5 -> 26         0.00188
       5 -> 29         0.00124
       5 -> 32        -0.00061
       5 -> 34         0.00109
       5 -> 36         0.00042
       5 -> 39         0.00019
       5 -> 41        -0.00072
       5 -> 43        -0.00024
       5 -> 45         0.00016
       5 -> 47         0.00029
       5 -> 51        -0.00019
       5 -> 54         0.00015
       6 -> 12        -0.00273
       6 -> 15         0.00098
       6 -> 19        -0.00060
       6 -> 22        -0.00129
       6 -> 25         0.00070
       6 -> 33        -0.00043
       6 -> 35         0.00141
       6 -> 40         0.00072
       6 -> 49        -0.00020
       6 -> 53         0.00011
       7 -> 27         0.00012
       7 -> 38        -0.00091
       7 -> 46        -0.00111
       8 -> 10         0.70368
       8 -> 11        -0.02994
       8 -> 14         0.04551
       8 -> 16         0.03859
       8 -> 17        -0.00092
       8 -> 20         0.01312
       8 -> 21         0.00024
       8 -> 24         0.00147
       8 -> 26         0.00428
       8 -> 29         0.00356
       8 -> 32         0.00100
       8 -> 34         0.00016
       8 -> 36         0.00018
       8 -> 39         0.00030
       8 -> 41        -0.00044
       8 -> 43         0.00065
       8 -> 45         0.00106
       8 -> 47         0.00077
       8 -> 51        -0.00081
       8 -> 54         0.00050
       3 <- 12         0.00046
       3 <- 15         0.00024
       3 <- 19         0.00096
       3 <- 22        -0.00068
       3 <- 25         0.00036
       3 <- 30         0.00029
       3 <- 33         0.00031
       3 <- 35        -0.00092
       3 <- 40        -0.00069
       3 <- 49         0.00088
       3 <- 50        -0.00010
       3 <- 53        -0.00031
       4 <- 12         0.00071
       4 <- 15         0.00221
       4 <- 19         0.00125
       4 <- 22        -0.00232
       4 <- 25         0.00184
       4 <- 30        -0.00017
       4 <- 33         0.00023
       4 <- 35        -0.00021
       4 <- 40         0.00010
       4 <- 42        -0.00021
       4 <- 49        -0.00011
       4 <- 50        -0.00011
       5 <- 10         0.00202
       5 <- 11         0.00052
       5 <- 14         0.00433
       5 <- 16        -0.00090
       5 <- 17        -0.00029
       5 <- 20         0.00014
       5 <- 21        -0.00144
       5 <- 24        -0.00257
       5 <- 26         0.00112
       5 <- 29         0.00025
       5 <- 32        -0.00079
       5 <- 34         0.00069
       5 <- 36         0.00015
       5 <- 41        -0.00059
       5 <- 43        -0.00025
       5 <- 45         0.00024
       6 <- 12        -0.00027
       6 <- 15        -0.00166
       6 <- 19         0.00104
       6 <- 22         0.00086
       6 <- 25         0.00024
       6 <- 30         0.00148
       6 <- 33        -0.00052
       6 <- 35         0.00136
       6 <- 40         0.00066
       6 <- 49        -0.00025
       6 <- 50        -0.00013
       6 <- 53         0.00037
       7 <- 27         0.00018
       7 <- 38        -0.00069
       7 <- 46        -0.00087
       8 <- 10        -0.00231
       8 <- 11         0.00327
       8 <- 14        -0.00474
       8 <- 16        -0.00356
       8 <- 17        -0.00030
       8 <- 21         0.00163
       8 <- 24         0.00050
       8 <- 26        -0.00132
       8 <- 29         0.00010
       8 <- 34        -0.00025
       8 <- 36        -0.00040
       8 <- 39        -0.00034
       8 <- 41        -0.00029
       8 <- 43         0.00022
       8 <- 45         0.00114
       8 <- 47         0.00026
       8 <- 51        -0.00039
       8 <- 54         0.00013

 Excited State   5:      Singlet-B2     7.3815 eV  167.97 nm  f=0.0212  <S**2>=0.000
       3 -> 12         0.00053
       3 -> 15         0.00191
       3 -> 19        -0.00219
       3 -> 22        -0.00050
       3 -> 25         0.00059
       3 -> 30        -0.00358
       3 -> 33        -0.00017
       3 -> 35         0.00124
       3 -> 40         0.00099
       3 -> 49        -0.00125
       3 -> 50         0.00015
       4 -> 12        -0.00171
       4 -> 15        -0.00090
       4 -> 22         0.00116
       4 -> 25        -0.00153
       4 -> 30         0.00187
       4 -> 33        -0.00047
       4 -> 35         0.00066
       4 -> 40        -0.00013
       4 -> 50        -0.00012
       5 -> 10        -0.00338
       5 -> 11         0.00175
       5 -> 14        -0.01005
       5 -> 16         0.00334
       5 -> 17         0.00373
       5 -> 20         0.00343
       5 -> 21         0.00386
       5 -> 24         0.00054
       5 -> 26        -0.00181
       5 -> 29        -0.00141
       5 -> 32        -0.00110
       5 -> 34        -0.00044
       5 -> 36        -0.00078
       5 -> 39        -0.00085
       5 -> 41         0.00043
       5 -> 43        -0.00034
       5 -> 45        -0.00084
       5 -> 47        -0.00052
       5 -> 51         0.00052
       6 -> 12         0.00155
       6 -> 15         0.00017
       6 -> 19         0.00113
       6 -> 22        -0.00093
       6 -> 25        -0.00012
       6 -> 30        -0.00131
       6 -> 33         0.00040
       6 -> 35        -0.00142
       6 -> 40        -0.00144
       6 -> 42        -0.00021
       6 -> 49         0.00177
       6 -> 50        -0.00015
       6 -> 53        -0.00019
       7 -> 27        -0.00074
       7 -> 38         0.00051
       7 -> 46         0.00297
       8 -> 10         0.03527
       8 -> 11         0.70198
       8 -> 14        -0.02607
       8 -> 16        -0.07111
       8 -> 17        -0.00267
       8 -> 20         0.01256
       8 -> 21         0.00232
       8 -> 24        -0.00406
       8 -> 26        -0.00089
       8 -> 29        -0.00521
       8 -> 32        -0.00049
       8 -> 34        -0.00065
       8 -> 36        -0.00099
       8 -> 39         0.00015
       8 -> 41         0.00060
       8 -> 43        -0.00030
       8 -> 45        -0.00348

 The electronic state is 1-A1.
 Alpha  occ. eigenvalues --  -19.16622 -10.31371  -0.96649  -0.68126  -0.48872
 Alpha  occ. eigenvalues --   -0.43274  -0.35221  -0.29001
 Alpha virt. eigenvalues --   -0.12226  -0.00117   0.02765   0.04133   0.06179
 Alpha virt. eigenvalues --    0.11387   0.15411   0.17071   0.18953   0.21651
 Alpha virt. eigenvalues --    0.23836   0.30061   0.40180   0.42591   0.50977

 Mulliken charges:
               1
     1  C   -0.034090
     2  H    0.163139
     3  H    0.163139
     4  O   -0.292189
 Sum of Mulliken charges =  -0.00000

 Dipole moment (field-independent basis, Debye):
    X=             -0.0000    Y=              0.0000    Z=             -3.4154  Tot=              3.4154
 Quadrupole moment (field-independent basis, Debye-Ang):
   XX=            -12.4457   YY=            -11.7968   ZZ=            -11.7236
   XY=              0.0000   XZ=              0.0000   YZ=             -0.0000

 Normal termination of Gaussian 16 at Fri Sep 17 10:52:54 2021.
