 Gaussian 16, Revision C.01,
 Gaussian 16:  ES64L-G16RevC.01  3-Jul-2019

 ----------------------------------------
 #P wB97XD/6-311+G* NoSymm #P Field=X+136
 ----------------------------------------

 -------
 TitleMe
 -------
 Symbolic Z-matrix:
 Charge =  1 Multiplicity = 1

                          Input orientation:
 ---------------------------------------------------------------------
 Center     Atomic      Atomic             Coordinates (Angstroms)
 Number     Number       Type             X           Y           Z
 ---------------------------------------------------------------------
      1          6           0        0.029500    1.339700    0.068200
      2          6           0        1.434800    1.286700    0.006400
      3          6           0        2.111800    0.051100   -0.005400
      4          6           0        1.445100   -1.137200    0.031200
      5          6           0       -0.687900    0.168200    0.110000
      6          1           0       -0.471300    2.298400    0.078100
      7          1           0        2.027300    2.196500   -0.032200
      8          1           0        1.989700   -2.076400    0.023200
      9          1           0       -1.771600    0.180400    0.158200
     10          7           0        3.586400    0.051000   -0.067500
     11          8           0        4.147100   -1.059700   -0.088100
     12          8           0        4.145000    1.163900   -0.090100
     13          6           0       -0.023600   -1.145800    0.083500
     14          1           0       -0.436700   -1.872500    0.788900
     15         35           0       -0.535900   -1.869700   -1.740800
 ---------------------------------------------------------------------

 SCF Done:  E(RwB97XD) =  -3010.55071533     A.U. after   19 cycles

 Alpha  occ. eigenvalues -- -483.32108 -62.87111 -56.66822 -56.66227 -56.66220
 Alpha  occ. eigenvalues --  -19.52674 -19.52593 -14.91964 -10.60354 -10.59625
 Alpha  occ. eigenvalues --  -10.59550 -10.59288 -10.58013 -10.54142  -9.02900
 Alpha  occ. eigenvalues --   -6.85627  -6.83682  -6.83654  -2.95519  -2.95007
 Alpha  occ. eigenvalues --   -2.94984  -2.93428  -2.93428  -1.56402  -1.39457
 Alpha  occ. eigenvalues --   -1.24870  -1.16529  -1.13583  -1.05984  -1.04371
 Alpha  occ. eigenvalues --   -0.97266  -0.93581  -0.89886  -0.86352  -0.84879
 Alpha  occ. eigenvalues --   -0.84046  -0.80963  -0.79794  -0.77710  -0.74080
 Alpha  occ. eigenvalues --   -0.70688  -0.69213  -0.65625  -0.63926  -0.63565
 Alpha  occ. eigenvalues --   -0.62632  -0.61537  -0.56897  -0.56190
 Alpha virt. eigenvalues --   -0.31168  -0.26695  -0.17283  -0.15724  -0.12178
 Alpha virt. eigenvalues --   -0.09425  -0.08879  -0.07479  -0.07343  -0.05503
 Alpha virt. eigenvalues --   -0.04010  -0.03849  -0.03362  -0.01870  -0.01593

 Mulliken charges:
               1
     1  C   -0.609863
     2  C    0.559559
     3  C   -0.745862
     4  C    0.211831
     5  C    0.050167
     6  H    0.362120
     7  H    0.341323
     8  H    0.354002
     9  H    0.409062
    10  N   -0.103643
    11  O   -0.029908
    12  O   -0.033099
    13  C   -0.444397
    14  H    0.426616
    15  Br   0.252093
 Sum of Mulliken charges =   1.00000

 Dipole moment (field-independent basis, Debye):
    X=             -4.9426    Y=             -1.0629    Z=             -0.3634  Tot=              5.0687
 Quadrupole moment (field-independent basis, Debye-Ang):
   XX=            -81.1649   YY=            -51.5764   ZZ=            -61.6462
   XY=              1.9188   XZ=              2.1637   YZ=              2.6272

 Normal termination of Gaussian 16 at Wed May  1 14:46:50 2024.
