 Gaussian 16, Revision C.01,
 Gaussian 16:  ES64L-G16RevC.01  3-Jul-2019

 ---------------------------------------
 #P wB97XD/6-311+G* NoSymm #P Field=X-68
 ---------------------------------------

 -------
 TitleMe
 -------
 Symbolic Z-matrix:
 Charge =  1 Multiplicity = 1

                          Input orientation:
 ---------------------------------------------------------------------
 Center     Atomic      Atomic             Coordinates (Angstroms)
 Number     Number       Type             X           Y           Z
 ---------------------------------------------------------------------
      1          6           0        0.029500    1.339700    0.068200
      2          6           0        1.434800    1.286700    0.006400
      3          6           0        2.111800    0.051100   -0.005400
      4          6           0        1.445100   -1.137200    0.031200
      5          6           0       -0.687900    0.168200    0.110000
      6          1           0       -0.471300    2.298400    0.078100
      7          1           0        2.027300    2.196500   -0.032200
      8          1           0        1.989700   -2.076400    0.023200
      9          1           0       -1.771600    0.180400    0.158200
     10          7           0        3.586400    0.051000   -0.067500
     11          8           0        4.147100   -1.059700   -0.088100
     12          8           0        4.145000    1.163900   -0.090100
     13          6           0       -0.023600   -1.145800    0.083500
     14          1           0       -0.436700   -1.872500    0.788900
     15         35           0       -0.535900   -1.869700   -1.740800
 ---------------------------------------------------------------------

 SCF Done:  E(RwB97XD) =  -3010.53583931     A.U. after   21 cycles

 Alpha  occ. eigenvalues -- -483.30678 -62.85714 -56.65392 -56.64840 -56.64838
 Alpha  occ. eigenvalues --  -19.42196 -19.42125 -14.81776 -10.57574 -10.56136
 Alpha  occ. eigenvalues --  -10.55838 -10.55432 -10.55291 -10.52128  -9.01529
 Alpha  occ. eigenvalues --   -6.84166  -6.82355  -6.82343  -2.94080  -2.93598
 Alpha  occ. eigenvalues --   -2.93586  -2.92138  -2.92138  -1.45968  -1.28901
 Alpha  occ. eigenvalues --   -1.21358  -1.12709  -1.10494  -1.03551  -0.98969
 Alpha  occ. eigenvalues --   -0.94255  -0.89420  -0.83427  -0.79158  -0.78121
 Alpha  occ. eigenvalues --   -0.77388  -0.76334  -0.74739  -0.72531  -0.71060
 Alpha  occ. eigenvalues --   -0.68287  -0.66311  -0.62447  -0.59115  -0.56065
 Alpha  occ. eigenvalues --   -0.54540  -0.53247  -0.52164  -0.51794
 Alpha virt. eigenvalues --   -0.28560  -0.18779  -0.14826  -0.11469  -0.09530
 Alpha virt. eigenvalues --   -0.06691  -0.05520  -0.05130  -0.03623  -0.02213
 Alpha virt. eigenvalues --   -0.01904  -0.01195  -0.01113  -0.00561   0.00313

 Mulliken charges:
               1
     1  C   -0.558068
     2  C    0.487613
     3  C   -0.691920
     4  C    0.311897
     5  C   -0.014213
     6  H    0.319671
     7  H    0.378290
     8  H    0.383688
     9  H    0.319520
    10  N   -0.110532
    11  O    0.061951
    12  O    0.059026
    13  C   -0.478705
    14  H    0.392853
    15  Br   0.138929
 Sum of Mulliken charges =   1.00000

 Dipole moment (field-independent basis, Debye):
    X=              1.2012    Y=             -0.3600    Z=              0.1436  Tot=              1.2622
 Quadrupole moment (field-independent basis, Debye-Ang):
   XX=            -66.5665   YY=            -52.2175   ZZ=            -63.1264
   XY=              0.9619   XZ=              0.5886   YZ=              1.1971

 Normal termination of Gaussian 16 at Wed May  1 14:48:40 2024.
