 Gaussian 16, Revision A.03,
 Gaussian 16:  ES64L-G16RevA.03 25-Dec-2016

 --------------------------------------------------------------------
 #p B3LYP/6-311+G** #p TD=(singlets,nstates=30)IOp(6/8=3) IOp(9/40=4)
 --------------------------------------------------------------------

 -------------------------------
 Scan Step 126, Bond Length 1.13
 -------------------------------
 Symbolic Z-matrix:
 Charge =  0 Multiplicity = 1

                         Standard orientation:
 ---------------------------------------------------------------------
 Center     Atomic      Atomic             Coordinates (Angstroms)
 Number     Number       Type             X           Y           Z
 ---------------------------------------------------------------------
      1          6           0        0.000000    0.000000   -0.491081
      2          1           0        0.000000    0.937260   -1.082431
      3          1           0       -0.000000   -0.937260   -1.082431
      4          8           0        0.000000   -0.000000    0.638919
 ---------------------------------------------------------------------

 SCF Done:  E(RB3LYP) =  -114.532335352     A.U. after    9 cycles

 Excitation energies and oscillator strengths:

 Excited State   1:      Singlet-A2     4.3850 eV  282.74 nm  f=0.0000  <S**2>=0.000
       3 -> 27         0.00273
       3 -> 38         0.00231
       3 -> 45         0.00220
       4 -> 27         0.00231
       4 -> 38        -0.00065
       4 -> 45        -0.00118
       5 ->  9         0.02102
       5 -> 13        -0.00523
       5 -> 17         0.00600
       5 -> 23        -0.00120
       5 -> 29         0.00416
       5 -> 31         0.00278
       5 -> 36         0.00380
       5 -> 44         0.00067
       5 -> 47         0.00014
       5 -> 52         0.00083
       6 -> 27         0.00016
       6 -> 38        -0.00075
       6 -> 45         0.00174
       7 -> 12        -0.00062
       7 -> 16         0.00231
       7 -> 18        -0.00236
       7 -> 22         0.00112
       7 -> 24         0.00136
       7 -> 30        -0.00082
       7 -> 33         0.00040
       7 -> 35        -0.00039
       7 -> 40        -0.00034
       7 -> 48         0.00049
       7 -> 50         0.00026
       7 -> 53         0.00044
       8 ->  9         0.70407
       8 -> 13        -0.05920
       8 -> 17         0.02397
       8 -> 23        -0.01145
       8 -> 29         0.00802
       8 -> 31         0.00320
       8 -> 36        -0.00069
       8 -> 44        -0.00019
       8 -> 47        -0.00022
       8 -> 52         0.00153
       3 <- 27         0.00184
       3 <- 38         0.00194
       3 <- 45         0.00229
       4 <- 27         0.00313
       4 <- 45        -0.00103
       5 <-  9        -0.00019
       5 <- 13        -0.00088
       5 <- 17        -0.00086
       5 <- 23         0.00055
       5 <- 29        -0.00056
       5 <- 31        -0.00103
       5 <- 36         0.00175
       5 <- 44         0.00032
       5 <- 47         0.00017
       5 <- 52         0.00022
       6 <- 27         0.00066
       6 <- 38        -0.00069
       6 <- 45         0.00135
       7 <- 12        -0.00091
       7 <- 16        -0.00626
       7 <- 18        -0.00055
       7 <- 22         0.00699
       7 <- 24        -0.00046
       7 <- 30         0.00285
       7 <- 33        -0.00134
       7 <- 35        -0.00253
       7 <- 40        -0.00102
       7 <- 42         0.00021
       7 <- 48         0.00032
       7 <- 50         0.00014
       7 <- 53         0.00118
       8 <-  9        -0.02033
       8 <- 13         0.00410
       8 <- 17        -0.00400
       8 <- 23         0.00078
       8 <- 29        -0.00070
       8 <- 31         0.00127
       8 <- 36        -0.00176
       8 <- 52         0.00045
 This state for optimization and/or second-order correction.
 Total Energy, E(TD-HF/TD-DFT) =  -114.371188486
 Copying the excited state density for this state as the 1-particle RhoCI density.

 Excited State   2:      Singlet-B2     6.7289 eV  184.26 nm  f=0.0426  <S**2>=0.000
       3 -> 12         0.00133
       3 -> 16         0.00068
       3 -> 18         0.00112
       3 -> 22        -0.00027
       3 -> 24         0.00131
       3 -> 30        -0.00011
       3 -> 33         0.00013
       3 -> 35         0.00031
       4 -> 12        -0.00388
       4 -> 16         0.00146
       4 -> 18         0.00227
       4 -> 22        -0.00336
       4 -> 24         0.00364
       4 -> 30         0.00015
       4 -> 33        -0.00068
       4 -> 35        -0.00074
       4 -> 40        -0.00049
       5 -> 10        -0.00455
       5 -> 11        -0.00930
       5 -> 14         0.00692
       5 -> 15        -0.00109
       5 -> 19         0.00206
       5 -> 20         0.00094
       5 -> 21         0.00522
       5 -> 26         0.00262
       5 -> 28         0.00173
       5 -> 32         0.00039
       5 -> 34        -0.00102
       5 -> 37        -0.00029
       5 -> 39        -0.00031
       5 -> 41        -0.00019
       5 -> 43        -0.00056
       5 -> 46        -0.00046
       5 -> 49         0.00010
       6 -> 12         0.00077
       6 -> 16         0.00136
       6 -> 18         0.00299
       6 -> 22        -0.00269
       6 -> 24         0.00147
       6 -> 30        -0.00042
       6 -> 33        -0.00017
       6 -> 35        -0.00018
       6 -> 40         0.00021
       6 -> 42        -0.00024
       6 -> 48         0.00042
       6 -> 50        -0.00044
       7 -> 27         0.00034
       7 -> 38        -0.00041
       7 -> 45         0.00060
       8 -> 10         0.70409
       8 -> 11        -0.06007
       8 -> 14         0.00686
       8 -> 15        -0.00817
       8 -> 19         0.01554
       8 -> 20         0.01188
       8 -> 21        -0.00409
       8 -> 25         0.00055
       8 -> 26         0.00182
       8 -> 28         0.00061
       8 -> 32        -0.00049
       8 -> 34         0.00199
       8 -> 37         0.00047
       8 -> 39         0.00046
       8 -> 41        -0.00016
       8 -> 43         0.00067
       8 -> 46        -0.00078
       8 -> 54         0.00017
       3 <- 12         0.00035
       3 <- 16         0.00053
       3 <- 18         0.00045
       3 <- 22        -0.00038
       3 <- 24         0.00082
       3 <- 30        -0.00011
       3 <- 33         0.00011
       3 <- 35         0.00029
       4 <- 12         0.00065
       4 <- 16         0.00174
       4 <- 18         0.00227
       4 <- 22        -0.00205
       4 <- 24         0.00254
       4 <- 30         0.00011
       4 <- 33        -0.00044
       4 <- 35        -0.00047
       4 <- 40        -0.00018
       4 <- 42        -0.00021
       4 <- 48        -0.00011
       5 <- 10         0.00245
       5 <- 11        -0.00023
       5 <- 14         0.00496
       5 <- 15        -0.00098
       5 <- 19         0.00047
       5 <- 20         0.00056
       5 <- 21         0.00230
       5 <- 25         0.00172
       5 <- 26         0.00158
       5 <- 28         0.00039
       5 <- 32         0.00015
       5 <- 34        -0.00101
       5 <- 37        -0.00034
       5 <- 39        -0.00017
       5 <- 43        -0.00041
       5 <- 46        -0.00040
       5 <- 49         0.00010
       5 <- 51        -0.00010
       6 <- 12         0.00025
       6 <- 16        -0.00010
       6 <- 18         0.00147
       6 <- 22        -0.00089
       6 <- 24         0.00053
       6 <- 30         0.00033
       6 <- 33        -0.00023
       6 <- 35        -0.00034
       6 <- 40         0.00020
       6 <- 42        -0.00023
       6 <- 48         0.00035
       6 <- 50        -0.00045
       6 <- 53         0.00012
       7 <- 27         0.00027
       7 <- 38        -0.00030
       7 <- 45         0.00052
       8 <- 10        -0.00228
       8 <- 11        -0.00062
       8 <- 14        -0.00702
       8 <- 15        -0.00012
       8 <- 19        -0.00036
       8 <- 20        -0.00043
       8 <- 21        -0.00256
       8 <- 25        -0.00264
       8 <- 26        -0.00031
       8 <- 28        -0.00068
       8 <- 32        -0.00095
       8 <- 34         0.00098
       8 <- 37         0.00045
       8 <- 39         0.00038
       8 <- 43         0.00049
       8 <- 46        -0.00052
       8 <- 51        -0.00011

 Excited State   3:      Singlet-B2     7.5240 eV  164.78 nm  f=0.0228  <S**2>=0.000
       3 -> 12        -0.00025
       3 -> 16        -0.00069
       3 -> 18         0.00067
       3 -> 22         0.00032
       3 -> 24         0.00025
       3 -> 30         0.00177
       3 -> 33         0.00013
       3 -> 35         0.00039
       3 -> 40         0.00036
       3 -> 42        -0.00011
       3 -> 48         0.00033
       3 -> 50        -0.00026
       4 -> 12         0.00299
       4 -> 16        -0.00045
       4 -> 18         0.00294
       4 -> 22        -0.00152
       4 -> 24         0.00318
       4 -> 30        -0.00112
       4 -> 33         0.00052
       4 -> 35         0.00047
       4 -> 42        -0.00017
       4 -> 48         0.00022
       4 -> 50        -0.00012
       5 -> 10        -0.00765
       5 -> 11         0.00017
       5 -> 14         0.00702
       5 -> 15        -0.00696
       5 -> 19        -0.00339
       5 -> 20        -0.00366
       5 -> 21         0.00106
       5 -> 25         0.00138
       5 -> 28         0.00159
       5 -> 32        -0.00018
       5 -> 34        -0.00147
       5 -> 37        -0.00015
       5 -> 39         0.00042
       5 -> 41        -0.00081
       5 -> 46         0.00084
       5 -> 51         0.00043
       6 -> 12        -0.00322
       6 -> 16        -0.00190
       6 -> 18        -0.00120
       6 -> 22         0.00142
       6 -> 24         0.00011
       6 -> 30         0.00075
       6 -> 33        -0.00049
       6 -> 35        -0.00148
       6 -> 40        -0.00096
       6 -> 42         0.00012
       6 -> 48        -0.00092
       6 -> 50         0.00061
       6 -> 53         0.00011
       7 -> 27        -0.00027
       7 -> 38        -0.00106
       7 -> 45        -0.00157
       8 -> 10         0.06064
       8 -> 11         0.70359
       8 -> 14        -0.00959
       8 -> 15         0.01401
       8 -> 19        -0.02642
       8 -> 20         0.01035
       8 -> 21        -0.00237
       8 -> 25         0.00060
       8 -> 26        -0.00164
       8 -> 32        -0.00036
       8 -> 39        -0.00011
       8 -> 41        -0.00133
       8 -> 43         0.00021
       8 -> 46         0.00153
       8 -> 49        -0.00011
       8 -> 51         0.00088
       8 -> 54        -0.00015
       3 <- 12         0.00033
       3 <- 16        -0.00024
       3 <- 18         0.00082
       3 <- 24         0.00037
       3 <- 30         0.00104
       3 <- 33         0.00022
       3 <- 35         0.00044
       3 <- 40         0.00033
       3 <- 48         0.00028
       3 <- 50        -0.00017
       3 <- 53        -0.00025
       4 <- 12         0.00035
       4 <- 16         0.00062
       4 <- 18         0.00078
       4 <- 22        -0.00116
       4 <- 24         0.00131
       4 <- 30        -0.00050
       4 <- 33         0.00048
       4 <- 35         0.00011
       4 <- 42        -0.00018
       4 <- 48         0.00015
       4 <- 50        -0.00017
       5 <- 10         0.00129
       5 <- 11        -0.00098
       5 <- 14         0.00239
       5 <- 15        -0.00044
       5 <- 19         0.00088
       5 <- 20        -0.00031
       5 <- 21         0.00082
       5 <- 25         0.00123
       5 <- 26        -0.00034
       5 <- 28         0.00076
       5 <- 32         0.00098
       5 <- 34        -0.00065
       5 <- 37         0.00017
       5 <- 39         0.00015
       5 <- 41        -0.00084
       5 <- 46         0.00077
       5 <- 51         0.00035
       6 <- 12        -0.00034
       6 <- 16        -0.00044
       6 <- 22         0.00057
       6 <- 30         0.00042
       6 <- 33        -0.00031
       6 <- 35        -0.00114
       6 <- 40        -0.00071
       6 <- 48        -0.00077
       6 <- 50         0.00050
       7 <- 38        -0.00085
       7 <- 45        -0.00132
       8 <- 10        -0.00073
       8 <- 11        -0.00016
       8 <- 14        -0.00402
       8 <- 15         0.00053
       8 <- 19         0.00342
       8 <- 20        -0.00127
       8 <- 21        -0.00207
       8 <- 25         0.00022
       8 <- 26        -0.00166
       8 <- 32         0.00120
       8 <- 34         0.00089
       8 <- 39        -0.00039
       8 <- 41        -0.00115
       8 <- 43         0.00010
       8 <- 46         0.00122
       8 <- 51         0.00063

 Excited State   4:      Singlet-A1     7.6886 eV  161.26 nm  f=0.0530  <S**2>=0.000
       3 -> 10         0.00177
       3 -> 11        -0.00097
       3 -> 14         0.00070
       3 -> 15        -0.00025
       3 -> 19         0.00049
       3 -> 20         0.00146
       3 -> 21         0.00058
       3 -> 25        -0.00046
       3 -> 26         0.00105
       3 -> 28         0.00108
       3 -> 32        -0.00017
       3 -> 34        -0.00051
       3 -> 37        -0.00025
       3 -> 39         0.00010
       3 -> 41        -0.00021
       3 -> 46         0.00011
       3 -> 49         0.00024
       3 -> 51         0.00029
       3 -> 54        -0.00021
       4 -> 10         0.00510
       4 -> 11         0.00684
       4 -> 14         0.00531
       4 -> 15         0.00015
       4 -> 19         0.00037
       4 -> 20         0.00476
       4 -> 21         0.00161
       4 -> 25         0.00721
       4 -> 26         0.00129
       4 -> 28        -0.00043
       4 -> 32         0.00058
       4 -> 34        -0.00038
       4 -> 39        -0.00017
       4 -> 41         0.00014
       4 -> 43         0.00016
       4 -> 46        -0.00022
       4 -> 49        -0.00010
       4 -> 51         0.00015
       5 -> 12         0.00701
       5 -> 16         0.00125
       5 -> 18         0.01122
       5 -> 22        -0.00174
       5 -> 24         0.00526
       5 -> 33        -0.00016
       5 -> 35        -0.00080
       5 -> 50         0.00029
       5 -> 53        -0.00014
       6 -> 10         0.01289
       6 -> 11        -0.00330
       6 -> 14         0.00438
       6 -> 15         0.00133
       6 -> 19         0.00349
       6 -> 20         0.00443
       6 -> 21         0.00141
       6 -> 25         0.00300
       6 -> 26         0.00027
       6 -> 28        -0.00150
       6 -> 32         0.00059
       6 -> 34        -0.00013
       6 -> 43         0.00012
       6 -> 49        -0.00059
       6 -> 51        -0.00030
       7 ->  9         0.01479
       7 -> 13         0.00917
       7 -> 17         0.00357
       7 -> 23         0.00522
       7 -> 29        -0.00031
       7 -> 31         0.00086
       7 -> 36         0.00057
       7 -> 44         0.00066
       7 -> 47        -0.00035
       7 -> 52        -0.00011
       8 -> 12         0.70576
       8 -> 16        -0.01421
       8 -> 18         0.02972
       8 -> 22         0.00495
       8 -> 24         0.00298
       8 -> 30         0.00082
       8 -> 33         0.00154
       8 -> 35         0.00205
       8 -> 40        -0.00071
       8 -> 42         0.00034
       8 -> 48        -0.00039
       8 -> 50         0.00030
       8 -> 53        -0.00022
       3 <- 10         0.00060
       3 <- 11        -0.00011
       3 <- 14         0.00040
       3 <- 19         0.00012
       3 <- 20         0.00067
       3 <- 21         0.00045
       3 <- 26         0.00064
       3 <- 28         0.00070
       3 <- 32        -0.00022
       3 <- 34        -0.00032
       3 <- 37        -0.00020
       3 <- 41        -0.00016
       3 <- 46         0.00020
       3 <- 49         0.00019
       3 <- 51         0.00026
       3 <- 54        -0.00019
       4 <- 10         0.00458
       4 <- 11         0.00175
       4 <- 14         0.00390
       4 <- 15        -0.00036
       4 <- 19         0.00024
       4 <- 20         0.00272
       4 <- 21         0.00062
       4 <- 25         0.00398
       4 <- 26         0.00082
       4 <- 32         0.00057
       4 <- 34        -0.00077
       4 <- 39        -0.00023
       4 <- 46        -0.00020
       4 <- 51         0.00014
       5 <- 12         0.00276
       5 <- 16         0.00216
       5 <- 18         0.00398
       5 <- 22        -0.00054
       5 <- 24         0.00285
       5 <- 30        -0.00011
       5 <- 33        -0.00034
       5 <- 35        -0.00073
       5 <- 50         0.00019
       5 <- 53        -0.00013
       6 <- 10         0.00338
       6 <- 11        -0.00028
       6 <- 14         0.00176
       6 <- 15         0.00041
       6 <- 19         0.00112
       6 <- 20         0.00215
       6 <- 21         0.00049
       6 <- 25         0.00153
       6 <- 26         0.00040
       6 <- 28        -0.00093
       6 <- 32         0.00047
       6 <- 34        -0.00021
       6 <- 41         0.00014
       6 <- 46        -0.00010
       6 <- 49        -0.00047
       6 <- 51        -0.00033
       7 <-  9         0.00130
       7 <- 13         0.00230
       7 <- 17         0.00104
       7 <- 23         0.00269
       7 <- 29        -0.00029
       7 <- 31         0.00061
       7 <- 36         0.00045
       7 <- 44         0.00055
       7 <- 47        -0.00030
       8 <- 12        -0.00131
       8 <- 16        -0.00683
       8 <- 18        -0.00234
       8 <- 22         0.00081
       8 <- 24        -0.00201
       8 <- 30        -0.00023
       8 <- 33         0.00075
       8 <- 35         0.00102
       8 <- 40        -0.00066
       8 <- 42         0.00029
       8 <- 48        -0.00043
       8 <- 50         0.00023
       8 <- 53        -0.00022

 Excited State   5:      Singlet-A2     8.1900 eV  151.39 nm  f=0.0000  <S**2>=0.000
       3 -> 27        -0.00057
       3 -> 38        -0.00051
       3 -> 45        -0.00030
       4 -> 27         0.00018
       4 -> 38         0.00052
       5 ->  9        -0.00825
       5 -> 13        -0.00273
       5 -> 17         0.00627
       5 -> 23        -0.00165
       5 -> 31        -0.00164
       5 -> 36        -0.00111
       5 -> 44        -0.00022
       6 -> 27         0.00023
       6 -> 38         0.00029
       6 -> 45        -0.00031
       7 -> 12        -0.00048
       7 -> 16        -0.00182
       7 -> 18         0.00193
       7 -> 22        -0.00069
       7 -> 24        -0.00012
       7 -> 35         0.00015
       7 -> 40         0.00012
       7 -> 48        -0.00011
       8 ->  9         0.05907
       8 -> 13         0.70413
       8 -> 17         0.01646
       8 -> 23         0.01795
       8 -> 31        -0.00142
       8 -> 36        -0.00022
       8 -> 47         0.00018
       8 -> 52        -0.00015
       3 <- 27        -0.00020
       3 <- 38        -0.00035
       3 <- 45        -0.00038
       4 <- 27        -0.00018
       5 <-  9        -0.00027
       5 <- 13        -0.00031
       5 <- 17         0.00058
       5 <- 36        -0.00024
       6 <- 38         0.00020
       7 <- 12        -0.00065
       7 <- 16        -0.00088
       7 <- 18         0.00069
       7 <- 22        -0.00112
       7 <- 24        -0.00039
       7 <- 30         0.00020
       7 <- 33         0.00042
       7 <- 35         0.00068
       7 <- 40         0.00039
       7 <- 42        -0.00013
       7 <- 53        -0.00011
       8 <-  9         0.00244
       8 <- 13         0.00141
       8 <- 17         0.00023
       8 <- 23        -0.00021
       8 <- 31        -0.00011
       8 <- 36         0.00019

 Excited State   6:      Singlet-B1     9.9805 eV  124.23 nm  f=0.0005  <S**2>=0.000
       3 ->  9        -0.03090
       3 -> 13         0.00776
       3 -> 17        -0.00773
       3 -> 23         0.00528
       3 -> 29        -0.00336
       3 -> 31        -0.00039
       3 -> 36        -0.00014
       3 -> 44         0.00079
       3 -> 47        -0.00021
       3 -> 52         0.00109

 The electronic state is 1-A1.
 Alpha  occ. eigenvalues --  -19.14642 -10.26694  -1.11784  -0.63410  -0.52025
 Alpha  occ. eigenvalues --   -0.47547  -0.43930  -0.27589
 Alpha virt. eigenvalues --   -0.04472   0.00990   0.04074   0.04307   0.06673
 Alpha virt. eigenvalues --    0.13262   0.18389   0.18649   0.22013   0.22931
 Alpha virt. eigenvalues --    0.27198   0.34283   0.47368   0.47977   0.51032

 Mulliken charges:
               1
     1  C    0.041292
     2  H    0.090920
     3  H    0.090920
     4  O   -0.223132
 Sum of Mulliken charges =   0.00000

 Dipole moment (field-independent basis, Debye):
    X=             -0.0000    Y=              0.0000    Z=             -2.1148  Tot=              2.1148
 Quadrupole moment (field-independent basis, Debye-Ang):
   XX=            -11.5279   YY=            -11.7882   ZZ=            -12.6287
   XY=              0.0000   XZ=              0.0000   YZ=              0.0000

 Normal termination of Gaussian 16 at Fri Sep 17 10:52:39 2021.
