 Gaussian 16, Revision A.03,
 Gaussian 16:  ES64L-G16RevA.03 25-Dec-2016

 --------------------------------------------------------------------
 #p B3LYP/6-311+G** #p TD=(singlets,nstates=30)IOp(6/8=3) IOp(9/40=4)
 --------------------------------------------------------------------

 -------------------------------
 Scan Step 202, Bond Length 1.51
 -------------------------------
 Symbolic Z-matrix:
 Charge =  0 Multiplicity = 1

                         Standard orientation:
 ---------------------------------------------------------------------
 Center     Atomic      Atomic             Coordinates (Angstroms)
 Number     Number       Type             X           Y           Z
 ---------------------------------------------------------------------
      1          6           0        0.000000   -0.000000   -0.681081
      2          1           0        0.000000    0.937260   -1.272431
      3          1           0       -0.000000   -0.937260   -1.272431
      4          8           0        0.000000    0.000000    0.828919
 ---------------------------------------------------------------------

 SCF Done:  E(RB3LYP) =  -114.461602414     A.U. after   10 cycles

 Excitation energies and oscillator strengths:

 Excited State   1:      Singlet-A2     2.3455 eV  528.60 nm  f=0.0000  <S**2>=0.000
       3 -> 27         0.00144
       3 -> 38         0.00111
       3 -> 46         0.00319
       4 -> 27         0.00089
       4 -> 38        -0.00020
       4 -> 46        -0.00138
       5 ->  9         0.01062
       5 -> 13         0.00060
       5 -> 18         0.00348
       5 -> 23         0.00155
       5 -> 28         0.00310
       5 -> 31        -0.00037
       5 -> 37         0.00176
       5 -> 44         0.00039
       5 -> 52         0.00043
       6 -> 27        -0.00060
       6 -> 38        -0.00083
       6 -> 46         0.00149
       7 -> 12        -0.00079
       7 -> 16         0.00442
       7 -> 19        -0.00379
       7 -> 22        -0.00054
       7 -> 25         0.00110
       7 -> 30        -0.00139
       7 -> 33         0.00040
       7 -> 49         0.00013
       7 -> 50         0.00020
       7 -> 53         0.00046
       8 ->  9         0.70785
       8 -> 13        -0.01709
       8 -> 18         0.02189
       8 -> 23        -0.00480
       8 -> 28         0.01105
       8 -> 31         0.00054
       8 -> 37         0.00065
       8 -> 48        -0.00030
       8 -> 52         0.00193
       3 <- 27         0.00074
       3 <- 38         0.00082
       3 <- 46         0.00325
       4 <- 27         0.00149
       4 <- 38         0.00023
       4 <- 46        -0.00112
       5 <-  9        -0.00043
       5 <- 13        -0.00060
       5 <- 18        -0.00080
       5 <- 23         0.00033
       5 <- 28        -0.00056
       5 <- 31         0.00043
       5 <- 37         0.00096
       5 <- 44         0.00013
       5 <- 52         0.00011
       6 <- 38        -0.00069
       6 <- 46         0.00116
       7 <- 12         0.00022
       7 <- 16        -0.00962
       7 <- 19         0.00297
       7 <- 22         0.00721
       7 <- 25         0.00045
       7 <- 30         0.00500
       7 <- 33        -0.00068
       7 <- 35         0.00119
       7 <- 40         0.00063
       7 <- 42         0.00011
       7 <- 49        -0.00031
       7 <- 50         0.00013
       7 <- 53         0.00145
       8 <-  9        -0.04382
       8 <- 13         0.00091
       8 <- 18        -0.00608
       8 <- 23         0.00037
       8 <- 28        -0.00212
       8 <- 31        -0.00056
       8 <- 37        -0.00062
       8 <- 52         0.00052
 This state for optimization and/or second-order correction.
 Total Energy, E(TD-HF/TD-DFT) =  -114.375406845
 Copying the excited state density for this state as the 1-particle RhoCI density.

 Excited State   2:      Singlet-A1     5.9285 eV  209.13 nm  f=0.1004  <S**2>=0.000
       3 -> 10         0.01004
       3 -> 11        -0.01673
       3 -> 14        -0.01242
       3 -> 15         0.01586
       3 -> 17        -0.00383
       3 -> 20        -0.00318
       3 -> 21        -0.00255
       3 -> 24         0.00374
       3 -> 26         0.00553
       3 -> 29        -0.00063
       3 -> 32         0.00280
       3 -> 34         0.00339
       3 -> 39         0.00104
       3 -> 43         0.00044
       3 -> 45         0.00085
       3 -> 47         0.00200
       3 -> 51         0.00073
       3 -> 54         0.00027
       4 -> 10         0.01842
       4 -> 11         0.01051
       4 -> 14        -0.01072
       4 -> 15        -0.00802
       4 -> 17         0.00331
       4 -> 20         0.00715
       4 -> 21         0.00035
       4 -> 24        -0.00595
       4 -> 26         0.00567
       4 -> 29         0.00116
       4 -> 32        -0.00124
       4 -> 34        -0.00236
       4 -> 39        -0.00017
       4 -> 41         0.00014
       4 -> 43        -0.00031
       4 -> 45         0.00034
       4 -> 47        -0.00159
       4 -> 51        -0.00026
       5 -> 12         0.02201
       5 -> 16         0.01743
       5 -> 19         0.00163
       5 -> 22         0.00634
       5 -> 25         0.01021
       5 -> 30        -0.00107
       5 -> 33        -0.00330
       5 -> 35         0.00255
       5 -> 40         0.00159
       5 -> 42         0.00062
       5 -> 49         0.00057
       5 -> 50        -0.00059
       5 -> 53        -0.00020
       6 -> 10        -0.07563
       6 -> 11         0.10283
       6 -> 14         0.07386
       6 -> 15        -0.11154
       6 -> 17        -0.02012
       6 -> 20        -0.01906
       6 -> 21         0.01929
       6 -> 24        -0.01803
       6 -> 26        -0.00910
       6 -> 29        -0.00928
       6 -> 32         0.00016
       6 -> 34         0.00191
       6 -> 36        -0.00134
       6 -> 39         0.00057
       6 -> 41        -0.00061
       6 -> 43         0.00068
       6 -> 45        -0.00037
       6 -> 47         0.00165
       6 -> 51         0.00084
       6 -> 54        -0.00049
       7 ->  9         0.68601
       7 -> 13         0.00760
       7 -> 18        -0.02243
       7 -> 23         0.00228
       7 -> 28        -0.00294
       7 -> 31        -0.00264
       7 -> 37         0.00057
       7 -> 44        -0.00104
       7 -> 48         0.00053
       7 -> 52         0.00103
       8 -> 12        -0.00487
       8 -> 16         0.09162
       8 -> 19        -0.02619
       8 -> 22        -0.03481
       8 -> 25         0.00143
       8 -> 30        -0.01375
       8 -> 33         0.00339
       8 -> 35        -0.00426
       8 -> 40        -0.00192
       8 -> 42        -0.00034
       8 -> 49         0.00068
       8 -> 50         0.00029
       8 -> 53        -0.00083
       3 <- 10         0.00615
       3 <- 11        -0.01091
       3 <- 14        -0.00884
       3 <- 15         0.01068
       3 <- 17        -0.00192
       3 <- 20        -0.00207
       3 <- 21        -0.00254
       3 <- 24         0.00248
       3 <- 26         0.00347
       3 <- 29        -0.00032
       3 <- 32         0.00257
       3 <- 34         0.00226
       3 <- 36        -0.00010
       3 <- 39         0.00085
       3 <- 41         0.00012
       3 <- 43         0.00051
       3 <- 45         0.00071
       3 <- 47         0.00220
       3 <- 51         0.00070
       3 <- 54         0.00035
       4 <- 10         0.00873
       4 <- 11         0.00607
       4 <- 14        -0.00512
       4 <- 15        -0.00473
       4 <- 17         0.00152
       4 <- 20         0.00522
       4 <- 21         0.00030
       4 <- 24        -0.00383
       4 <- 26         0.00425
       4 <- 29         0.00028
       4 <- 32        -0.00159
       4 <- 34        -0.00206
       4 <- 36         0.00019
       4 <- 39        -0.00023
       4 <- 43        -0.00031
       4 <- 45         0.00063
       4 <- 47        -0.00123
       5 <- 12         0.00841
       5 <- 16         0.00789
       5 <- 19         0.00106
       5 <- 22         0.00363
       5 <- 25         0.00646
       5 <- 30        -0.00057
       5 <- 33        -0.00247
       5 <- 35         0.00203
       5 <- 40         0.00136
       5 <- 42         0.00050
       5 <- 49         0.00049
       5 <- 50        -0.00053
       5 <- 53        -0.00018
       6 <- 10        -0.01955
       6 <- 11         0.02849
       6 <- 14         0.02618
       6 <- 15        -0.04345
       6 <- 17        -0.00868
       6 <- 20        -0.01021
       6 <- 21         0.01035
       6 <- 24        -0.01042
       6 <- 26        -0.00535
       6 <- 29        -0.00610
       6 <- 32         0.00064
       6 <- 34         0.00215
       6 <- 36        -0.00107
       6 <- 39         0.00071
       6 <- 41        -0.00041
       6 <- 43         0.00060
       6 <- 45        -0.00051
       6 <- 47         0.00116
       6 <- 51         0.00065
       6 <- 54        -0.00039
       7 <-  9        -0.11653
       7 <- 13         0.00946
       7 <- 18        -0.01455
       7 <- 23         0.00501
       7 <- 28        -0.00486
       7 <- 31        -0.00105
       7 <- 44        -0.00054
       7 <- 52         0.00088
       8 <- 12        -0.00080
       8 <- 16         0.02645
       8 <- 19        -0.00945
       8 <- 22        -0.01696
       8 <- 25         0.00045
       8 <- 30        -0.00938
       8 <- 33         0.00242
       8 <- 35        -0.00314
       8 <- 40        -0.00153
       8 <- 42        -0.00027
       8 <- 49         0.00047
       8 <- 50         0.00023
       8 <- 53        -0.00074

 Excited State   3:      Singlet-B1     6.0988 eV  203.29 nm  f=0.0015  <S**2>=0.000
       3 ->  9        -0.03110
       3 -> 13         0.00234
       3 -> 18        -0.00532
       3 -> 23         0.00225
       3 -> 28        -0.00127
       3 -> 31        -0.00050
       3 -> 44         0.00031
       3 -> 48         0.00081
       3 -> 52         0.00103
       4 ->  9         0.01474
       4 -> 13        -0.00270
       4 -> 18         0.00044
       4 -> 23        -0.00247
       4 -> 28         0.00020
       4 -> 31        -0.00172
       4 -> 37        -0.00044
       4 -> 44         0.00010
       4 -> 48        -0.00128
       4 -> 52        -0.00071
       5 -> 27        -0.00057
       5 -> 38         0.00199
       5 -> 46         0.00130
       6 ->  9         0.70600
       6 -> 13        -0.02260
       6 -> 18         0.01826
       6 -> 23        -0.01142
       6 -> 28         0.00501
       6 -> 31         0.00366
       6 -> 37        -0.00238
       6 -> 44        -0.00317
       6 -> 48         0.00454
       6 -> 52         0.00161
       7 -> 10        -0.01180
       7 -> 11         0.01456
       7 -> 14         0.00922
       7 -> 15        -0.00797
       7 -> 17        -0.00980
       7 -> 20         0.00243
       7 -> 21        -0.00060
       7 -> 26        -0.00096
       7 -> 29        -0.00421
       7 -> 32        -0.00092
       7 -> 34         0.00014
       7 -> 36         0.00183
       7 -> 39         0.00012
       7 -> 41        -0.00088
       7 -> 43         0.00065
       7 -> 45         0.00208
       7 -> 47         0.00417
       7 -> 51         0.00116
       7 -> 54         0.00051
       8 -> 27         0.00095
       8 -> 38         0.00027
       8 -> 46         0.00586
       3 <-  9        -0.01025
       3 <- 13        -0.00035
       3 <- 18        -0.00310
       3 <- 23        -0.00037
       3 <- 28        -0.00084
       3 <- 31        -0.00059
       3 <- 44        -0.00027
       3 <- 48         0.00102
       3 <- 52         0.00082
       4 <-  9         0.00658
       4 <- 13        -0.00010
       4 <- 18         0.00218
       4 <- 23        -0.00044
       4 <- 28         0.00188
       4 <- 31        -0.00124
       4 <- 37        -0.00016
       4 <- 44         0.00015
       4 <- 48        -0.00111
       4 <- 52        -0.00040
       5 <- 27        -0.00102
       5 <- 38         0.00158
       5 <- 46         0.00116
       6 <-  9        -0.02338
       6 <- 13         0.00181
       6 <- 18        -0.00307
       6 <- 23        -0.00023
       6 <- 28        -0.00313
       6 <- 31         0.00170
       6 <- 37        -0.00214
       6 <- 44        -0.00184
       6 <- 48         0.00405
       6 <- 52         0.00058
       7 <- 10         0.00678
       7 <- 11        -0.00965
       7 <- 14        -0.00883
       7 <- 15         0.01673
       7 <- 17         0.00063
       7 <- 20         0.00573
       7 <- 21        -0.00508
       7 <- 24         0.00481
       7 <- 26         0.00206
       7 <- 29         0.00077
       7 <- 32        -0.00061
       7 <- 34        -0.00040
       7 <- 36         0.00288
       7 <- 39         0.00039
       7 <- 41        -0.00049
       7 <- 43         0.00055
       7 <- 45         0.00204
       7 <- 47         0.00371
       7 <- 51         0.00094
       7 <- 54         0.00109
       8 <- 27         0.00131
       8 <- 38         0.00043
       8 <- 46         0.00538

 Excited State   4:      Singlet-B2     6.7484 eV  183.72 nm  f=0.0178  <S**2>=0.000
       3 -> 12         0.00182
       3 -> 16        -0.00093
       3 -> 19         0.00323
       3 -> 22        -0.00028
       3 -> 25         0.00039
       3 -> 30         0.00210
       3 -> 33         0.00039
       3 -> 35        -0.00161
       3 -> 40        -0.00120
       3 -> 42        -0.00013
       3 -> 49         0.00150
       3 -> 50        -0.00018
       3 -> 53        -0.00022
       4 -> 12        -0.00084
       4 -> 16         0.00283
       4 -> 19         0.00088
       4 -> 22        -0.00350
       4 -> 25         0.00285
       4 -> 30        -0.00081
       4 -> 33         0.00032
       4 -> 35        -0.00029
       4 -> 40         0.00048
       4 -> 49        -0.00020
       5 -> 10        -0.00330
       5 -> 11        -0.00279
       5 -> 14        -0.01389
       5 -> 15         0.00296
       5 -> 17        -0.00163
       5 -> 20        -0.00089
       5 -> 21        -0.00652
       5 -> 24        -0.00176
       5 -> 26         0.00210
       5 -> 29         0.00164
       5 -> 32         0.00012
       5 -> 34         0.00126
       5 -> 36         0.00060
       5 -> 39         0.00057
       5 -> 41        -0.00081
       5 -> 45         0.00027
       5 -> 47         0.00058
       5 -> 51        -0.00036
       5 -> 54         0.00019
       6 -> 12        -0.00337
       6 -> 16         0.00105
       6 -> 19        -0.00154
       6 -> 22        -0.00075
       6 -> 25         0.00071
       6 -> 30         0.00028
       6 -> 33        -0.00048
       6 -> 35         0.00191
       6 -> 40         0.00127
       6 -> 42         0.00010
       6 -> 49        -0.00084
       6 -> 53         0.00020
       7 -> 27         0.00035
       7 -> 38        -0.00101
       7 -> 46        -0.00228
       8 -> 10         0.67674
       8 -> 11        -0.17773
       8 -> 14        -0.07632
       8 -> 15         0.06580
       8 -> 17         0.00481
       8 -> 20         0.00865
       8 -> 21        -0.00222
       8 -> 24         0.00348
       8 -> 26         0.00504
       8 -> 29         0.00607
       8 -> 32         0.00147
       8 -> 34         0.00077
       8 -> 36         0.00055
       8 -> 39         0.00037
       8 -> 41        -0.00049
       8 -> 43         0.00067
       8 -> 45         0.00191
       8 -> 47         0.00208
       8 -> 51        -0.00147
       8 -> 54         0.00086
       3 <- 12         0.00053
       3 <- 19         0.00148
       3 <- 22        -0.00077
       3 <- 25         0.00012
       3 <- 30         0.00080
       3 <- 33         0.00035
       3 <- 35        -0.00132
       3 <- 40        -0.00109
       3 <- 42        -0.00011
       3 <- 49         0.00156
       3 <- 50        -0.00015
       3 <- 53        -0.00054
       4 <- 12         0.00059
       4 <- 16         0.00242
       4 <- 19         0.00092
       4 <- 22        -0.00266
       4 <- 25         0.00177
       4 <- 30        -0.00065
       4 <- 33         0.00041
       4 <- 35        -0.00046
       4 <- 40         0.00012
       4 <- 42        -0.00019
       4 <- 49        -0.00016
       5 <- 10         0.00174
       5 <- 11         0.00103
       5 <- 14        -0.00397
       5 <- 15        -0.00243
       5 <- 17        -0.00027
       5 <- 20        -0.00011
       5 <- 21        -0.00178
       5 <- 24        -0.00280
       5 <- 26         0.00097
       5 <- 29         0.00040
       5 <- 32        -0.00062
       5 <- 34         0.00057
       5 <- 36         0.00010
       5 <- 39         0.00015
       5 <- 41        -0.00073
       5 <- 43        -0.00019
       5 <- 45         0.00047
       5 <- 47         0.00033
       5 <- 51        -0.00018
       6 <- 12        -0.00027
       6 <- 16        -0.00303
       6 <- 19         0.00149
       6 <- 22         0.00200
       6 <- 25         0.00026
       6 <- 30         0.00267
       6 <- 33        -0.00064
       6 <- 35         0.00187
       6 <- 40         0.00120
       6 <- 42         0.00014
       6 <- 49        -0.00087
       6 <- 53         0.00060
       7 <- 27         0.00039
       7 <- 38        -0.00077
       7 <- 46        -0.00184
       8 <- 10        -0.00458
       8 <- 11         0.00674
       8 <- 14         0.00739
       8 <- 15        -0.00559
       8 <- 17        -0.00026
       8 <- 20         0.00098
       8 <- 21         0.00209
       8 <- 24        -0.00022
       8 <- 26        -0.00175
       8 <- 29         0.00052
       8 <- 32        -0.00091
       8 <- 34        -0.00087
       8 <- 36        -0.00032
       8 <- 39        -0.00084
       8 <- 41        -0.00049
       8 <- 45         0.00210
       8 <- 47         0.00123
       8 <- 51        -0.00081
       8 <- 54         0.00020

 Excited State   5:      Singlet-B2     7.2116 eV  171.92 nm  f=0.0109  <S**2>=0.000
       3 -> 12         0.00092
       3 -> 16         0.00199
       3 -> 19        -0.00194
       3 -> 22        -0.00044
       3 -> 25         0.00087
       3 -> 30        -0.00337
       3 -> 35         0.00109
       3 -> 40         0.00091
       3 -> 49        -0.00122
       3 -> 50         0.00011
       4 -> 12        -0.00160
       4 -> 16        -0.00037
       4 -> 19         0.00055
       4 -> 22         0.00033
       4 -> 25        -0.00050
       4 -> 30         0.00178
       4 -> 33        -0.00039
       4 -> 35         0.00059
       4 -> 50        -0.00013
       5 -> 10        -0.00706
       5 -> 11         0.00145
       5 -> 14         0.00578
       5 -> 15         0.00531
       5 -> 17         0.00242
       5 -> 20         0.00292
       5 -> 21         0.00250
       5 -> 24         0.00022
       5 -> 26        -0.00122
       5 -> 29        -0.00109
       5 -> 32        -0.00154
       5 -> 34        -0.00019
       5 -> 36        -0.00066
       5 -> 39        -0.00086
       5 -> 41         0.00020
       5 -> 43        -0.00037
       5 -> 45        -0.00060
       5 -> 47        -0.00060
       5 -> 51         0.00046
       6 -> 12         0.00036
       6 -> 19         0.00109
       6 -> 22        -0.00109
       6 -> 30        -0.00118
       6 -> 33         0.00022
       6 -> 35        -0.00098
       6 -> 40        -0.00124
       6 -> 42        -0.00025
       6 -> 49         0.00171
       6 -> 50        -0.00014
       6 -> 53        -0.00018
       7 -> 27        -0.00076
       7 -> 38         0.00021
       7 -> 46         0.00278
       8 -> 10         0.18779
       8 -> 11         0.67745
       8 -> 14         0.03139
       8 -> 15        -0.06692
       8 -> 17        -0.00664
       8 -> 20         0.01469
       8 -> 21         0.00403
       8 -> 24        -0.00452
       8 -> 26        -0.00018
       8 -> 29        -0.00500
       8 -> 32        -0.00064
       8 -> 34        -0.00090
       8 -> 36        -0.00102
       8 -> 39         0.00011

 The electronic state is 1-A1.
 Alpha  occ. eigenvalues --  -19.16852 -10.31865  -0.95155  -0.68706  -0.48823
 Alpha  occ. eigenvalues --   -0.42678  -0.34383  -0.29009
 Alpha virt. eigenvalues --   -0.13102  -0.00390   0.02292   0.04116   0.06156
 Alpha virt. eigenvalues --    0.10747   0.15021   0.15049   0.18957   0.21566
 Alpha virt. eigenvalues --    0.23897   0.30070   0.39709   0.42027   0.50978

 Mulliken charges:
               1
     1  C   -0.043781
     2  H    0.169632
     3  H    0.169632
     4  O   -0.295482
 Sum of Mulliken charges =   0.00000

 Dipole moment (field-independent basis, Debye):
    X=             -0.0000    Y=              0.0000    Z=             -3.5461  Tot=              3.5461
 Quadrupole moment (field-independent basis, Debye-Ang):
   XX=            -12.5559   YY=            -11.8274   ZZ=            -11.5781
   XY=              0.0000   XZ=              0.0000   YZ=             -0.0000

 Normal termination of Gaussian 16 at Fri Sep 17 10:52:54 2021.
