 Gaussian 16, Revision C.01,
 Gaussian 16:  ES64L-G16RevC.01  3-Jul-2019

 -------------------------
 #P wB97XD/6-311+G* volume
 -------------------------

 -------
 TitleMe
 -------
 Symbolic Z-matrix:
 Charge =  0 Multiplicity = 1

                         Standard orientation:
 ---------------------------------------------------------------------
 Center     Atomic      Atomic             Coordinates (Angstroms)
 Number     Number       Type             X           Y           Z
 ---------------------------------------------------------------------
      1          6           0       -1.820752   -1.212206   -0.000071
      2          6           0       -0.427822   -1.220108   -0.000111
      3          6           0        0.242870   -0.000019    0.000009
      4          6           0       -0.427858    1.220122   -0.000031
      5          6           0       -2.515790   -0.000015   -0.000001
      6          1           0       -2.361553   -2.150926    0.000019
      7          1           0        0.137687   -2.142269   -0.000061
      8          1           0        0.137683    2.142251    0.000119
      9          1           0       -3.599850    0.000016    0.000229
     10          7           0        1.705200   -0.000001    0.000039
     11          8           0        2.295722    1.104888   -0.000111
     12          8           0        2.295759   -1.104862    0.000129
     13          6           0       -1.820748    1.212204    0.000059
     14          1           0       -2.361617    2.150874    0.000129
 ---------------------------------------------------------------------

 SCF Done:  E(RwB97XD) =  -436.705187963     A.U. after   15 cycles

 The electronic state is 1-A.
 Alpha  occ. eigenvalues --  -19.29294 -19.29291 -14.68619 -10.36738 -10.32964
 Alpha  occ. eigenvalues --  -10.32962 -10.32776 -10.32434 -10.32428  -1.32731
 Alpha  occ. eigenvalues --   -1.15409  -1.00797  -0.92319  -0.88668  -0.81451
 Alpha  occ. eigenvalues --   -0.74079  -0.70501  -0.66749  -0.62936  -0.61504
 Alpha  occ. eigenvalues --   -0.61241  -0.57024  -0.56624  -0.54732  -0.49288
 Alpha  occ. eigenvalues --   -0.48393  -0.46579  -0.40933  -0.40277  -0.39023
 Alpha  occ. eigenvalues --   -0.37001  -0.36622
 Alpha virt. eigenvalues --   -0.04474   0.02422   0.05181   0.05320   0.06997
 Alpha virt. eigenvalues --    0.07676   0.09380   0.09908   0.10736   0.11616
 Alpha virt. eigenvalues --    0.13588   0.14085   0.14171   0.15989   0.17973

 Mulliken charges:
               1
     1  C   -0.442876
     2  C    0.176058
     3  C   -0.477859
     4  C    0.176049
     5  C   -0.136377
     6  H    0.261549
     7  H    0.290896
     8  H    0.290898
     9  H    0.258145
    10  N   -0.141543
    11  O   -0.036804
    12  O   -0.036792
    13  C   -0.442894
    14  H    0.261550
 Sum of Mulliken charges =  -0.00000

 Dipole moment (field-independent basis, Debye):
    X=             -5.1371    Y=             -0.0001    Z=              0.0004  Tot=              5.1371
 Quadrupole moment (field-independent basis, Debye-Ang):
   XX=            -55.6596   YY=            -47.3558   ZZ=            -53.5550
   XY=             -0.0003   XZ=             -0.0010   YZ=              0.0008

 Normal termination of Gaussian 16 at Tue May 23 13:38:07 2023.
