 Gaussian 16, Revision C.01,
 Gaussian 16:  ES64L-G16RevC.01  3-Jul-2019

 ----------------------------------------
 #P wB97XD/6-311+G* NoSymm #P Field=Y-116
 ----------------------------------------

 -------
 TitleMe
 -------
 Symbolic Z-matrix:
 Charge =  1 Multiplicity = 1

                          Input orientation:
 ---------------------------------------------------------------------
 Center     Atomic      Atomic             Coordinates (Angstroms)
 Number     Number       Type             X           Y           Z
 ---------------------------------------------------------------------
      1          6           0        0.029500    1.339700    0.068200
      2          6           0        1.434800    1.286700    0.006400
      3          6           0        2.111800    0.051100   -0.005400
      4          6           0        1.445100   -1.137200    0.031200
      5          6           0       -0.687900    0.168200    0.110000
      6          1           0       -0.471300    2.298400    0.078100
      7          1           0        2.027300    2.196500   -0.032200
      8          1           0        1.989700   -2.076400    0.023200
      9          1           0       -1.771600    0.180400    0.158200
     10          7           0        3.586400    0.051000   -0.067500
     11          8           0        4.147100   -1.059700   -0.088100
     12          8           0        4.145000    1.163900   -0.090100
     13          6           0       -0.023600   -1.145800    0.083500
     14          1           0       -0.436700   -1.872500    0.788900
     15         35           0       -0.535900   -1.869700   -1.740800
 ---------------------------------------------------------------------

 SCF Done:  E(RwB97XD) =  -3010.54027028     A.U. after   18 cycles

 Alpha  occ. eigenvalues -- -483.32997 -62.88044 -56.67708 -56.67176 -56.67175
 Alpha  occ. eigenvalues --  -19.46161 -19.45871 -14.85507 -10.59745 -10.57632
 Alpha  occ. eigenvalues --  -10.57558 -10.57238 -10.56640 -10.52301  -9.03867
 Alpha  occ. eigenvalues --   -6.86463  -6.84715  -6.84706  -2.96387  -2.95920
 Alpha  occ. eigenvalues --   -2.95911  -2.94512  -2.94512  -1.49786  -1.32755
 Alpha  occ. eigenvalues --   -1.23074  -1.14818  -1.11774  -1.05710  -1.01170
 Alpha  occ. eigenvalues --   -0.95860  -0.91155  -0.85410  -0.80978  -0.80767
 Alpha  occ. eigenvalues --   -0.80176  -0.78855  -0.76221  -0.75905  -0.72947
 Alpha  occ. eigenvalues --   -0.69373  -0.67410  -0.63978  -0.61069  -0.58598
 Alpha  occ. eigenvalues --   -0.57248  -0.56487  -0.56214  -0.55670
 Alpha virt. eigenvalues --   -0.30138  -0.21528  -0.16736  -0.13936  -0.12336
 Alpha virt. eigenvalues --   -0.08672  -0.08461  -0.06594  -0.05396  -0.04422
 Alpha virt. eigenvalues --   -0.03795  -0.03587  -0.02429  -0.02163  -0.01507

 Mulliken charges:
               1
     1  C   -0.552751
     2  C    0.464130
     3  C   -0.659828
     4  C    0.264580
     5  C    0.035491
     6  H    0.380303
     7  H    0.407056
     8  H    0.333851
     9  H    0.354349
    10  N   -0.108992
    11  O   -0.027224
    12  O    0.095080
    13  C   -0.458507
    14  H    0.374023
    15  Br   0.098437
 Sum of Mulliken charges =   1.00000

 Dipole moment (field-independent basis, Debye):
    X=             -0.4210    Y=              2.7466    Z=              0.4088  Tot=              2.8086
 Quadrupole moment (field-independent basis, Debye-Ang):
   XX=            -70.5802   YY=            -53.6606   ZZ=            -63.6150
   XY=              5.0283   XZ=              0.7394   YZ=              0.1350

 Normal termination of Gaussian 16 at Wed May  1 15:04:36 2024.
