 Gaussian 16, Revision C.01,
 Gaussian 16:  ES64L-G16RevC.01  3-Jul-2019

 ----------------------------------------
 #P wB97XD/6-311+G* NoSymm #P Field=Y-291
 ----------------------------------------

 -------
 TitleMe
 -------
 Symbolic Z-matrix:
 Charge =  1 Multiplicity = 1

                          Input orientation:
 ---------------------------------------------------------------------
 Center     Atomic      Atomic             Coordinates (Angstroms)
 Number     Number       Type             X           Y           Z
 ---------------------------------------------------------------------
      1          6           0        0.029500    1.339700    0.068200
      2          6           0        1.434800    1.286700    0.006400
      3          6           0        2.111800    0.051100   -0.005400
      4          6           0        1.445100   -1.137200    0.031200
      5          6           0       -0.687900    0.168200    0.110000
      6          1           0       -0.471300    2.298400    0.078100
      7          1           0        2.027300    2.196500   -0.032200
      8          1           0        1.989700   -2.076400    0.023200
      9          1           0       -1.771600    0.180400    0.158200
     10          7           0        3.586400    0.051000   -0.067500
     11          8           0        4.147100   -1.059700   -0.088100
     12          8           0        4.145000    1.163900   -0.090100
     13          6           0       -0.023600   -1.145800    0.083500
     14          1           0       -0.436700   -1.872500    0.788900
     15         35           0       -0.535900   -1.869700   -1.740800
 ---------------------------------------------------------------------

 SCF Done:  E(RwB97XD) =  -3010.57664676     A.U. after   22 cycles

 Alpha  occ. eigenvalues -- -483.36334 -62.91400 -56.71021 -56.70555 -56.70545
 Alpha  occ. eigenvalues --  -19.47288 -19.46642 -14.86214 -10.62473 -10.58968
 Alpha  occ. eigenvalues --  -10.58885 -10.57334 -10.56858 -10.51847  -9.07237
 Alpha  occ. eigenvalues --   -6.89711  -6.88163  -6.88133  -2.99663  -2.99251
 Alpha  occ. eigenvalues --   -2.99227  -2.97987  -2.97987  -1.50595  -1.33562
 Alpha  occ. eigenvalues --   -1.24452  -1.16647  -1.12334  -1.08170  -1.01969
 Alpha  occ. eigenvalues --   -0.97017  -0.92050  -0.86417  -0.82210  -0.81566
 Alpha  occ. eigenvalues --   -0.81019  -0.80181  -0.76917  -0.76375  -0.74731
 Alpha  occ. eigenvalues --   -0.69565  -0.67239  -0.65059  -0.63616  -0.62238
 Alpha  occ. eigenvalues --   -0.58303  -0.57951  -0.57041  -0.56218
 Alpha virt. eigenvalues --   -0.31587  -0.23703  -0.22261  -0.20427  -0.18180
 Alpha virt. eigenvalues --   -0.16831  -0.13955  -0.12260  -0.11379  -0.10468
 Alpha virt. eigenvalues --   -0.08262  -0.06681  -0.06137  -0.04384  -0.03478

 Mulliken charges:
               1
     1  C   -0.503808
     2  C    0.401381
     3  C   -0.601120
     4  C    0.306878
     5  C    0.066828
     6  H    0.443309
     7  H    0.462567
     8  H    0.269060
     9  H    0.360647
    10  N   -0.110347
    11  O   -0.110885
    12  O    0.198102
    13  C   -0.494608
    14  H    0.328701
    15  Br  -0.016704
 Sum of Mulliken charges =   1.00000

 Dipole moment (field-independent basis, Debye):
    X=              0.2715    Y=              7.8486    Z=              1.0338  Tot=              7.9210
 Quadrupole moment (field-independent basis, Debye-Ang):
   XX=            -69.4092   YY=            -57.1343   ZZ=            -65.2557
   XY=             10.6732   XZ=              0.1893   YZ=             -2.2505

 Normal termination of Gaussian 16 at Wed May  1 14:50:29 2024.
