 Gaussian 16, Revision A.03,
 Gaussian 16:  ES64L-G16RevA.03 25-Dec-2016

 --------------------------------------------------------------------
 #p B3LYP/6-311+G** #p TD=(singlets,nstates=30)IOp(6/8=3) IOp(9/40=4)
 --------------------------------------------------------------------

 --------------------------------
 Scan Step 131, Bond Length 1.155
 --------------------------------
 Symbolic Z-matrix:
 Charge =  0 Multiplicity = 1

                         Standard orientation:
 ---------------------------------------------------------------------
 Center     Atomic      Atomic             Coordinates (Angstroms)
 Number     Number       Type             X           Y           Z
 ---------------------------------------------------------------------
      1          6           0        0.000000   -0.000000   -0.503581
      2          1           0        0.000000    0.937260   -1.094931
      3          1           0       -0.000000   -0.937260   -1.094931
      4          8           0        0.000000    0.000000    0.651419
 ---------------------------------------------------------------------

 SCF Done:  E(RB3LYP) =  -114.537994040     A.U. after    9 cycles

 Excitation energies and oscillator strengths:

 Excited State   1:      Singlet-A2     4.2380 eV  292.56 nm  f=0.0000  <S**2>=0.000
       3 -> 27         0.00266
       3 -> 38         0.00225
       3 -> 45         0.00229
       4 -> 27         0.00219
       4 -> 38        -0.00063
       4 -> 45        -0.00122
       5 ->  9         0.02125
       5 -> 13        -0.00457
       5 -> 17         0.00591
       5 -> 23        -0.00089
       5 -> 29         0.00425
       5 -> 31         0.00266
       5 -> 37         0.00370
       5 -> 44         0.00066
       5 -> 47         0.00014
       5 -> 52         0.00082
       6 -> 38        -0.00078
       6 -> 45         0.00176
       7 -> 12        -0.00062
       7 -> 15         0.00246
       7 -> 18        -0.00250
       7 -> 22         0.00100
       7 -> 24         0.00139
       7 -> 30        -0.00085
       7 -> 33         0.00041
       7 -> 35        -0.00035
       7 -> 40        -0.00031
       7 -> 49         0.00045
       7 -> 50         0.00029
       7 -> 53         0.00045
       8 ->  9         0.70455
       8 -> 13        -0.05376
       8 -> 17         0.02365
       8 -> 23        -0.01116
       8 -> 29         0.00834
       8 -> 31         0.00306
       8 -> 37        -0.00051
       8 -> 44        -0.00017
       8 -> 47        -0.00023
       8 -> 52         0.00158
       3 <- 27         0.00177
       3 <- 38         0.00189
       3 <- 45         0.00238
       4 <- 27         0.00301
       4 <- 45        -0.00106
       5 <-  9        -0.00026
       5 <- 13        -0.00087
       5 <- 17        -0.00091
       5 <- 23         0.00055
       5 <- 29        -0.00060
       5 <- 31        -0.00099
       5 <- 37         0.00172
       5 <- 44         0.00030
       5 <- 47         0.00017
       5 <- 52         0.00021
       6 <- 27         0.00059
       6 <- 38        -0.00071
       6 <- 45         0.00137
       7 <- 12        -0.00088
       7 <- 15        -0.00656
       7 <- 18        -0.00030
       7 <- 22         0.00711
       7 <- 24        -0.00036
       7 <- 30         0.00302
       7 <- 33        -0.00134
       7 <- 35        -0.00250
       7 <- 40        -0.00102
       7 <- 42         0.00017
       7 <- 49         0.00027
       7 <- 50         0.00017
       7 <- 53         0.00122
       8 <-  9        -0.02145
       8 <- 13         0.00376
       8 <- 17        -0.00409
       8 <- 23         0.00079
       8 <- 29        -0.00077
       8 <- 31         0.00113
       8 <- 37        -0.00167
       8 <- 52         0.00046
 This state for optimization and/or second-order correction.
 Total Energy, E(TD-HF/TD-DFT) =  -114.382251238
 Copying the excited state density for this state as the 1-particle RhoCI density.

 Excited State   2:      Singlet-B2     6.7782 eV  182.92 nm  f=0.0385  <S**2>=0.000
       3 -> 12         0.00138
       3 -> 15         0.00070
       3 -> 18         0.00114
       3 -> 22        -0.00029
       3 -> 24         0.00131
       3 -> 30        -0.00011
       3 -> 33         0.00015
       3 -> 35         0.00034
       4 -> 12        -0.00366
       4 -> 15         0.00159
       4 -> 18         0.00222
       4 -> 22        -0.00336
       4 -> 24         0.00356
       4 -> 30         0.00020
       4 -> 33        -0.00063
       4 -> 35        -0.00071
       4 -> 40        -0.00048
       5 -> 10        -0.00523
       5 -> 11        -0.00920
       5 -> 14         0.00697
       5 -> 16        -0.00102
       5 -> 19         0.00163
       5 -> 20         0.00132
       5 -> 21         0.00544
       5 -> 26         0.00264
       5 -> 28         0.00154
       5 -> 32         0.00060
       5 -> 34        -0.00102
       5 -> 36        -0.00025
       5 -> 39        -0.00031
       5 -> 41        -0.00024
       5 -> 43        -0.00056
       5 -> 46        -0.00043
       5 -> 54         0.00010
       6 -> 12         0.00056
       6 -> 15         0.00144
       6 -> 18         0.00273
       6 -> 22        -0.00266
       6 -> 24         0.00138
       6 -> 30        -0.00045
       6 -> 33        -0.00018
       6 -> 35        -0.00023
       6 -> 40         0.00020
       6 -> 42        -0.00022
       6 -> 49         0.00044
       6 -> 50        -0.00041
       7 -> 27         0.00029
       7 -> 38        -0.00046
       7 -> 45         0.00055
       8 -> 10         0.70374
       8 -> 11        -0.06378
       8 -> 14         0.00899
       8 -> 16        -0.00760
       8 -> 19         0.01453
       8 -> 20         0.01256
       8 -> 21        -0.00374
       8 -> 25         0.00044
       8 -> 26         0.00201
       8 -> 28         0.00064
       8 -> 32        -0.00078
       8 -> 34         0.00175
       8 -> 36         0.00045
       8 -> 39         0.00044
       8 -> 41        -0.00016
       8 -> 43         0.00065
       8 -> 46        -0.00074
       8 -> 48        -0.00012
       8 -> 54         0.00018
       3 <- 12         0.00035
       3 <- 15         0.00054
       3 <- 18         0.00045
       3 <- 22        -0.00041
       3 <- 24         0.00080
       3 <- 30        -0.00011
       3 <- 33         0.00013
       3 <- 35         0.00031
       4 <- 12         0.00068
       4 <- 15         0.00181
       4 <- 18         0.00218
       4 <- 22        -0.00205
       4 <- 24         0.00248
       4 <- 30         0.00015
       4 <- 33        -0.00040
       4 <- 35        -0.00043
       4 <- 40        -0.00017
       4 <- 42        -0.00022
       4 <- 49        -0.00011
       5 <- 10         0.00244
       5 <- 11        -0.00024
       5 <- 14         0.00494
       5 <- 16        -0.00091
       5 <- 19         0.00037
       5 <- 20         0.00065
       5 <- 21         0.00227
       5 <- 25         0.00176
       5 <- 26         0.00158
       5 <- 28         0.00031
       5 <- 32         0.00035
       5 <- 34        -0.00101
       5 <- 36        -0.00032
       5 <- 39        -0.00017
       5 <- 43        -0.00041
       5 <- 46        -0.00037
       5 <- 51         0.00010
       6 <- 12         0.00021
       6 <- 18         0.00138
       6 <- 22        -0.00084
       6 <- 24         0.00049
       6 <- 30         0.00031
       6 <- 33        -0.00025
       6 <- 35        -0.00037
       6 <- 40         0.00019
       6 <- 42        -0.00021
       6 <- 49         0.00037
       6 <- 50        -0.00041
       6 <- 53         0.00013
       7 <- 27         0.00024
       7 <- 38        -0.00034
       7 <- 45         0.00048
       8 <- 10        -0.00211
       8 <- 11        -0.00057
       8 <- 14        -0.00653
       8 <- 16        -0.00021
       8 <- 19        -0.00030
       8 <- 20        -0.00047
       8 <- 21        -0.00235
       8 <- 25        -0.00255
       8 <- 26        -0.00044
       8 <- 28        -0.00065
       8 <- 32        -0.00108
       8 <- 34         0.00072
       8 <- 36         0.00042
       8 <- 39         0.00036
       8 <- 43         0.00047
       8 <- 46        -0.00049

 Excited State   3:      Singlet-B2     7.5717 eV  163.75 nm  f=0.0236  <S**2>=0.000
       3 -> 12        -0.00027
       3 -> 15        -0.00071
       3 -> 18         0.00073
       3 -> 22         0.00035
       3 -> 24         0.00022
       3 -> 30         0.00188
       3 -> 33         0.00013
       3 -> 35         0.00041
       3 -> 40         0.00039
       3 -> 49         0.00037
       3 -> 50        -0.00025
       4 -> 12         0.00292
       4 -> 15        -0.00027
       4 -> 18         0.00278
       4 -> 22        -0.00151
       4 -> 24         0.00313
       4 -> 30        -0.00116
       4 -> 33         0.00051
       4 -> 35         0.00049
       4 -> 42        -0.00016
       4 -> 49         0.00023
       4 -> 50        -0.00010
       5 -> 10        -0.00758
       5 -> 14         0.00752
       5 -> 16        -0.00706
       5 -> 19        -0.00311
       5 -> 20        -0.00396
       5 -> 21         0.00116
       5 -> 25         0.00131
       5 -> 26         0.00040
       5 -> 28         0.00163
       5 -> 34        -0.00137
       5 -> 36        -0.00018
       5 -> 39         0.00041
       5 -> 41        -0.00079
       5 -> 46         0.00085
       5 -> 51        -0.00042
       6 -> 12        -0.00319
       6 -> 15        -0.00188
       6 -> 18        -0.00109
       6 -> 22         0.00138
       6 -> 24         0.00013
       6 -> 30         0.00084
       6 -> 33        -0.00051
       6 -> 35        -0.00148
       6 -> 40        -0.00099
       6 -> 49        -0.00099
       6 -> 50         0.00057
       6 -> 53         0.00011
       7 -> 27        -0.00019
       7 -> 38        -0.00102
       7 -> 45        -0.00163
       8 -> 10         0.06432
       8 -> 11         0.70326
       8 -> 14        -0.00856
       8 -> 16         0.01291
       8 -> 19        -0.02746
       8 -> 20         0.00938
       8 -> 21        -0.00253
       8 -> 25         0.00059
       8 -> 26        -0.00159
       8 -> 28         0.00040
       8 -> 32        -0.00032
       8 -> 34        -0.00013
       8 -> 39        -0.00015
       8 -> 41        -0.00130
       8 -> 43         0.00024
       8 -> 46         0.00166
       8 -> 51        -0.00091
       8 -> 54        -0.00014
       3 <- 12         0.00034
       3 <- 15        -0.00024
       3 <- 18         0.00085
       3 <- 24         0.00035
       3 <- 30         0.00109
       3 <- 33         0.00023
       3 <- 35         0.00046
       3 <- 40         0.00035
       3 <- 49         0.00031
       3 <- 50        -0.00016
       3 <- 53        -0.00026
       4 <- 12         0.00035
       4 <- 15         0.00067
       4 <- 18         0.00071
       4 <- 22        -0.00115
       4 <- 24         0.00129
       4 <- 30        -0.00053
       4 <- 33         0.00047
       4 <- 35         0.00014
       4 <- 42        -0.00016
       4 <- 49         0.00016
       4 <- 50        -0.00016
       5 <- 10         0.00128
       5 <- 11        -0.00105
       5 <- 14         0.00246
       5 <- 16        -0.00044
       5 <- 19         0.00094
       5 <- 20        -0.00037
       5 <- 21         0.00079
       5 <- 25         0.00128
       5 <- 26        -0.00024
       5 <- 28         0.00075
       5 <- 32         0.00105
       5 <- 34        -0.00043
       5 <- 36         0.00017
       5 <- 39         0.00014
       5 <- 41        -0.00082
       5 <- 46         0.00079
       5 <- 48         0.00011
       5 <- 51        -0.00033
       6 <- 12        -0.00033
       6 <- 15        -0.00052
       6 <- 22         0.00061
       6 <- 30         0.00052
       6 <- 33        -0.00034
       6 <- 35        -0.00117
       6 <- 40        -0.00073
       6 <- 49        -0.00081
       6 <- 50         0.00046
       7 <- 27         0.00010
       7 <- 38        -0.00081
       7 <- 45        -0.00137
       8 <- 10        -0.00070
       8 <- 11        -0.00039
       8 <- 14        -0.00389
       8 <- 16         0.00050
       8 <- 19         0.00366
       8 <- 20        -0.00120
       8 <- 21        -0.00205
       8 <- 25         0.00028
       8 <- 26        -0.00168
       8 <- 32         0.00114
       8 <- 34         0.00109
       8 <- 39        -0.00045
       8 <- 41        -0.00113
       8 <- 43         0.00012
       8 <- 46         0.00132
       8 <- 48         0.00014
       8 <- 51        -0.00063

 Excited State   4:      Singlet-A1     7.7456 eV  160.07 nm  f=0.0519  <S**2>=0.000
       3 -> 10         0.00184
       3 -> 11        -0.00093
       3 -> 14         0.00078
       3 -> 16        -0.00021
       3 -> 19         0.00025
       3 -> 20         0.00163
       3 -> 21         0.00069
       3 -> 25        -0.00055
       3 -> 26         0.00112
       3 -> 28         0.00103
       3 -> 32        -0.00012
       3 -> 34        -0.00057
       3 -> 36        -0.00023
       3 -> 41        -0.00021
       3 -> 46         0.00012
       3 -> 48         0.00028
       3 -> 51        -0.00025
       3 -> 54        -0.00020
       4 -> 10         0.00499
       4 -> 11         0.00640
       4 -> 14         0.00513
       4 -> 16         0.00027
       4 -> 19         0.00033
       4 -> 20         0.00446
       4 -> 21         0.00125
       4 -> 25         0.00719
       4 -> 26         0.00146
       4 -> 28        -0.00041
       4 -> 32         0.00063
       4 -> 34        -0.00022
       4 -> 39        -0.00013
       4 -> 41         0.00012
       4 -> 43         0.00016
       4 -> 46        -0.00022
       4 -> 51        -0.00015
       5 -> 12         0.00673
       5 -> 15         0.00171
       5 -> 18         0.01093
       5 -> 22        -0.00195
       5 -> 24         0.00531
       5 -> 33        -0.00016
       5 -> 35        -0.00078
       5 -> 50         0.00027
       5 -> 53        -0.00014
       6 -> 10         0.01265
       6 -> 11        -0.00301
       6 -> 14         0.00441
       6 -> 16         0.00118
       6 -> 19         0.00298
       6 -> 20         0.00430
       6 -> 21         0.00113
       6 -> 25         0.00324
       6 -> 26         0.00014
       6 -> 28        -0.00165
       6 -> 32         0.00053
       6 -> 43         0.00013
       6 -> 48        -0.00063
       6 -> 51         0.00024
       7 ->  9         0.01629
       7 -> 13         0.00974
       7 -> 17         0.00316
       7 -> 23         0.00524
       7 -> 29        -0.00041
       7 -> 31         0.00087
       7 -> 37         0.00057
       7 -> 44         0.00066
       7 -> 47        -0.00034
       7 -> 52        -0.00011
       8 -> 12         0.70576
       8 -> 15        -0.01153
       8 -> 18         0.03005
       8 -> 22         0.00472
       8 -> 24         0.00329
       8 -> 30         0.00054
       8 -> 33         0.00156
       8 -> 35         0.00201
       8 -> 40        -0.00066
       8 -> 42         0.00027
       8 -> 49        -0.00040
       8 -> 50         0.00030
       8 -> 53        -0.00022
       3 <- 10         0.00061
       3 <- 14         0.00043
       3 <- 20         0.00075
       3 <- 21         0.00050
       3 <- 26         0.00071
       3 <- 28         0.00067
       3 <- 32        -0.00021
       3 <- 34        -0.00037
       3 <- 36        -0.00018
       3 <- 41        -0.00015
       3 <- 46         0.00021
       3 <- 48         0.00023
       3 <- 51        -0.00022
       3 <- 54        -0.00018
       4 <- 10         0.00444
       4 <- 11         0.00157
       4 <- 14         0.00378
       4 <- 16        -0.00027
       4 <- 19         0.00019
       4 <- 20         0.00255
       4 <- 21         0.00045
       4 <- 25         0.00395
       4 <- 26         0.00092
       4 <- 32         0.00069
       4 <- 34        -0.00062
       4 <- 39        -0.00020
       4 <- 43         0.00011
       4 <- 46        -0.00019
       4 <- 51        -0.00014
       5 <- 12         0.00275
       5 <- 15         0.00235
       5 <- 18         0.00385
       5 <- 22        -0.00065
       5 <- 24         0.00288
       5 <- 30        -0.00013
       5 <- 33        -0.00034
       5 <- 35        -0.00072
       5 <- 50         0.00017
       5 <- 53        -0.00012
       6 <- 10         0.00323
       6 <- 11        -0.00019
       6 <- 14         0.00174
       6 <- 16         0.00036
       6 <- 19         0.00091
       6 <- 20         0.00205
       6 <- 21         0.00034
       6 <- 25         0.00162
       6 <- 26         0.00032
       6 <- 28        -0.00105
       6 <- 32         0.00046
       6 <- 34        -0.00016
       6 <- 41         0.00013
       6 <- 46        -0.00011
       6 <- 48        -0.00052
       6 <- 51         0.00028
       7 <-  9         0.00095
       7 <- 13         0.00232
       7 <- 17         0.00084
       7 <- 23         0.00267
       7 <- 29        -0.00036
       7 <- 31         0.00061
       7 <- 37         0.00045
       7 <- 44         0.00054
       7 <- 47        -0.00030
       7 <- 52        -0.00010
       8 <- 12        -0.00112
       8 <- 15        -0.00635
       8 <- 18        -0.00210
       8 <- 22         0.00078
       8 <- 24        -0.00189
       8 <- 30        -0.00040
       8 <- 33         0.00072
       8 <- 35         0.00095
       8 <- 40        -0.00063
       8 <- 42         0.00024
       8 <- 49        -0.00044
       8 <- 50         0.00022
       8 <- 53        -0.00023

 Excited State   5:      Singlet-A2     8.2479 eV  150.32 nm  f=0.0000  <S**2>=0.000
       3 -> 27        -0.00052
       3 -> 38        -0.00047
       3 -> 45        -0.00027
       4 -> 27         0.00019
       4 -> 38         0.00051
       5 ->  9        -0.00754
       5 -> 13        -0.00347
       5 -> 17         0.00643
       5 -> 23        -0.00180
       5 -> 31        -0.00157
       5 -> 37        -0.00104
       5 -> 44        -0.00021
       6 -> 27         0.00023
       6 -> 38         0.00029
       6 -> 45        -0.00028
       7 -> 12        -0.00042
       7 -> 15        -0.00184
       7 -> 18         0.00197
       7 -> 22        -0.00069
       7 -> 35         0.00014
       7 -> 40         0.00011
       7 -> 49        -0.00010
       8 ->  9         0.05355
       8 -> 13         0.70455
       8 -> 17         0.01779
       8 -> 23         0.01750
       8 -> 29         0.00015
       8 -> 31        -0.00148
       8 -> 37        -0.00027
       8 -> 47         0.00018
       8 -> 52        -0.00013
       3 <- 27        -0.00017
       3 <- 38        -0.00031
       3 <- 45        -0.00035
       4 <- 27        -0.00014
       5 <-  9        -0.00029
       5 <- 13        -0.00033
       5 <- 17         0.00056
       5 <- 37        -0.00022
       6 <- 38         0.00020
       7 <- 12        -0.00063
       7 <- 15        -0.00093
       7 <- 18         0.00071
       7 <- 22        -0.00105
       7 <- 24        -0.00040
       7 <- 30         0.00021
       7 <- 33         0.00040
       7 <- 35         0.00065
       7 <- 40         0.00038
       7 <- 42        -0.00011
       8 <-  9         0.00215
       8 <- 13         0.00138
       8 <- 17         0.00023
       8 <- 23        -0.00019
       8 <- 37         0.00016

 Excited State   6:      Singlet-B1     9.6670 eV  128.26 nm  f=0.0006  <S**2>=0.000
       3 ->  9        -0.03161
       3 -> 13         0.00717
       3 -> 17        -0.00763
       3 -> 23         0.00505
       3 -> 29        -0.00323
       3 -> 31        -0.00026
       3 -> 37        -0.00010
       3 -> 44         0.00077
       3 -> 47        -0.00016
       3 -> 52         0.00111
       4 ->  9         0.01682
       4 -> 13        -0.00286
       4 -> 17         0.00109
       4 -> 23        -0.00244
       4 -> 29        -0.00024
       4 -> 31         0.00304
       4 -> 37        -0.00024

 The electronic state is 1-A1.
 Alpha  occ. eigenvalues --  -19.14800 -10.27116  -1.10310  -0.63807  -0.51508
 Alpha  occ. eigenvalues --   -0.47171  -0.43011  -0.27820
 Alpha virt. eigenvalues --   -0.05166   0.00919   0.04027   0.04292   0.06593
 Alpha virt. eigenvalues --    0.13147   0.18354   0.18456   0.22005   0.23028
 Alpha virt. eigenvalues --    0.27160   0.33843   0.46811   0.47459   0.50987

 Mulliken charges:
               1
     1  C    0.032537
     2  H    0.098401
     3  H    0.098401
     4  O   -0.229339
 Sum of Mulliken charges =  -0.00000

 Dipole moment (field-independent basis, Debye):
    X=             -0.0000    Y=             -0.0000    Z=             -2.2470  Tot=              2.2470
 Quadrupole moment (field-independent basis, Debye-Ang):
   XX=            -11.6055   YY=            -11.7675   ZZ=            -12.5642
   XY=              0.0000   XZ=              0.0000   YZ=              0.0000

 Normal termination of Gaussian 16 at Fri Sep 17 10:52:41 2021.
