 Gaussian 16, Revision C.01,
 Gaussian 16:  ES64L-G16RevC.01  3-Jul-2019

 --------------------------------------
 #P wB97XD/6-311+G* NoSymm #P Field=Z-9
 --------------------------------------

 -------
 TitleMe
 -------
 Symbolic Z-matrix:
 Charge =  1 Multiplicity = 1

                          Input orientation:
 ---------------------------------------------------------------------
 Center     Atomic      Atomic             Coordinates (Angstroms)
 Number     Number       Type             X           Y           Z
 ---------------------------------------------------------------------
      1          6           0        0.519300    1.233000   -0.031900
      2          6           0        1.944500    1.269200   -0.036700
      3          6           0        2.620400    0.092800   -0.025000
      4          6           0       -0.196000    0.030100    0.001000
      5          1           0       -0.020700    2.174200   -0.043400
      6          1           0        2.482800    2.208900   -0.036100
      7          1           0       -1.277700    0.039900    0.011700
      8          7           0        4.092100    0.095900    0.036600
      9          8           0        4.639300   -1.021700    0.144600
     10          8           0        4.664900    1.198400   -0.023300
     11          6           0        0.494300   -1.167100    0.021000
     12          1           0       -0.032500   -2.114900    0.054500
     13          6           0        1.962900   -1.216500   -0.021100
     14          1           0        2.443600   -1.963100    0.615100
     15         35           0        2.173000   -1.949100   -1.906200
 ---------------------------------------------------------------------

 SCF Done:  E(RwB97XD) =  -3010.53166772     A.U. after   19 cycles

 Alpha  occ. eigenvalues -- -483.31175 -62.86198 -56.65890 -56.65322 -56.65312
 Alpha  occ. eigenvalues --  -19.46196 -19.46180 -14.85620 -10.59174 -10.57998
 Alpha  occ. eigenvalues --  -10.57249 -10.56921 -10.53332 -10.52693  -9.02003
 Alpha  occ. eigenvalues --   -6.84682  -6.82816  -6.82784  -2.94586  -2.94095
 Alpha  occ. eigenvalues --   -2.94069  -2.92577  -2.92576  -1.49880  -1.32839
 Alpha  occ. eigenvalues --   -1.22386  -1.12819  -1.12402  -1.04762  -1.00267
 Alpha  occ. eigenvalues --   -0.95302  -0.90528  -0.84905  -0.80861  -0.80101
 Alpha  occ. eigenvalues --   -0.80018  -0.77864  -0.76157  -0.75538  -0.71947
 Alpha  occ. eigenvalues --   -0.68483  -0.67523  -0.63320  -0.59798  -0.57369
 Alpha  occ. eigenvalues --   -0.56728  -0.56210  -0.55890  -0.54573
 Alpha virt. eigenvalues --   -0.30048  -0.20338  -0.15633  -0.13011  -0.08502
 Alpha virt. eigenvalues --   -0.06032  -0.05471  -0.04858  -0.04123  -0.03163
 Alpha virt. eigenvalues --   -0.02305  -0.01553  -0.01425  -0.00639   0.00499

 Mulliken charges:
               1
     1  C   -0.107151
     2  C    0.179866
     3  C   -0.076333
     4  C   -0.333774
     5  H    0.345570
     6  H    0.350429
     7  H    0.330908
     8  N   -0.238207
     9  O    0.088428
    10  O    0.069927
    11  C   -0.200286
    12  H    0.356972
    13  C   -0.354924
    14  H    0.414134
    15  Br   0.174442
 Sum of Mulliken charges =   1.00000

 Dipole moment (field-independent basis, Debye):
    X=              2.7691    Y=             -0.8696    Z=             -0.5894  Tot=              2.9617
 Quadrupole moment (field-independent basis, Debye-Ang):
   XX=            -67.8489   YY=            -51.1975   ZZ=            -62.3712
   XY=             -2.8981   XZ=             -2.2282   YZ=              2.3004

 Normal termination of Gaussian 16 at Thu May  2 14:19:19 2024.
