 Gaussian 16, Revision A.03,
 Gaussian 16:  ES64L-G16RevA.03 25-Dec-2016

 --------------------------------------------------------------------
 #p B3LYP/6-311+G** #p TD=(singlets,nstates=30)IOp(6/8=3) IOp(9/40=4)
 --------------------------------------------------------------------

 ------------------------------
 Scan Step 22, Bond Length 0.61
 ------------------------------
 Symbolic Z-matrix:
 Charge =  0 Multiplicity = 1

                         Standard orientation:
 ---------------------------------------------------------------------
 Center     Atomic      Atomic             Coordinates (Angstroms)
 Number     Number       Type             X           Y           Z
 ---------------------------------------------------------------------
      1          6           0        0.000000    0.000000   -0.231081
      2          1           0        0.000000    0.937260   -0.822431
      3          1           0       -0.000000   -0.937260   -0.822431
      4          8           0        0.000000   -0.000000    0.378919
 ---------------------------------------------------------------------

 SCF Done:  E(RB3LYP) =  -111.760808341     A.U. after   10 cycles

 Excitation energies and oscillator strengths:

 Excited State   1:      Singlet-B2     4.5591 eV  271.95 nm  f=0.1375  <S**2>=0.000
       3 -> 11         0.00075
       3 -> 15         0.00087
       3 -> 19         0.00075
       3 -> 22         0.00072
       3 -> 25         0.00114
       3 -> 29         0.00015
       3 -> 31        -0.00025
       3 -> 40        -0.00035
       3 -> 43         0.00023
       3 -> 54         0.00016
       4 ->  9        -0.00266
       4 -> 12         0.00221
       4 -> 13         0.00316
       4 -> 16         0.00137
       4 -> 18         0.00222
       4 -> 20         0.00210
       4 -> 21         0.00158
       4 -> 24         0.00130
       4 -> 26        -0.00076
       4 -> 30         0.00122
       4 -> 32         0.00128
       4 -> 38        -0.00058
       4 -> 42         0.00046
       4 -> 44        -0.00027
       4 -> 47         0.00073
       4 -> 49        -0.00011
       4 -> 53        -0.00014
       5 -> 28         0.00201
       5 -> 35         0.00091
       5 -> 45         0.00073
       6 -> 11        -0.00610
       6 -> 15         0.00325
       6 -> 19        -0.00029
       6 -> 22        -0.00023
       6 -> 25         0.00438
       6 -> 29         0.00078
       6 -> 31        -0.00066
       6 -> 40        -0.00014
       6 -> 43         0.00015
       6 -> 46         0.00033
       7 -> 11         0.00897
       7 -> 15         0.00395
       7 -> 19         0.00355
       7 -> 22         0.00040
       7 -> 25         0.00106
       7 -> 29        -0.00117
       7 -> 31         0.00099
       7 -> 37        -0.00066
       7 -> 43        -0.00037
       7 -> 46         0.00042
       7 -> 50         0.00042
       7 -> 54        -0.00012
       8 ->  9         0.70476
       8 -> 12        -0.00252
       8 -> 13         0.05683
       8 -> 16        -0.00513
       8 -> 18        -0.02291
       8 -> 20         0.00548
       8 -> 21         0.01094
       8 -> 24        -0.00030
       8 -> 26        -0.00075
       8 -> 30        -0.00339
       8 -> 32        -0.00197
       8 -> 33        -0.00071
       8 -> 38        -0.00106
       8 -> 42         0.00075
       8 -> 44         0.00044
       8 -> 47        -0.00065
       8 -> 49         0.00027
       3 <- 11         0.00036
       3 <- 15         0.00052
       3 <- 19         0.00047
       3 <- 22         0.00060
       3 <- 25         0.00086
       3 <- 31        -0.00027
       3 <- 40        -0.00035
       3 <- 43         0.00023
       3 <- 54         0.00017
       4 <-  9        -0.00108
       4 <- 12        -0.00018
       4 <- 13         0.00259
       4 <- 16         0.00158
       4 <- 18         0.00030
       4 <- 20         0.00132
       4 <- 21         0.00129
       4 <- 24         0.00090
       4 <- 26        -0.00132
       4 <- 30         0.00092
       4 <- 32         0.00055
       4 <- 33         0.00011
       4 <- 38        -0.00038
       4 <- 39         0.00014
       4 <- 42         0.00037
       4 <- 44        -0.00022
       4 <- 47         0.00066
       5 <- 28         0.00171
       5 <- 35         0.00074
       5 <- 45         0.00062
       6 <- 11        -0.00163
       6 <- 15         0.00306
       6 <- 19         0.00014
       6 <- 22         0.00032
       6 <- 25         0.00330
       6 <- 29         0.00032
       6 <- 31        -0.00059
       6 <- 37         0.00013
       6 <- 40        -0.00013
       6 <- 43         0.00013
       6 <- 46         0.00030
       6 <- 50         0.00013
       7 <- 11         0.00215
       7 <- 15         0.00171
       7 <- 19         0.00071
       7 <- 22         0.00013
       7 <- 25         0.00038
       7 <- 29        -0.00172
       7 <- 31         0.00083
       7 <- 37        -0.00041
       7 <- 43        -0.00025
       7 <- 46         0.00045
       7 <- 50         0.00049
       8 <-  9        -0.01120
       8 <- 12        -0.00658
       8 <- 13         0.02334
       8 <- 16         0.00724
       8 <- 18         0.00079
       8 <- 20         0.00103
       8 <- 21         0.00572
       8 <- 24         0.00291
       8 <- 26        -0.00048
       8 <- 30        -0.00229
       8 <- 32        -0.00151
       8 <- 33        -0.00115
       8 <- 38        -0.00103
       8 <- 39        -0.00013
       8 <- 42         0.00067
       8 <- 44         0.00016
       8 <- 47        -0.00057
       8 <- 49         0.00017
 This state for optimization and/or second-order correction.
 Total Energy, E(TD-HF/TD-DFT) =  -111.593265465
 Copying the excited state density for this state as the 1-particle RhoCI density.

 Excited State   2:      Singlet-A2     4.9258 eV  251.70 nm  f=0.0000  <S**2>=0.000
       3 -> 28        -0.00187
       3 -> 35        -0.00105
       3 -> 45        -0.00033
       4 -> 10        -0.00078
       4 -> 14        -0.00030
       4 -> 17         0.00275
       4 -> 23        -0.00099
       4 -> 27        -0.00204
       4 -> 34         0.00019
       4 -> 36        -0.00118
       4 -> 48        -0.00014
       4 -> 52        -0.00022
       5 -> 11         0.00022
       5 -> 15        -0.00019
       5 -> 19         0.00032
       5 -> 22        -0.00075
       5 -> 25         0.00025
       5 -> 29         0.00031
       5 -> 37        -0.00031
       5 -> 40         0.00013
       5 -> 43        -0.00036
       5 -> 46        -0.00029
       5 -> 50         0.00017
       6 -> 28        -0.00311
       6 -> 35         0.00057
       6 -> 45         0.00011
       7 -> 28         0.00166
       7 -> 35        -0.00034
       7 -> 45        -0.00034
       8 -> 10         0.70655
       8 -> 14        -0.01117
       8 -> 17        -0.02654
       8 -> 23        -0.00362
       8 -> 27         0.00062
       8 -> 34         0.00336
       8 -> 36        -0.00165
       8 -> 41         0.00046
       8 -> 48         0.00015
       8 -> 52         0.00030
       3 <- 28        -0.00156
       3 <- 35        -0.00091
       3 <- 45        -0.00032
       4 <- 10        -0.00020
       4 <- 14         0.00044
       4 <- 17         0.00081
       4 <- 23        -0.00014
       4 <- 27        -0.00045
       4 <- 34         0.00068
       4 <- 36        -0.00069
       4 <- 41        -0.00015
       5 <- 11         0.00050
       5 <- 15        -0.00049
       5 <- 19         0.00118
       5 <- 22        -0.00098
       5 <- 25         0.00085
       5 <- 29         0.00124
       5 <- 31         0.00014
       5 <- 37        -0.00061
       5 <- 43        -0.00040
       5 <- 46        -0.00032
       5 <- 54        -0.00020
       6 <- 28        -0.00301
       6 <- 35         0.00071
       7 <- 28         0.00169
       7 <- 35        -0.00046
       7 <- 45        -0.00036
       8 <- 10         0.00247
       8 <- 14         0.00339
       8 <- 17         0.00706
       8 <- 23        -0.00017
       8 <- 27        -0.00069
       8 <- 34         0.00321
       8 <- 36        -0.00131
       8 <- 41         0.00027
       8 <- 52         0.00012

 Excited State   3:      Singlet-B2     5.5884 eV  221.86 nm  f=0.0370  <S**2>=0.000
       3 -> 11        -0.00020
       3 -> 15         0.00042
       3 -> 19        -0.00038
       3 -> 22         0.00029
       3 -> 25         0.00020
       3 -> 29        -0.00024
       3 -> 31         0.00012
       3 -> 37        -0.00018
       3 -> 40         0.00016
       3 -> 43        -0.00019
       3 -> 46         0.00010
       3 -> 54        -0.00019
       4 ->  9         0.00115
       4 -> 12         0.00022
       4 -> 13         0.00099
       4 -> 16         0.00195
       4 -> 18        -0.00096
       4 -> 20        -0.00057
       4 -> 21         0.00103
       4 -> 24         0.00088
       4 -> 26         0.00032
       4 -> 30        -0.00211
       4 -> 32        -0.00022
       4 -> 38         0.00037
       4 -> 39        -0.00093
       4 -> 42        -0.00030
       4 -> 47        -0.00044
       5 -> 28        -0.00100
       5 -> 35        -0.00115
       5 -> 45        -0.00062
       6 -> 11        -0.00080
       6 -> 15         0.00364
       6 -> 19        -0.00198
       6 -> 22        -0.00016
       6 -> 25         0.00155
       6 -> 29         0.00202
       6 -> 31         0.00044
       6 -> 37         0.00057
       6 -> 40         0.00042
       6 -> 43         0.00028
       6 -> 46        -0.00029
       6 -> 50        -0.00023
       6 -> 54         0.00015
       7 -> 11        -0.00140
       7 -> 15        -0.00429
       7 -> 19        -0.00100
       7 -> 22         0.00020
       7 -> 25        -0.00311
       7 -> 29        -0.00115
       7 -> 31        -0.00048
       7 -> 37         0.00049
       7 -> 46        -0.00055
       7 -> 50        -0.00026
       7 -> 54         0.00015
       8 ->  9         0.00025
       8 -> 12         0.70553
       8 -> 13         0.03747
       8 -> 16         0.02621
       8 -> 18         0.00536
       8 -> 20         0.01569
       8 -> 21         0.00546
       8 -> 24        -0.00096
       8 -> 26         0.00198
       8 -> 30        -0.00290
       8 -> 32         0.00053
       8 -> 33        -0.00017
       8 -> 38        -0.00065
       8 -> 39         0.00140
       8 -> 42         0.00089
       8 -> 44        -0.00014
       8 -> 47         0.00029
       8 -> 53        -0.00017
       3 <- 15         0.00038
       3 <- 19        -0.00013
       3 <- 22         0.00014
       3 <- 25         0.00028
       3 <- 31         0.00013
       3 <- 37        -0.00019
       3 <- 40         0.00013
       3 <- 43        -0.00018
       3 <- 54        -0.00023
       4 <-  9        -0.00108
       4 <- 12        -0.00019
       4 <- 13         0.00109
       4 <- 16         0.00066
       4 <- 18         0.00055
       4 <- 20        -0.00040
       4 <- 21         0.00071
       4 <- 24         0.00096
       4 <- 26         0.00042
       4 <- 30        -0.00142
       4 <- 33        -0.00055
       4 <- 38         0.00024
       4 <- 39        -0.00068
       4 <- 42        -0.00032
       4 <- 47        -0.00040
       5 <- 28        -0.00062
       5 <- 35        -0.00100
       5 <- 45        -0.00055
       6 <- 11        -0.00061
       6 <- 15         0.00074
       6 <- 19         0.00016
       6 <- 22        -0.00056
       6 <- 25         0.00145
       6 <- 29         0.00157
       6 <- 31         0.00062
       6 <- 37         0.00053
       6 <- 40         0.00034
       6 <- 43         0.00021
       6 <- 46        -0.00024
       6 <- 50        -0.00018
       6 <- 54         0.00011
       7 <- 11         0.00025
       7 <- 15        -0.00141
       7 <- 19        -0.00056
       7 <- 22         0.00015
       7 <- 25        -0.00189
       7 <- 29        -0.00033
       7 <- 31        -0.00039
       7 <- 37         0.00016
       7 <- 46        -0.00049
       7 <- 50        -0.00034
       8 <-  9        -0.00603
       8 <- 12         0.00080
       8 <- 13         0.01212
       8 <- 16         0.00478
       8 <- 18        -0.00135
       8 <- 20        -0.00321
       8 <- 21         0.00328
       8 <- 24         0.00061
       8 <- 30        -0.00235
       8 <- 32         0.00054
       8 <- 33        -0.00016
       8 <- 38        -0.00049
       8 <- 39         0.00126
       8 <- 42         0.00078
       8 <- 47         0.00024

 Excited State   4:      Singlet-A1     5.7972 eV  213.87 nm  f=0.0021  <S**2>=0.000
       3 ->  9         0.00143
       3 -> 12        -0.00040
       3 -> 13         0.00021
       3 -> 16        -0.00086
       3 -> 18        -0.00167
       3 -> 20        -0.00015
       3 -> 21         0.00094
       3 -> 24        -0.00088
       3 -> 26        -0.00034
       3 -> 30         0.00065
       3 -> 32        -0.00081
       3 -> 33         0.00058
       3 -> 38         0.00044
       3 -> 39         0.00033
       3 -> 44        -0.00015
       3 -> 47         0.00010
       3 -> 51         0.00020
       4 -> 11        -0.00573
       4 -> 15        -0.00544
       4 -> 19        -0.00475
       4 -> 22        -0.00265
       4 -> 25        -0.00323
       4 -> 29        -0.00030
       4 -> 37        -0.00096
       4 -> 40        -0.00014
       4 -> 43         0.00021
       4 -> 46        -0.00011
       4 -> 50         0.00012
       5 -> 10        -0.00267
       5 -> 14        -0.00391
       5 -> 17         0.00147
       5 -> 23         0.00361
       5 -> 27        -0.00059
       5 -> 34        -0.00078
       5 -> 36        -0.00058
       5 -> 48         0.00014
       6 ->  9         0.01135
       6 -> 12         0.00649
       6 -> 13        -0.00352
       6 -> 16        -0.00520
       6 -> 18        -0.00687
       6 -> 20         0.00392
       6 -> 21         0.00207
       6 -> 24        -0.00535
       6 -> 26         0.00126
       6 -> 30        -0.00040
       6 -> 32         0.00226
       6 -> 33         0.00193
       6 -> 38         0.00150
       6 -> 39        -0.00110
       6 -> 42        -0.00023
       6 -> 44         0.00076
       6 -> 47         0.00016
       6 -> 49        -0.00040
       7 ->  9         0.00797
       7 -> 12        -0.01233
       7 -> 13         0.00020
       7 -> 16         0.00609
       7 -> 18        -0.00793
       7 -> 20        -0.00374
       7 -> 21        -0.00157
       7 -> 24         0.00100
       7 -> 26        -0.00375
       7 -> 30        -0.00087
       7 -> 32        -0.00169
       7 -> 33         0.00034
       7 -> 38        -0.00095
       7 -> 39         0.00050
       7 -> 42         0.00017
       7 -> 44        -0.00035
       7 -> 51        -0.00017
       8 -> 11         0.70448
       8 -> 15         0.05553
       8 -> 19        -0.02175
       8 -> 22        -0.00114
       8 -> 25         0.00890
       8 -> 29        -0.00317
       8 -> 31         0.00214
       8 -> 37        -0.00349
       8 -> 40        -0.00058
       8 -> 43         0.00188
       8 -> 46        -0.00107
       8 -> 50         0.00023
       3 <-  9         0.00084
       3 <- 12        -0.00019
       3 <- 13         0.00017
       3 <- 16        -0.00057
       3 <- 18        -0.00108
       3 <- 20        -0.00010
       3 <- 21         0.00067
       3 <- 24        -0.00067
       3 <- 26        -0.00027
       3 <- 30         0.00052
       3 <- 32        -0.00057
       3 <- 33         0.00048
       3 <- 38         0.00035
       3 <- 39         0.00027
       3 <- 44        -0.00014
       3 <- 47         0.00012
       3 <- 51         0.00017
       4 <- 11        -0.00249
       4 <- 15        -0.00232
       4 <- 19        -0.00280
       4 <- 22        -0.00187
       4 <- 25        -0.00183
       4 <- 29        -0.00025
       4 <- 37        -0.00080
       4 <- 40        -0.00013
       4 <- 43         0.00020
       4 <- 50         0.00011
       5 <- 10        -0.00157
       5 <- 14        -0.00239
       5 <- 17         0.00094
       5 <- 23         0.00258
       5 <- 27        -0.00043
       5 <- 34        -0.00065
       5 <- 36        -0.00050
       5 <- 48         0.00013
       6 <-  9         0.00820
       6 <- 12         0.00335
       6 <- 13        -0.00287
       6 <- 16        -0.00400
       6 <- 18        -0.00367
       6 <- 20         0.00211
       6 <- 21         0.00225
       6 <- 24        -0.00365
       6 <- 26         0.00086
       6 <- 32         0.00169
       6 <- 33         0.00139
       6 <- 38         0.00144
       6 <- 39        -0.00082
       6 <- 42        -0.00022
       6 <- 44         0.00073
       6 <- 49        -0.00034
       7 <-  9         0.00021
       7 <- 12        -0.00507
       7 <- 13         0.00118
       7 <- 16         0.00412
       7 <- 18        -0.00380
       7 <- 20        -0.00170
       7 <- 21        -0.00147
       7 <- 24         0.00077
       7 <- 26        -0.00255
       7 <- 30        -0.00081
       7 <- 32        -0.00129
       7 <- 33         0.00026
       7 <- 38        -0.00084
       7 <- 39         0.00026
       7 <- 44        -0.00034
       7 <- 47        -0.00011
       7 <- 51        -0.00015
       8 <- 11        -0.01265
       8 <- 15         0.00518
       8 <- 19        -0.01639
       8 <- 22        -0.00443
       8 <- 25         0.00454
       8 <- 29        -0.00242
       8 <- 31         0.00195
       8 <- 37        -0.00280
       8 <- 40        -0.00026
       8 <- 43         0.00153
       8 <- 46        -0.00100
       8 <- 50         0.00023

 Excited State   5:      Singlet-A2     8.3692 eV  148.14 nm  f=0.0000  <S**2>=0.000
       3 -> 28         0.00234
       3 -> 35         0.00138
       3 -> 45         0.00041
       4 -> 10        -0.00052
       4 -> 14        -0.00548
       4 -> 17        -0.00178
       4 -> 23         0.00298
       4 -> 27         0.00047
       4 -> 34         0.00055
       4 -> 36         0.00204
       4 -> 41        -0.00019
       4 -> 52         0.00021
       5 -> 15        -0.00016
       5 -> 19        -0.00046
       5 -> 22         0.00108
       5 -> 25        -0.00072
       5 -> 29        -0.00013
       5 -> 37         0.00037
       5 -> 40        -0.00017
       5 -> 43         0.00054
       5 -> 46         0.00036
       5 -> 50        -0.00012
       6 -> 28         0.00249
       6 -> 35        -0.00064
       7 -> 28        -0.00148
       7 -> 35         0.00030
       7 -> 45         0.00034
       8 -> 10         0.01373
       8 -> 14         0.70300
       8 -> 17         0.07267
       8 -> 23        -0.01766
       8 -> 27        -0.00193
       8 -> 34        -0.00269
       8 -> 36         0.00267
       8 -> 41        -0.00022
       8 -> 52        -0.00032
       3 <- 28         0.00164
       3 <- 35         0.00111
       3 <- 45         0.00044
       4 <- 10         0.00030
       4 <- 14        -0.00047
       4 <- 17        -0.00064
       4 <- 23         0.00023
       4 <- 27         0.00031
       4 <- 34        -0.00056
       4 <- 36         0.00080
       4 <- 41         0.00019
       5 <- 11         0.00042
       5 <- 15        -0.00011
       5 <- 19        -0.00022
       5 <- 22         0.00123
       5 <- 25        -0.00130
       5 <- 29        -0.00031
       5 <- 31        -0.00045
       5 <- 37         0.00090
       5 <- 43         0.00058
       5 <- 46         0.00011
       5 <- 54         0.00020
       6 <- 28         0.00258
       6 <- 35        -0.00060
       6 <- 45        -0.00014
       7 <- 28        -0.00132
       7 <- 45         0.00016
       8 <- 10         0.00396
       8 <- 14        -0.00150
       8 <- 17        -0.00468
       8 <- 23         0.00081
       8 <- 27         0.00041
       8 <- 34        -0.00296
       8 <- 36         0.00134
       8 <- 41        -0.00024
       8 <- 52        -0.00013

 The electronic state is 1-A1.
 Alpha  occ. eigenvalues --  -19.26121 -10.41895  -1.27330  -0.86808  -0.84091
 Alpha  occ. eigenvalues --   -0.58214  -0.52694  -0.19775
 Alpha virt. eigenvalues --    0.00355   0.02605   0.04425   0.04706   0.14234
 Alpha virt. eigenvalues --    0.15969   0.17806   0.18016   0.21872   0.22343
 Alpha virt. eigenvalues --    0.28212   0.36620   0.50676   0.57544   0.60730

 Mulliken charges:
               1
     1  C    0.227313
     2  H   -0.122875
     3  H   -0.122875
     4  O    0.018437
 Sum of Mulliken charges =   0.00000

 Dipole moment (field-independent basis, Debye):
    X=              0.0000    Y=              0.0000    Z=              1.5195  Tot=              1.5195
 Quadrupole moment (field-independent basis, Debye-Ang):
   XX=            -10.0833   YY=            -14.1022   ZZ=            -13.7077
   XY=             -0.0000   XZ=             -0.0000   YZ=             -0.0000

 Normal termination of Gaussian 16 at Fri Sep 17 10:52:19 2021.
