 Gaussian 16, Revision A.03,
 Gaussian 16:  ES64L-G16RevA.03 25-Dec-2016

 --------------------------------------------------------------------
 #p B3LYP/6-311+G** #p TD=(singlets,nstates=30)IOp(6/8=3) IOp(9/40=4)
 --------------------------------------------------------------------

 -------------------------------
 Scan Step 144, Bond Length 1.22
 -------------------------------
 Symbolic Z-matrix:
 Charge =  0 Multiplicity = 1

                         Standard orientation:
 ---------------------------------------------------------------------
 Center     Atomic      Atomic             Coordinates (Angstroms)
 Number     Number       Type             X           Y           Z
 ---------------------------------------------------------------------
      1          6           0        0.000000    0.000000   -0.536081
      2          1           0        0.000000    0.937260   -1.127431
      3          1           0       -0.000000   -0.937260   -1.127431
      4          8           0        0.000000   -0.000000    0.683919
 ---------------------------------------------------------------------

 SCF Done:  E(RB3LYP) =  -114.541231096     A.U. after    9 cycles

 Excitation energies and oscillator strengths:

 Excited State   1:      Singlet-A2     3.8552 eV  321.60 nm  f=0.0000  <S**2>=0.000
       3 -> 27         0.00244
       3 -> 38         0.00206
       3 -> 45         0.00251
       4 -> 27         0.00188
       4 -> 38        -0.00054
       4 -> 45        -0.00131
       5 ->  9         0.02088
       5 -> 13        -0.00301
       5 -> 17         0.00559
       5 -> 23        -0.00013
       5 -> 29         0.00437
       5 -> 31        -0.00222
       5 -> 37         0.00338
       5 -> 44         0.00061
       5 -> 47         0.00015
       5 -> 52         0.00076
       6 -> 27        -0.00013
       6 -> 38        -0.00084
       6 -> 45         0.00178
       7 -> 12        -0.00062
       7 -> 15         0.00287
       7 -> 18        -0.00281
       7 -> 22         0.00068
       7 -> 25         0.00143
       7 -> 30        -0.00093
       7 -> 33         0.00043
       7 -> 35        -0.00026
       7 -> 40         0.00024
       7 -> 42        -0.00011
       7 -> 49         0.00034
       7 -> 50         0.00032
       7 -> 53         0.00047
       8 ->  9         0.70549
       8 -> 13        -0.04239
       8 -> 17         0.02303
       8 -> 23        -0.01018
       8 -> 29         0.00916
       8 -> 31        -0.00251
       8 -> 37        -0.00010
       8 -> 44        -0.00012
       8 -> 47        -0.00025
       8 -> 52         0.00169
       3 <- 27         0.00158
       3 <- 38         0.00171
       3 <- 45         0.00260
       4 <- 27         0.00269
       4 <- 45        -0.00111
       5 <-  9        -0.00042
       5 <- 13        -0.00082
       5 <- 17        -0.00099
       5 <- 23         0.00054
       5 <- 29        -0.00067
       5 <- 31         0.00088
       5 <- 37         0.00161
       5 <- 44         0.00025
       5 <- 47         0.00016
       5 <- 52         0.00020
       6 <- 27         0.00044
       6 <- 38        -0.00075
       6 <- 45         0.00139
       7 <- 12        -0.00078
       7 <- 15        -0.00728
       7 <- 18         0.00033
       7 <- 22         0.00733
       7 <- 25        -0.00013
       7 <- 30         0.00345
       7 <- 33        -0.00131
       7 <- 35        -0.00238
       7 <- 40         0.00097
       7 <- 42         0.00010
       7 <- 49         0.00014
       7 <- 50         0.00021
       7 <- 53         0.00129
       8 <-  9        -0.02457
       8 <- 13         0.00300
       8 <- 17        -0.00437
       8 <- 23         0.00080
       8 <- 29        -0.00099
       8 <- 31        -0.00083
       8 <- 37        -0.00143
       8 <- 52         0.00048
 This state for optimization and/or second-order correction.
 Total Energy, E(TD-HF/TD-DFT) =  -114.399553408
 Copying the excited state density for this state as the 1-particle RhoCI density.

 Excited State   2:      Singlet-B2     6.8757 eV  180.32 nm  f=0.0287  <S**2>=0.000
       3 -> 12         0.00151
       3 -> 15         0.00071
       3 -> 18         0.00119
       3 -> 22        -0.00032
       3 -> 25         0.00128
       3 -> 33         0.00020
       3 -> 35         0.00041
       3 -> 40        -0.00010
       4 -> 12        -0.00312
       4 -> 15         0.00184
       4 -> 18         0.00206
       4 -> 22        -0.00332
       4 -> 25         0.00335
       4 -> 30         0.00030
       4 -> 33        -0.00049
       4 -> 35        -0.00060
       4 -> 40         0.00046
       4 -> 42        -0.00012
       5 -> 10        -0.00683
       5 -> 11        -0.00855
       5 -> 14         0.00700
       5 -> 16        -0.00083
       5 -> 19         0.00012
       5 -> 20         0.00233
       5 -> 21         0.00582
       5 -> 24         0.00011
       5 -> 26         0.00246
       5 -> 28         0.00119
       5 -> 32        -0.00091
       5 -> 34        -0.00101
       5 -> 36        -0.00019
       5 -> 39        -0.00029
       5 -> 41        -0.00036
       5 -> 43        -0.00054
       5 -> 46        -0.00033
       5 -> 54         0.00012
       6 -> 15         0.00151
       6 -> 18         0.00204
       6 -> 22        -0.00252
       6 -> 25         0.00117
       6 -> 30        -0.00052
       6 -> 33        -0.00022
       6 -> 35        -0.00038
       6 -> 40        -0.00013
       6 -> 42        -0.00019
       6 -> 49         0.00047
       6 -> 50        -0.00031
       7 -> 27         0.00017
       7 -> 38        -0.00057
       7 -> 45         0.00041
       8 -> 10         0.70297
       8 -> 11        -0.07123
       8 -> 14         0.01409
       8 -> 16        -0.00606
       8 -> 19         0.01043
       8 -> 20         0.01496
       8 -> 21        -0.00296
       8 -> 24         0.00016
       8 -> 26         0.00247
       8 -> 28         0.00076
       8 -> 32         0.00100
       8 -> 34         0.00121
       8 -> 36         0.00039
       8 -> 39         0.00037
       8 -> 41        -0.00019
       8 -> 43         0.00062
       8 -> 46        -0.00060
       8 -> 48        -0.00014
       8 -> 54         0.00019
       3 <- 12         0.00036
       3 <- 15         0.00054
       3 <- 18         0.00045
       3 <- 22        -0.00046
       3 <- 25         0.00075
       3 <- 30        -0.00011
       3 <- 33         0.00017
       3 <- 35         0.00037
       3 <- 40        -0.00013
       4 <- 12         0.00074
       4 <- 15         0.00192
       4 <- 18         0.00198
       4 <- 22        -0.00204
       4 <- 25         0.00230
       4 <- 30         0.00022
       4 <- 33        -0.00029
       4 <- 35        -0.00033
       4 <- 40         0.00014
       4 <- 42        -0.00023
       4 <- 50        -0.00012
       5 <- 10         0.00238
       5 <- 11        -0.00025
       5 <- 14         0.00484
       5 <- 16        -0.00072
       5 <- 20         0.00082
       5 <- 21         0.00208
       5 <- 24         0.00192
       5 <- 26         0.00153
       5 <- 28         0.00017
       5 <- 32        -0.00063
       5 <- 34        -0.00096
       5 <- 36        -0.00028
       5 <- 39        -0.00016
       5 <- 41        -0.00018
       5 <- 43        -0.00041
       5 <- 46        -0.00029
       6 <- 15        -0.00010
       6 <- 18         0.00117
       6 <- 22        -0.00070
       6 <- 25         0.00040
       6 <- 30         0.00030
       6 <- 33        -0.00028
       6 <- 35        -0.00047
       6 <- 40        -0.00013
       6 <- 42        -0.00018
       6 <- 49         0.00039
       6 <- 50        -0.00032
       6 <- 53         0.00014
       7 <- 27         0.00015
       7 <- 38        -0.00042
       7 <- 45         0.00037
       8 <- 10        -0.00174
       8 <- 11        -0.00052
       8 <- 14        -0.00537
       8 <- 16        -0.00041
       8 <- 19        -0.00011
       8 <- 20        -0.00059
       8 <- 21        -0.00186
       8 <- 24        -0.00225
       8 <- 26        -0.00070
       8 <- 28        -0.00055
       8 <- 32         0.00108
       8 <- 34         0.00026
       8 <- 36         0.00035
       8 <- 39         0.00029
       8 <- 43         0.00042
       8 <- 46        -0.00039

 Excited State   3:      Singlet-B2     7.6558 eV  161.95 nm  f=0.0258  <S**2>=0.000
       3 -> 12        -0.00031
       3 -> 15        -0.00083
       3 -> 18         0.00089
       3 -> 22         0.00043
       3 -> 25         0.00014
       3 -> 30         0.00218
       3 -> 33         0.00014
       3 -> 35         0.00050
       3 -> 40        -0.00045
       3 -> 49         0.00048
       3 -> 50        -0.00021
       4 -> 12         0.00269
       4 -> 15         0.00011
       4 -> 18         0.00231
       4 -> 22        -0.00149
       4 -> 25         0.00297
       4 -> 30        -0.00127
       4 -> 33         0.00050
       4 -> 35         0.00054
       4 -> 42        -0.00012
       4 -> 49         0.00024
       5 -> 10        -0.00693
       5 -> 11        -0.00014
       5 -> 14         0.00881
       5 -> 16        -0.00710
       5 -> 19        -0.00201
       5 -> 20        -0.00462
       5 -> 21         0.00168
       5 -> 24         0.00105
       5 -> 26         0.00111
       5 -> 28         0.00161
       5 -> 32        -0.00020
       5 -> 34        -0.00107
       5 -> 36        -0.00028
       5 -> 39         0.00041
       5 -> 41        -0.00073
       5 -> 43         0.00015
       5 -> 46         0.00089
       5 -> 51        -0.00041
       6 -> 12        -0.00304
       6 -> 15        -0.00171
       6 -> 18        -0.00086
       6 -> 22         0.00125
       6 -> 25         0.00016
       6 -> 30         0.00103
       6 -> 33        -0.00054
       6 -> 35        -0.00149
       6 -> 40         0.00105
       6 -> 49        -0.00115
       6 -> 50         0.00042
       6 -> 53         0.00011
       7 -> 38        -0.00091
       7 -> 45        -0.00181
       8 -> 10         0.07161
       8 -> 11         0.70253
       8 -> 14        -0.00534
       8 -> 16         0.01034
       8 -> 19        -0.03083
       8 -> 20         0.00547
       8 -> 21        -0.00290
       8 -> 24         0.00029
       8 -> 26        -0.00120
       8 -> 28         0.00130
       8 -> 32         0.00019
       8 -> 34        -0.00020
       8 -> 36        -0.00013
       8 -> 39        -0.00023
       8 -> 41        -0.00120
       8 -> 43         0.00032
       8 -> 46         0.00200
       8 -> 48         0.00013
       8 -> 51        -0.00098
       3 <- 12         0.00034
       3 <- 15        -0.00026
       3 <- 18         0.00092
       3 <- 25         0.00029
       3 <- 30         0.00122
       3 <- 33         0.00025
       3 <- 35         0.00054
       3 <- 40        -0.00041
       3 <- 49         0.00042
       3 <- 50        -0.00014
       3 <- 53        -0.00029
       4 <- 12         0.00033
       4 <- 15         0.00077
       4 <- 18         0.00055
       4 <- 22        -0.00115
       4 <- 25         0.00124
       4 <- 30        -0.00062
       4 <- 33         0.00046
       4 <- 35         0.00022
       4 <- 42        -0.00013
       4 <- 49         0.00018
       4 <- 50        -0.00010
       5 <- 10         0.00125
       5 <- 11        -0.00122
       5 <- 14         0.00263
       5 <- 16        -0.00043
       5 <- 19         0.00116
       5 <- 20        -0.00047
       5 <- 21         0.00076
       5 <- 24         0.00137
       5 <- 28         0.00070
       5 <- 32        -0.00102
       5 <- 36         0.00015
       5 <- 39         0.00011
       5 <- 41        -0.00076
       5 <- 46         0.00083
       5 <- 48         0.00014
       5 <- 51        -0.00030
       6 <- 12        -0.00031
       6 <- 15        -0.00078
       6 <- 18         0.00017
       6 <- 22         0.00075
       6 <- 25        -0.00012
       6 <- 30         0.00082
       6 <- 33        -0.00041
       6 <- 35        -0.00123
       6 <- 40         0.00081
       6 <- 49        -0.00094
       6 <- 50         0.00033
       7 <- 27         0.00024
       7 <- 38        -0.00073
       7 <- 45        -0.00152
       8 <- 10        -0.00071
       8 <- 11        -0.00106
       8 <- 14        -0.00367
       8 <- 16         0.00044
       8 <- 19         0.00445
       8 <- 20        -0.00079
       8 <- 21        -0.00201
       8 <- 24         0.00039
       8 <- 26        -0.00167
       8 <- 28         0.00038
       8 <- 32        -0.00116
       8 <- 34         0.00141
       8 <- 39        -0.00058
       8 <- 41        -0.00107
       8 <- 43         0.00016
       8 <- 46         0.00160
       8 <- 48         0.00026
       8 <- 51        -0.00066

 Excited State   4:      Singlet-A1     7.8649 eV  157.64 nm  f=0.0469  <S**2>=0.000
       3 -> 10         0.00201
       3 -> 11        -0.00072
       3 -> 14         0.00102
       3 -> 16        -0.00011
       3 -> 19        -0.00068
       3 -> 20         0.00204
       3 -> 21         0.00092
       3 -> 24        -0.00072
       3 -> 26         0.00123
       3 -> 28         0.00090
       3 -> 32         0.00010
       3 -> 34        -0.00070
       3 -> 36        -0.00017
       3 -> 41        -0.00020
       3 -> 46         0.00016
       3 -> 48         0.00031
       3 -> 51        -0.00018
       3 -> 54        -0.00019
       4 -> 10         0.00477
       4 -> 11         0.00522
       4 -> 14         0.00468
       4 -> 16         0.00051
       4 -> 19         0.00021
       4 -> 20         0.00361
       4 -> 21         0.00019
       4 -> 24         0.00703
       4 -> 26         0.00190
       4 -> 28        -0.00035
       4 -> 32        -0.00064
       4 -> 43         0.00016
       4 -> 46        -0.00020
       4 -> 51        -0.00014
       5 -> 12         0.00593
       5 -> 15         0.00268
       5 -> 18         0.00996
       5 -> 22        -0.00241
       5 -> 25         0.00539
       5 -> 30        -0.00023
       5 -> 33        -0.00018
       5 -> 35        -0.00075
       5 -> 50         0.00021
       5 -> 53        -0.00012
       6 -> 10         0.01170
       6 -> 11        -0.00240
       6 -> 14         0.00431
       6 -> 16         0.00051
       6 -> 19         0.00192
       6 -> 20         0.00340
       6 -> 24         0.00399
       6 -> 26        -0.00018
       6 -> 28        -0.00201
       6 -> 32        -0.00036
       6 -> 39         0.00015
       6 -> 43         0.00014
       6 -> 48        -0.00068
       6 -> 51         0.00019
       6 -> 54        -0.00011
       7 ->  9         0.02268
       7 -> 13         0.01117
       7 -> 17         0.00182
       7 -> 23         0.00520
       7 -> 29        -0.00068
       7 -> 31        -0.00093
       7 -> 37         0.00058
       7 -> 44         0.00064
       7 -> 47        -0.00033
       7 -> 52        -0.00011
       8 -> 12         0.70569
       8 -> 15        -0.00440
       8 -> 18         0.03007
       8 -> 22         0.00368
       8 -> 25         0.00414
       8 -> 30        -0.00021
       8 -> 33         0.00162
       8 -> 35         0.00197
       8 -> 40         0.00050
       8 -> 42         0.00015
       8 -> 49        -0.00045
       8 -> 50         0.00027
       8 -> 53        -0.00024
       3 <- 10         0.00063
       3 <- 11         0.00015
       3 <- 14         0.00054
       3 <- 16         0.00011
       3 <- 19        -0.00052
       3 <- 20         0.00092
       3 <- 21         0.00063
       3 <- 24        -0.00015
       3 <- 26         0.00082
       3 <- 28         0.00060
       3 <- 32         0.00022
       3 <- 34        -0.00048
       3 <- 36        -0.00013
       3 <- 41        -0.00013
       3 <- 46         0.00024
       3 <- 48         0.00025
       3 <- 51        -0.00016
       3 <- 54        -0.00017
       4 <- 10         0.00411
       4 <- 11         0.00113
       4 <- 14         0.00346
       4 <- 20         0.00208
       4 <- 24         0.00380
       4 <- 26         0.00117
       4 <- 32        -0.00080
       4 <- 34        -0.00033
       4 <- 39        -0.00013
       4 <- 43         0.00012
       4 <- 46        -0.00016
       4 <- 51        -0.00013
       5 <- 12         0.00271
       5 <- 15         0.00274
       5 <- 18         0.00350
       5 <- 22        -0.00089
       5 <- 25         0.00293
       5 <- 30        -0.00016
       5 <- 33        -0.00035
       5 <- 35        -0.00068
       5 <- 50         0.00012
       5 <- 53        -0.00011
       6 <- 10         0.00282
       6 <- 14         0.00164
       6 <- 16         0.00012
       6 <- 19         0.00047
       6 <- 20         0.00156
       6 <- 21        -0.00022
       6 <- 24         0.00194
       6 <- 28        -0.00131
       6 <- 32        -0.00039
       6 <- 34        -0.00013
       6 <- 41         0.00012
       6 <- 46        -0.00014
       6 <- 48        -0.00056
       6 <- 51         0.00023
       7 <-  9        -0.00037
       7 <- 13         0.00238
       7 <- 17         0.00026
       7 <- 23         0.00261
       7 <- 29        -0.00054
       7 <- 31        -0.00063
       7 <- 37         0.00045
       7 <- 44         0.00053
       7 <- 47        -0.00029
       8 <- 12        -0.00068
       8 <- 15        -0.00495
       8 <- 18        -0.00171
       8 <- 22         0.00054
       8 <- 25        -0.00155
       8 <- 30        -0.00083
       8 <- 33         0.00065
       8 <- 35         0.00079
       8 <- 40         0.00053
       8 <- 42         0.00015
       8 <- 49        -0.00046
       8 <- 50         0.00018
       8 <- 53        -0.00024

 Excited State   5:      Singlet-A2     8.3752 eV  148.04 nm  f=0.0000  <S**2>=0.000
       3 -> 27        -0.00043
       3 -> 38        -0.00038
       3 -> 45        -0.00020
       4 -> 27         0.00018
       4 -> 38         0.00046
       5 ->  9        -0.00463
       5 -> 13        -0.00506
       5 -> 17         0.00664
       5 -> 23        -0.00210
       5 -> 29        -0.00019
       5 -> 31         0.00137
       5 -> 37        -0.00091
       5 -> 44        -0.00019
       6 -> 27         0.00023
       6 -> 38         0.00029
       6 -> 45        -0.00020
       7 -> 12        -0.00011
       7 -> 15        -0.00190
       7 -> 18         0.00202
       7 -> 22        -0.00071
       7 -> 35         0.00012
       8 ->  9         0.04198
       8 -> 13         0.70529
       8 -> 17         0.02093
       8 -> 23         0.01640
       8 -> 29         0.00022
       8 -> 31         0.00165
       8 -> 37        -0.00037
       8 -> 47         0.00017
       3 <- 27        -0.00011
       3 <- 38        -0.00023
       3 <- 45        -0.00027
       5 <-  9        -0.00036
       5 <- 13        -0.00033
       5 <- 17         0.00050
       5 <- 37        -0.00019
       6 <- 38         0.00019
       7 <- 12        -0.00057
       7 <- 15        -0.00104
       7 <- 18         0.00077
       7 <- 22        -0.00089
       7 <- 25        -0.00042
       7 <- 30         0.00023
       7 <- 33         0.00035
       7 <- 35         0.00057
       7 <- 40        -0.00035
       8 <-  9         0.00152
       8 <- 13         0.00126
       8 <- 17         0.00024
       8 <- 23        -0.00014
       8 <- 37         0.00012

 Excited State   6:      Singlet-B1     8.8925 eV  139.43 nm  f=0.0010  <S**2>=0.000
       3 ->  9        -0.03290
       3 -> 13         0.00585
       3 -> 17        -0.00731
       3 -> 23         0.00445
       3 -> 29        -0.00287
       3 -> 44         0.00071
       3 -> 52         0.00112
       4 ->  9         0.01699
       4 -> 13        -0.00280
       4 -> 17         0.00106
       4 -> 23        -0.00248
       4 -> 31        -0.00273
       4 -> 37        -0.00034
       4 -> 44        -0.00012
       4 -> 47        -0.00166
       4 -> 52        -0.00100
       5 -> 27        -0.00189
       5 -> 38         0.00223

 The electronic state is 1-A1.
 Alpha  occ. eigenvalues --  -19.15222 -10.28183  -1.06715  -0.64818  -0.50441
 Alpha  occ. eigenvalues --   -0.46255  -0.40863  -0.28307
 Alpha virt. eigenvalues --   -0.06908   0.00726   0.03883   0.04252   0.06437
 Alpha virt. eigenvalues --    0.12845   0.17619   0.18614   0.21966   0.23264
 Alpha virt. eigenvalues --    0.26731   0.32478   0.45115   0.46198   0.50928

 Mulliken charges:
               1
     1  C    0.014412
     2  H    0.116220
     3  H    0.116220
     4  O   -0.246853
 Sum of Mulliken charges =   0.00000

 Dipole moment (field-independent basis, Debye):
    X=             -0.0000    Y=              0.0000    Z=             -2.5619  Tot=              2.5619
 Quadrupole moment (field-independent basis, Debye-Ang):
   XX=            -11.8033   YY=            -11.7362   ZZ=            -12.3935
   XY=              0.0000   XZ=              0.0000   YZ=             -0.0000

 Normal termination of Gaussian 16 at Fri Sep 17 10:52:45 2021.
