 Gaussian 16, Revision C.01,
 Gaussian 16:  ES64L-G16RevC.01  3-Jul-2019

 ----------------------------------------
 #P wB97XD/6-311+G* NoSymm #P Field=Z+214
 ----------------------------------------

 -------
 TitleMe
 -------
 Symbolic Z-matrix:
 Charge =  1 Multiplicity = 1

                          Input orientation:
 ---------------------------------------------------------------------
 Center     Atomic      Atomic             Coordinates (Angstroms)
 Number     Number       Type             X           Y           Z
 ---------------------------------------------------------------------
      1          6           0        0.519300    1.233000   -0.031900
      2          6           0        1.944500    1.269200   -0.036700
      3          6           0        2.620400    0.092800   -0.025000
      4          6           0       -0.196000    0.030100    0.001000
      5          1           0       -0.020700    2.174200   -0.043400
      6          1           0        2.482800    2.208900   -0.036100
      7          1           0       -1.277700    0.039900    0.011700
      8          7           0        4.092100    0.095900    0.036600
      9          8           0        4.639300   -1.021700    0.144600
     10          8           0        4.664900    1.198400   -0.023300
     11          6           0        0.494300   -1.167100    0.021000
     12          1           0       -0.032500   -2.114900    0.054500
     13          6           0        1.962900   -1.216500   -0.021100
     14          1           0        2.443600   -1.963100    0.615100
     15         35           0        2.173000   -1.949100   -1.906200
 ---------------------------------------------------------------------

 SCF Done:  E(RwB97XD) =  -3010.55453574     A.U. after   21 cycles

 Alpha  occ. eigenvalues -- -483.27900 -62.82856 -56.62614 -56.61964 -56.61939
 Alpha  occ. eigenvalues --  -19.45750 -19.45742 -14.85108 -10.57966 -10.56128
 Alpha  occ. eigenvalues --  -10.55963 -10.55391 -10.52190 -10.51618  -8.98612
 Alpha  occ. eigenvalues --   -6.81460  -6.79346  -6.79272  -2.91322  -2.90780
 Alpha  occ. eigenvalues --   -2.90721  -2.89032  -2.89031  -1.49407  -1.32386
 Alpha  occ. eigenvalues --   -1.21001  -1.11616  -1.10678  -1.02468  -0.98647
 Alpha  occ. eigenvalues --   -0.93919  -0.89369  -0.84153  -0.80052  -0.79347
 Alpha  occ. eigenvalues --   -0.79066  -0.76798  -0.75479  -0.74344  -0.70200
 Alpha  occ. eigenvalues --   -0.67253  -0.66322  -0.61239  -0.58072  -0.56873
 Alpha  occ. eigenvalues --   -0.56109  -0.55416  -0.52112  -0.51256
 Alpha virt. eigenvalues --   -0.28399  -0.19625  -0.14090  -0.12813  -0.11353
 Alpha virt. eigenvalues --   -0.09267  -0.09038  -0.06292  -0.05136  -0.04353
 Alpha virt. eigenvalues --   -0.02426  -0.01186   0.00264   0.00698   0.01421

 Mulliken charges:
               1
     1  C   -0.167098
     2  C    0.246613
     3  C   -0.023219
     4  C   -0.341111
     5  H    0.344138
     6  H    0.349316
     7  H    0.327644
     8  N   -0.287078
     9  O    0.088939
    10  O    0.070837
    11  C   -0.252867
    12  H    0.351811
    13  C   -0.442849
    14  H    0.342126
    15  Br   0.392798
 Sum of Mulliken charges =   1.00000

 Dipole moment (field-independent basis, Debye):
    X=              3.1236    Y=             -1.8014    Z=             -4.6509  Tot=              5.8850
 Quadrupole moment (field-independent basis, Debye-Ang):
   XX=            -67.8925   YY=            -49.7849   ZZ=            -57.6053
   XY=             -4.8015   XZ=            -10.5918   YZ=              6.2450

 Normal termination of Gaussian 16 at Thu May  2 14:20:54 2024.
