 Gaussian 16, Revision C.01,
 Gaussian 16:  ES64L-G16RevC.01  3-Jul-2019

 ----------------------------------------
 #P wB97XD/6-311+G* NoSymm #P Field=Z+272
 ----------------------------------------

 -------
 TitleMe
 -------
 Symbolic Z-matrix:
 Charge =  1 Multiplicity = 1

                          Input orientation:
 ---------------------------------------------------------------------
 Center     Atomic      Atomic             Coordinates (Angstroms)
 Number     Number       Type             X           Y           Z
 ---------------------------------------------------------------------
      1          6           0        0.029500    1.339700    0.068200
      2          6           0        1.434800    1.286700    0.006400
      3          6           0        2.111800    0.051100   -0.005400
      4          6           0        1.445100   -1.137200    0.031200
      5          6           0       -0.687900    0.168200    0.110000
      6          1           0       -0.471300    2.298400    0.078100
      7          1           0        2.027300    2.196500   -0.032200
      8          1           0        1.989700   -2.076400    0.023200
      9          1           0       -1.771600    0.180400    0.158200
     10          7           0        3.586400    0.051000   -0.067500
     11          8           0        4.147100   -1.059700   -0.088100
     12          8           0        4.145000    1.163900   -0.090100
     13          6           0       -0.023600   -1.145800    0.083500
     14          1           0       -0.436700   -1.872500    0.788900
     15         35           0       -0.535900   -1.869700   -1.740800
 ---------------------------------------------------------------------

 SCF Done:  E(RwB97XD) =  -3010.56101128     A.U. after   19 cycles

 Alpha  occ. eigenvalues -- -483.27409 -62.82357 -56.62124 -56.61449 -56.61449
 Alpha  occ. eigenvalues --  -19.44751 -19.44699 -14.84236 -10.56331 -10.55937
 Alpha  occ. eigenvalues --  -10.55862 -10.55610 -10.55469 -10.51809  -8.98108
 Alpha  occ. eigenvalues --   -6.80980  -6.78793  -6.78787  -2.90836  -2.90258
 Alpha  occ. eigenvalues --   -2.90251  -2.88505  -2.88504  -1.48498  -1.31482
 Alpha  occ. eigenvalues --   -1.21138  -1.12255  -1.10259  -1.01071  -0.99779
 Alpha  occ. eigenvalues --   -0.93839  -0.89616  -0.84114  -0.79630  -0.79295
 Alpha  occ. eigenvalues --   -0.78765  -0.77173  -0.74910  -0.74643  -0.70294
 Alpha  occ. eigenvalues --   -0.67954  -0.66251  -0.61330  -0.58240  -0.55903
 Alpha  occ. eigenvalues --   -0.55020  -0.54465  -0.51593  -0.51043
 Alpha virt. eigenvalues --   -0.27790  -0.20275  -0.16104  -0.13694  -0.12012
 Alpha virt. eigenvalues --   -0.11170  -0.10420  -0.07195  -0.06847  -0.05827
 Alpha virt. eigenvalues --   -0.03466  -0.01716  -0.00710   0.00057   0.00397

 Mulliken charges:
               1
     1  C   -0.535611
     2  C    0.407497
     3  C   -0.682912
     4  C    0.247018
     5  C   -0.091241
     6  H    0.331119
     7  H    0.369516
     8  H    0.370795
     9  H    0.345511
    10  N   -0.116448
    11  O    0.036245
    12  O    0.034149
    13  C   -0.449287
    14  H    0.307553
    15  Br   0.426097
 Sum of Mulliken charges =   1.00000

 Dipole moment (field-independent basis, Debye):
    X=             -1.5025    Y=             -1.6659    Z=             -4.8184  Tot=              5.3151
 Quadrupole moment (field-independent basis, Debye-Ang):
   XX=            -72.2469   YY=            -50.6170   ZZ=            -58.1561
   XY=              2.1020   XZ=             -1.1085   YZ=              5.6940

 Normal termination of Gaussian 16 at Wed May  1 15:30:36 2024.
