 Gaussian 16, Revision C.01,
 Gaussian 16:  ES64L-G16RevC.01  3-Jul-2019

 ----------------------------------------
 #P wB97XD/6-311+G* NoSymm #P Field=Y+252
 ----------------------------------------

 -------
 TitleMe
 -------
 Symbolic Z-matrix:
 Charge =  1 Multiplicity = 1

                          Input orientation:
 ---------------------------------------------------------------------
 Center     Atomic      Atomic             Coordinates (Angstroms)
 Number     Number       Type             X           Y           Z
 ---------------------------------------------------------------------
      1          6           0        0.029500    1.339700    0.068200
      2          6           0        1.434800    1.286700    0.006400
      3          6           0        2.111800    0.051100   -0.005400
      4          6           0        1.445100   -1.137200    0.031200
      5          6           0       -0.687900    0.168200    0.110000
      6          1           0       -0.471300    2.298400    0.078100
      7          1           0        2.027300    2.196500   -0.032200
      8          1           0        1.989700   -2.076400    0.023200
      9          1           0       -1.771600    0.180400    0.158200
     10          7           0        3.586400    0.051000   -0.067500
     11          8           0        4.147100   -1.059700   -0.088100
     12          8           0        4.145000    1.163900   -0.090100
     13          6           0       -0.023600   -1.145800    0.083500
     14          1           0       -0.436700   -1.872500    0.788900
     15         35           0       -0.535900   -1.869700   -1.740800
 ---------------------------------------------------------------------

 SCF Done:  E(RwB97XD) =  -3010.57734456     A.U. after   23 cycles

 Alpha  occ. eigenvalues -- -483.27707 -62.82669 -56.62411 -56.61777 -56.61767
 Alpha  occ. eigenvalues --  -19.45533 -19.45231 -14.84709 -10.57645 -10.56284
 Alpha  occ. eigenvalues --  -10.56107 -10.55159 -10.54935 -10.53921  -8.98427
 Alpha  occ. eigenvalues --   -6.81231  -6.79165  -6.79132  -2.91103  -2.90562
 Alpha  occ. eigenvalues --   -2.90535  -2.88884  -2.88883  -1.49079  -1.32078
 Alpha  occ. eigenvalues --   -1.21583  -1.12487  -1.11038  -1.01565  -1.00303
 Alpha  occ. eigenvalues --   -0.94278  -0.90090  -0.85052  -0.80379  -0.79701
 Alpha  occ. eigenvalues --   -0.79323  -0.77684  -0.75343  -0.74638  -0.71086
 Alpha  occ. eigenvalues --   -0.68190  -0.66583  -0.62264  -0.58655  -0.56801
 Alpha  occ. eigenvalues --   -0.55667  -0.54826  -0.51833  -0.51570
 Alpha virt. eigenvalues --   -0.28229  -0.20279  -0.19924  -0.15630  -0.14966
 Alpha virt. eigenvalues --   -0.11164  -0.09605  -0.09319  -0.07249  -0.05080
 Alpha virt. eigenvalues --   -0.04634  -0.02924  -0.01454  -0.00924  -0.00500

 Mulliken charges:
               1
     1  C   -0.617196
     2  C    0.682403
     3  C   -0.872279
     4  C    0.418275
     5  C   -0.114496
     6  H    0.219431
     7  H    0.266010
     8  H    0.450778
     9  H    0.344830
    10  N   -0.099545
    11  O    0.160632
    12  O   -0.111024
    13  C   -0.549251
    14  H    0.466261
    15  Br   0.355170
 Sum of Mulliken charges =   1.00000

 Dipole moment (field-independent basis, Debye):
    X=             -1.6172    Y=             -7.9316    Z=             -1.0331  Tot=              8.1605
 Quadrupole moment (field-independent basis, Debye-Ang):
   XX=            -72.4898   YY=            -49.5515   ZZ=            -60.6330
   XY=             -6.7701   XZ=              1.9456   YZ=              5.0587

 Normal termination of Gaussian 16 at Wed May  1 15:14:17 2024.
