 Gaussian 16, Revision C.01,
 Gaussian 16:  ES64L-G16RevC.01  3-Jul-2019

 ---------------------------------------
 #P wB97XD/6-311+G* NoSymm #P Field=Y-38
 ---------------------------------------

 -------
 TitleMe
 -------
 Symbolic Z-matrix:
 Charge =  1 Multiplicity = 1

                          Input orientation:
 ---------------------------------------------------------------------
 Center     Atomic      Atomic             Coordinates (Angstroms)
 Number     Number       Type             X           Y           Z
 ---------------------------------------------------------------------
      1          6           0        0.519300    1.233000   -0.031900
      2          6           0        1.944500    1.269200   -0.036700
      3          6           0        2.620400    0.092800   -0.025000
      4          6           0       -0.196000    0.030100    0.001000
      5          1           0       -0.020700    2.174200   -0.043400
      6          1           0        2.482800    2.208900   -0.036100
      7          1           0       -1.277700    0.039900    0.011700
      8          7           0        4.092100    0.095900    0.036600
      9          8           0        4.639300   -1.021700    0.144600
     10          8           0        4.664900    1.198400   -0.023300
     11          6           0        0.494300   -1.167100    0.021000
     12          1           0       -0.032500   -2.114900    0.054500
     13          6           0        1.962900   -1.216500   -0.021100
     14          1           0        2.443600   -1.963100    0.615100
     15         35           0        2.173000   -1.949100   -1.906200
 ---------------------------------------------------------------------

 SCF Done:  E(RwB97XD) =  -3010.53138445     A.U. after   19 cycles

 Alpha  occ. eigenvalues -- -483.31614 -62.86643 -56.66330 -56.65769 -56.65760
 Alpha  occ. eigenvalues --  -19.46238 -19.46175 -14.85639 -10.59227 -10.58455
 Alpha  occ. eigenvalues --  -10.57489 -10.56924 -10.53229 -10.52822  -9.02453
 Alpha  occ. eigenvalues --   -6.85115  -6.83271  -6.83246  -2.95023  -2.94536
 Alpha  occ. eigenvalues --   -2.94515  -2.93040  -2.93039  -1.49898  -1.32856
 Alpha  occ. eigenvalues --   -1.22556  -1.12974  -1.12562  -1.05035  -1.00424
 Alpha  occ. eigenvalues --   -0.95450  -0.90629  -0.84997  -0.80930  -0.80236
 Alpha  occ. eigenvalues --   -0.80052  -0.78002  -0.76179  -0.75673  -0.72132
 Alpha  occ. eigenvalues --   -0.68607  -0.67576  -0.63439  -0.60061  -0.57435
 Alpha  occ. eigenvalues --   -0.56970  -0.56571  -0.55899  -0.54851
 Alpha virt. eigenvalues --   -0.30232  -0.20367  -0.15985  -0.13124  -0.09241
 Alpha virt. eigenvalues --   -0.06206  -0.05777  -0.05151  -0.04276  -0.03159
 Alpha virt. eigenvalues --   -0.02535  -0.02026  -0.01825  -0.01099  -0.00068

 Mulliken charges:
               1
     1  C   -0.111715
     2  C    0.185999
     3  C   -0.068123
     4  C   -0.323401
     5  H    0.361045
     6  H    0.364554
     7  H    0.331691
     8  N   -0.238602
     9  O    0.067397
    10  O    0.091727
    11  C   -0.206414
    12  H    0.342796
    13  C   -0.354099
    14  H    0.401984
    15  Br   0.155162
 Sum of Mulliken charges =   1.00000

 Dipole moment (field-independent basis, Debye):
    X=              2.7256    Y=              0.2092    Z=             -0.5997  Tot=              2.7986
 Quadrupole moment (field-independent basis, Debye-Ang):
   XX=            -67.9082   YY=            -51.7303   ZZ=            -62.5754
   XY=             -0.6459   XZ=             -2.2312   YZ=              1.8698

 Normal termination of Gaussian 16 at Thu May  2 14:18:10 2024.
