 Gaussian 16, Revision C.01,
 Gaussian 16:  ES64L-G16RevC.01  3-Jul-2019

 ---------------------------------------
 #P wB97XD/6-311+G* NoSymm #P Field=Y+29
 ---------------------------------------

 -------
 TitleMe
 -------
 Symbolic Z-matrix:
 Charge =  1 Multiplicity = 1

                          Input orientation:
 ---------------------------------------------------------------------
 Center     Atomic      Atomic             Coordinates (Angstroms)
 Number     Number       Type             X           Y           Z
 ---------------------------------------------------------------------
      1          6           0        0.519300    1.233000   -0.031900
      2          6           0        1.944500    1.269200   -0.036700
      3          6           0        2.620400    0.092800   -0.025000
      4          6           0       -0.196000    0.030100    0.001000
      5          1           0       -0.020700    2.174200   -0.043400
      6          1           0        2.482800    2.208900   -0.036100
      7          1           0       -1.277700    0.039900    0.011700
      8          7           0        4.092100    0.095900    0.036600
      9          8           0        4.639300   -1.021700    0.144600
     10          8           0        4.664900    1.198400   -0.023300
     11          6           0        0.494300   -1.167100    0.021000
     12          1           0       -0.032500   -2.114900    0.054500
     13          6           0        1.962900   -1.216500   -0.021100
     14          1           0        2.443600   -1.963100    0.615100
     15         35           0        2.173000   -1.949100   -1.906200
 ---------------------------------------------------------------------

 SCF Done:  E(RwB97XD) =  -3010.53342351     A.U. after   19 cycles

 Alpha  occ. eigenvalues -- -483.30593 -62.85607 -56.65309 -56.64730 -56.64717
 Alpha  occ. eigenvalues --  -19.46180 -19.46108 -14.85565 -10.59043 -10.57508
 Alpha  occ. eigenvalues --  -10.56968 -10.56811 -10.53326 -10.52521  -9.01407
 Alpha  occ. eigenvalues --   -6.84109  -6.82208  -6.82170  -2.94007  -2.93510
 Alpha  occ. eigenvalues --   -2.93478  -2.91958  -2.91957  -1.49832  -1.32793
 Alpha  occ. eigenvalues --   -1.22159  -1.12616  -1.12149  -1.04381  -1.00038
 Alpha  occ. eigenvalues --   -0.95090  -0.90368  -0.84791  -0.80750  -0.79948
 Alpha  occ. eigenvalues --   -0.79923  -0.77688  -0.76089  -0.75343  -0.71679
 Alpha  occ. eigenvalues --   -0.68289  -0.67376  -0.63078  -0.59462  -0.57300
 Alpha  occ. eigenvalues --   -0.56581  -0.55856  -0.55534  -0.54123
 Alpha virt. eigenvalues --   -0.29782  -0.20259  -0.15185  -0.12855  -0.08736
 Alpha virt. eigenvalues --   -0.06026  -0.05519  -0.04480  -0.04143  -0.03154
 Alpha virt. eigenvalues --   -0.02174  -0.01177  -0.00677  -0.00219   0.00890

 Mulliken charges:
               1
     1  C   -0.107927
     2  C    0.182922
     3  C   -0.080378
     4  C   -0.341045
     5  H    0.333162
     6  H    0.339046
     7  H    0.329866
     8  N   -0.241172
     9  O    0.104476
    10  O    0.053133
    11  C   -0.199110
    12  H    0.367029
    13  C   -0.363148
    14  H    0.418219
    15  Br   0.204926
 Sum of Mulliken charges =   1.00000

 Dipole moment (field-independent basis, Debye):
    X=              2.8251    Y=             -1.7564    Z=             -0.8674  Tot=              3.4378
 Quadrupole moment (field-independent basis, Debye-Ang):
   XX=            -67.8091   YY=            -50.7185   ZZ=            -61.8533
   XY=             -4.7460   XZ=             -2.8160   YZ=              2.9075

 Normal termination of Gaussian 16 at Thu May  2 14:18:39 2024.
