 Gaussian 16, Revision A.03,
 Gaussian 16:  ES64L-G16RevA.03 25-Dec-2016

 --------------------------------------------------------------------
 #p B3LYP/6-311+G** #p TD=(singlets,nstates=30)IOp(6/8=3) IOp(9/40=4)
 --------------------------------------------------------------------

 --------------------------------
 Scan Step 257, Bond Length 1.785
 --------------------------------
 Symbolic Z-matrix:
 Charge =  0 Multiplicity = 1

                         Standard orientation:
 ---------------------------------------------------------------------
 Center     Atomic      Atomic             Coordinates (Angstroms)
 Number     Number       Type             X           Y           Z
 ---------------------------------------------------------------------
      1          6           0        0.000000    0.000000   -0.818581
      2          1           0        0.000000    0.937260   -1.409931
      3          1           0       -0.000000   -0.937260   -1.409931
      4          8           0        0.000000   -0.000000    0.966419
 ---------------------------------------------------------------------

 SCF Done:  E(RB3LYP) =  -114.361594125     A.U. after   12 cycles

 Excitation energies and oscillator strengths:

 Excited State   1:      Singlet-A2     1.4051 eV  882.41 nm  f=0.0000  <S**2>=0.000
       3 -> 27         0.00079
       3 -> 38         0.00051
       3 -> 46         0.00335
       4 -> 27         0.00044
       4 -> 46        -0.00104
       5 ->  9         0.00261
       5 -> 13         0.00111
       5 -> 18         0.00190
       5 -> 23         0.00144
       5 -> 28         0.00152
       5 -> 37         0.00084
       5 -> 44         0.00023
       5 -> 52         0.00020
       6 -> 27        -0.00059
       6 -> 38        -0.00061
       6 -> 46         0.00102
       7 -> 12        -0.00120
       7 -> 16         0.00522
       7 -> 19        -0.00455
       7 -> 22        -0.00108
       7 -> 25        -0.00064
       7 -> 29        -0.00184
       7 -> 33         0.00029
       7 -> 49         0.00013
       7 -> 53         0.00040
       8 ->  9         0.71029
       8 -> 13        -0.00784
       8 -> 18         0.02101
       8 -> 23        -0.00135
       8 -> 28         0.01050
       8 -> 31         0.00157
       8 -> 37         0.00052
       8 -> 48        -0.00030
       8 -> 52         0.00188
       3 <- 27         0.00025
       3 <- 38         0.00028
       3 <- 46         0.00338
       4 <- 27         0.00080
       4 <- 38         0.00020
       4 <- 46        -0.00082
       5 <-  9         0.00023
       5 <- 13        -0.00037
       5 <- 18        -0.00044
       5 <- 23         0.00018
       5 <- 28        -0.00031
       5 <- 31         0.00024
       5 <- 37         0.00049
       6 <- 38        -0.00047
       6 <- 46         0.00076
       7 <- 12         0.00157
       7 <- 16        -0.01052
       7 <- 19         0.00523
       7 <- 22         0.00601
       7 <- 25        -0.00063
       7 <- 29         0.00558
       7 <- 33        -0.00036
       7 <- 35         0.00026
       7 <- 40        -0.00017
       7 <- 42         0.00014
       7 <- 49        -0.00048
       7 <- 53         0.00146
       8 <-  9        -0.07025
       8 <- 13        -0.00027
       8 <- 18        -0.00753
       8 <- 23        -0.00024
       8 <- 28        -0.00270
       8 <- 31        -0.00078
       8 <- 37        -0.00024
       8 <- 48         0.00013
       8 <- 52         0.00046
 This state for optimization and/or second-order correction.
 Total Energy, E(TD-HF/TD-DFT) =  -114.309958777
 Copying the excited state density for this state as the 1-particle RhoCI density.

 Excited State   2:      Singlet-A1     3.6916 eV  335.85 nm  f=0.0379  <S**2>=0.000
       3 -> 10        -0.01614
       3 -> 11        -0.00415
       3 -> 14         0.00263
       3 -> 15         0.00086
       3 -> 17        -0.00318
       3 -> 20        -0.00373
       3 -> 21         0.00024
       3 -> 24         0.00084
       3 -> 26         0.00178
       3 -> 30        -0.00096
       3 -> 32         0.00277
       3 -> 34        -0.00123
       3 -> 36        -0.00107
       3 -> 39         0.00050
       3 -> 43         0.00053
       3 -> 45        -0.00082
       3 -> 47         0.00231
       3 -> 50         0.00147
       4 -> 10        -0.00280
       4 -> 11         0.01135
       4 -> 14         0.00235
       4 -> 15        -0.00828
       4 -> 17         0.00243
       4 -> 20         0.00266
       4 -> 21         0.00032
       4 -> 24        -0.00400
       4 -> 26         0.00369
       4 -> 30         0.00055
       4 -> 32        -0.00130
       4 -> 34         0.00092
       4 -> 36         0.00022
       4 -> 39         0.00015
       4 -> 43        -0.00050
       4 -> 45         0.00079
       4 -> 47        -0.00085
       4 -> 50        -0.00030
       4 -> 54         0.00015
       5 -> 12         0.01099
       5 -> 16         0.00395
       5 -> 19         0.00125
       5 -> 22         0.00714
       5 -> 25        -0.00530
       5 -> 29         0.00031
       5 -> 33        -0.00255
       5 -> 35         0.00276
       5 -> 40        -0.00111
       5 -> 42         0.00093
       5 -> 49         0.00021
       5 -> 51        -0.00082
       6 -> 10         0.23874
       6 -> 11         0.04632
       6 -> 14        -0.05240
       6 -> 15        -0.02768
       6 -> 17        -0.01672
       6 -> 20        -0.00293
       6 -> 21         0.00685
       6 -> 24        -0.00903
       6 -> 26        -0.00384
       6 -> 30        -0.00525
       6 -> 32         0.00323
       6 -> 34        -0.00139
       6 -> 36         0.00030
       6 -> 39         0.00124
       6 -> 41        -0.00016
       6 -> 43         0.00084
       6 -> 45        -0.00085
       6 -> 47         0.00087
       6 -> 50         0.00063
       6 -> 54        -0.00092
       7 ->  9         0.67779
       7 -> 13        -0.00586
       7 -> 18        -0.01189
       7 -> 23        -0.00224
       7 -> 28         0.00081
       7 -> 31        -0.00326
       7 -> 37         0.00127
       7 -> 44        -0.00098
       7 -> 48         0.00014
       7 -> 52         0.00106
       8 -> 12        -0.00776
       8 -> 16         0.04218
       8 -> 19        -0.01975
       8 -> 22        -0.01503
       8 -> 29        -0.00879
       8 -> 33         0.00115
       8 -> 35        -0.00099
       8 -> 40         0.00042
       8 -> 42        -0.00031
       8 -> 49         0.00022
       8 -> 51         0.00016
       8 -> 53        -0.00054
       3 <- 10        -0.01232
       3 <- 11        -0.00353
       3 <- 14         0.00217
       3 <- 15         0.00028
       3 <- 17        -0.00178
       3 <- 20        -0.00311
       3 <- 21        -0.00022
       3 <- 24         0.00028
       3 <- 26         0.00075
       3 <- 30        -0.00047
       3 <- 32         0.00246
       3 <- 34        -0.00066
       3 <- 36        -0.00103
       3 <- 39         0.00046
       3 <- 43         0.00060
       3 <- 45        -0.00097
       3 <- 47         0.00233
       3 <- 50         0.00146
       4 <- 10        -0.00066
       4 <- 11         0.00804
       4 <- 14         0.00165
       4 <- 15        -0.00552
       4 <- 17         0.00142
       4 <- 20         0.00295
       4 <- 21         0.00015
       4 <- 24        -0.00299
       4 <- 26         0.00319
       4 <- 32        -0.00144
       4 <- 34         0.00077
       4 <- 36         0.00051
       4 <- 39         0.00015
       4 <- 43        -0.00045
       4 <- 45         0.00076
       4 <- 47        -0.00053
       4 <- 50        -0.00016
       4 <- 54         0.00012
       5 <- 12         0.00627
       5 <- 16         0.00248
       5 <- 19         0.00097
       5 <- 22         0.00500
       5 <- 25        -0.00404
       5 <- 29         0.00034
       5 <- 33        -0.00210
       5 <- 35         0.00236
       5 <- 40        -0.00100
       5 <- 42         0.00081
       5 <- 49         0.00020
       5 <- 51        -0.00077
       6 <- 10         0.08004
       6 <- 11         0.01829
       6 <- 14        -0.02434
       6 <- 15        -0.01416
       6 <- 17        -0.00970
       6 <- 20        -0.00306
       6 <- 21         0.00459
       6 <- 24        -0.00590
       6 <- 26        -0.00206
       6 <- 30        -0.00362
       6 <- 32         0.00330
       6 <- 34        -0.00158
       6 <- 36        -0.00020
       6 <- 39         0.00115
       6 <- 41        -0.00014
       6 <- 43         0.00070
       6 <- 45        -0.00064
       6 <- 47         0.00050
       6 <- 50         0.00049
       6 <- 54        -0.00083
       7 <-  9        -0.13072
       7 <- 13         0.00417
       7 <- 18        -0.01192
       7 <- 23         0.00129
       7 <- 28        -0.00212
       7 <- 31        -0.00159
       7 <- 37         0.00059
       7 <- 44        -0.00075
       7 <- 48        -0.00038
       7 <- 52         0.00096
       8 <- 12        -0.00290
       8 <- 16         0.01988
       8 <- 19        -0.01083
       8 <- 22        -0.00959
       8 <- 25         0.00011
       8 <- 29        -0.00691
       8 <- 33         0.00090
       8 <- 35        -0.00078
       8 <- 40         0.00034
       8 <- 42        -0.00025
       8 <- 51         0.00014
       8 <- 53        -0.00050

 Excited State   3:      Singlet-B1     4.1631 eV  297.82 nm  f=0.0006  <S**2>=0.000
       3 ->  9        -0.02433
       3 -> 13         0.00100
       3 -> 18        -0.00383
       3 -> 23         0.00130
       3 -> 28        -0.00084
       3 -> 31        -0.00065
       3 -> 37         0.00013
       3 -> 44         0.00031
       3 -> 48         0.00065
       3 -> 52         0.00078
       4 ->  9         0.00903
       4 -> 13        -0.00203
       4 -> 18         0.00013
       4 -> 23        -0.00182
       4 -> 28         0.00046
       4 -> 31        -0.00126
       4 -> 37        -0.00029
       4 -> 48        -0.00064
       4 -> 52        -0.00036
       5 -> 38         0.00172
       5 -> 46         0.00051
       6 ->  9         0.68153
       6 -> 13        -0.01730
       6 -> 18         0.01450
       6 -> 23        -0.01025
       6 -> 28         0.00359
       6 -> 31         0.00240
       6 -> 37        -0.00162
       6 -> 44        -0.00199
       6 -> 48         0.00351
       6 -> 52         0.00106
       7 -> 10         0.19068
       7 -> 11         0.02622
       7 -> 14        -0.02442
       7 -> 15        -0.00771
       7 -> 17        -0.00956
       7 -> 20         0.00365
       7 -> 21         0.00148
       7 -> 24        -0.00238
       7 -> 26        -0.00268
       7 -> 30        -0.00450
       7 -> 34        -0.00069
       7 -> 36         0.00148
       7 -> 39         0.00018
       7 -> 41        -0.00022
       7 -> 43         0.00048
       7 -> 45        -0.00049
       7 -> 47         0.00367
       7 -> 50         0.00122
       8 -> 27         0.00014
       8 -> 46         0.00452
       3 <-  9        -0.00819
       3 <- 13        -0.00084
       3 <- 18        -0.00257
       3 <- 23        -0.00056
       3 <- 28        -0.00046
       3 <- 31        -0.00076
       3 <- 37         0.00016
       3 <- 48         0.00076
       3 <- 52         0.00070
       4 <-  9         0.00555
       4 <- 13        -0.00037
       4 <- 18         0.00150
       4 <- 23        -0.00069
       4 <- 28         0.00142
       4 <- 31        -0.00088
       4 <- 37        -0.00018
       4 <- 48        -0.00057
       4 <- 52        -0.00019
       5 <- 27        -0.00049
       5 <- 38         0.00148
       5 <- 46         0.00045
       6 <-  9        -0.03669
       6 <- 13         0.00203
       6 <- 18        -0.00447
       6 <- 28        -0.00390
       6 <- 31         0.00027
       6 <- 37        -0.00133
       6 <- 44        -0.00068
       6 <- 48         0.00315
       6 <- 52         0.00011
       7 <- 10        -0.04195
       7 <- 11        -0.00946
       7 <- 14         0.01366
       7 <- 15         0.00877
       7 <- 17         0.00278
       7 <- 20         0.00325
       7 <- 21        -0.00347
       7 <- 24         0.00417
       7 <- 26         0.00175
       7 <- 30         0.00191
       7 <- 32         0.00036
       7 <- 34        -0.00102
       7 <- 36         0.00158
       7 <- 39         0.00058
       7 <- 41         0.00013
       7 <- 43         0.00027
       7 <- 45        -0.00026
       7 <- 47         0.00341
       7 <- 50         0.00130
       7 <- 54         0.00087
       8 <- 27         0.00060
       8 <- 38         0.00013
       8 <- 46         0.00423

 Excited State   4:      Singlet-B2     4.1724 eV  297.15 nm  f=0.0036  <S**2>=0.000
       3 -> 12        -0.00131
       3 -> 16         0.00153
       3 -> 19        -0.00421
       3 -> 22         0.00098
       3 -> 25        -0.00083
       3 -> 29        -0.00284
       3 -> 33         0.00013
       3 -> 35         0.00165
       3 -> 40        -0.00148
       3 -> 42         0.00052
       3 -> 49        -0.00368
       3 -> 51         0.00019
       3 -> 53         0.00029
       4 -> 12         0.00043
       4 -> 16        -0.00174
       4 -> 19         0.00041
       4 -> 22         0.00204
       4 -> 25         0.00084
       4 -> 29         0.00107
       4 -> 33        -0.00038
       4 -> 35         0.00046
       4 -> 40         0.00035
       4 -> 42        -0.00012
       4 -> 49         0.00070
       4 -> 51        -0.00011
       5 -> 10         0.01073
       5 -> 11         0.00186
       5 -> 14        -0.00472
       5 -> 15         0.00367
       5 -> 17        -0.00044
       5 -> 20         0.00206
       5 -> 21         0.00373
       5 -> 24         0.00156
       5 -> 26        -0.00078
       5 -> 30        -0.00203
       5 -> 32        -0.00168
       5 -> 34         0.00043
       5 -> 39        -0.00078
       5 -> 41         0.00048
       5 -> 47        -0.00051
       5 -> 50         0.00032
       5 -> 54        -0.00021
       6 -> 12         0.00259
       6 -> 16        -0.00259
       6 -> 19         0.00399
       6 -> 22        -0.00056
       6 -> 25         0.00109
       6 -> 35        -0.00146
       6 -> 40         0.00106
       6 -> 42        -0.00068
       6 -> 49         0.00139
       6 -> 53        -0.00045
       7 -> 27        -0.00060
       7 -> 38         0.00044
       7 -> 46         0.00333
       8 -> 10         0.69902
       8 -> 11         0.08059
       8 -> 14        -0.07026
       8 -> 15        -0.02757
       8 -> 17        -0.01644
       8 -> 20         0.00347
       8 -> 21         0.00677
       8 -> 24        -0.00633
       8 -> 26        -0.00490
       8 -> 30        -0.01236
       8 -> 32        -0.00294
       8 -> 34         0.00144
       8 -> 36         0.00108
       8 -> 39        -0.00066
       8 -> 41        -0.00012
       8 -> 45        -0.00094
       8 -> 47        -0.00412
       8 -> 50         0.00171
       8 -> 54        -0.00234
       3 <- 12        -0.00047
       3 <- 16         0.00050
       3 <- 19        -0.00205
       3 <- 22         0.00095
       3 <- 25        -0.00075
       3 <- 29        -0.00114
       3 <- 33         0.00014
       3 <- 35         0.00115
       3 <- 40        -0.00128
       3 <- 42         0.00040
       3 <- 49        -0.00375
       3 <- 51         0.00017
       3 <- 53         0.00079
       4 <- 16        -0.00186
       4 <- 19         0.00016
       4 <- 22         0.00227
       4 <- 25         0.00050
       4 <- 29         0.00122
       4 <- 33        -0.00041
       4 <- 35         0.00067
       4 <- 40         0.00014
       4 <- 49         0.00050
       5 <- 10        -0.00086
       5 <- 11        -0.00085
       5 <- 14        -0.00057
       5 <- 15         0.00285
       5 <- 17         0.00020
       5 <- 20         0.00077
       5 <- 21         0.00180
       5 <- 24         0.00183
       5 <- 26        -0.00020
       5 <- 30        -0.00043
       5 <- 32        -0.00032
       5 <- 39        -0.00033
       5 <- 41         0.00051
       5 <- 45        -0.00027
       5 <- 47        -0.00049
       5 <- 50         0.00017
       6 <- 12        -0.00055
       6 <- 16         0.00731
       6 <- 19        -0.00372
       6 <- 22        -0.00505
       6 <- 25         0.00107
       6 <- 29        -0.00589
       6 <- 33         0.00029
       6 <- 35        -0.00134
       6 <- 40         0.00108
       6 <- 42        -0.00073
       6 <- 49         0.00182
       6 <- 53        -0.00137
       7 <- 27        -0.00059
       7 <- 38         0.00035
       7 <- 46         0.00284
       8 <- 10        -0.03612
       8 <- 11        -0.00816
       8 <- 14         0.00867
       8 <- 15         0.00241
       8 <- 17         0.00150
       8 <- 20        -0.00304
       8 <- 21        -0.00161
       8 <- 24         0.00160
       8 <- 26         0.00143
       8 <- 30         0.00074
       8 <- 32         0.00306
       8 <- 34        -0.00095
       8 <- 36        -0.00068
       8 <- 39         0.00127
       8 <- 41         0.00029
       8 <- 43         0.00048
       8 <- 45        -0.00171
       8 <- 47        -0.00334
       8 <- 50         0.00127
       8 <- 54        -0.00063

 Excited State   5:      Singlet-B1     5.0030 eV  247.82 nm  f=0.0073  <S**2>=0.000
       3 ->  9        -0.00750
       3 -> 13         0.00033
       3 -> 18        -0.00239
       3 -> 23         0.00056
       3 -> 28        -0.00278
       3 -> 31        -0.00151
       3 -> 37         0.00011
       3 -> 44         0.00027
       3 -> 48        -0.00291
       3 -> 52        -0.00015
       4 ->  9        -0.03106
       4 -> 13         0.00605
       4 -> 18         0.00103
       4 -> 23         0.00462
       4 -> 28         0.00130
       4 -> 31         0.00019
       4 -> 37         0.00033
       4 -> 44        -0.00045
       4 -> 48         0.00079
       4 -> 52         0.00015
       5 -> 27        -0.00662
       5 -> 38        -0.00334
       5 -> 46         0.00027
       6 ->  9        -0.19104
       6 -> 13         0.00065
       6 -> 18         0.00095
       6 -> 23         0.00095
       6 -> 28         0.00303
       6 -> 31        -0.00379
       6 -> 37         0.00225
       6 -> 44         0.00060
       6 -> 52        -0.00073
       7 -> 10         0.67381
       7 -> 11         0.06740
       7 -> 14        -0.06195
       7 -> 15        -0.03348
       7 -> 17        -0.00940
       7 -> 20        -0.00287
       7 -> 21         0.00355
       7 -> 24        -0.00961
       7 -> 26        -0.00624
       7 -> 30        -0.00725
       7 -> 32        -0.00183
       7 -> 34         0.00378
       7 -> 36        -0.00144
       7 -> 39        -0.00063
       7 -> 43         0.00058
       7 -> 45        -0.00096
       7 -> 47         0.00116
       7 -> 50         0.00055
       7 -> 54        -0.00163
       8 -> 27         0.00072
       8 -> 38         0.00022
       8 -> 46         0.00141
       3 <-  9        -0.00158
       3 <- 13         0.00068
       3 <- 18        -0.00091
       3 <- 23         0.00060
       3 <- 28        -0.00186
       3 <- 31        -0.00022
       3 <- 37        -0.00022
       3 <- 48        -0.00305
       3 <- 52         0.00030
       4 <-  9        -0.01292
       4 <- 13         0.00272
       4 <- 18         0.00030
       4 <- 23         0.00266
       4 <- 28         0.00125
       4 <- 37         0.00037
       4 <- 44        -0.00065
       4 <- 48         0.00038
       4 <- 52         0.00013
       5 <- 27        -0.00469
       5 <- 38        -0.00268
       5 <- 46         0.00028
       6 <-  9        -0.02817
       6 <- 18        -0.00363
       6 <- 23         0.00057
       6 <- 28        -0.00036
       6 <- 31        -0.00458
       6 <- 37         0.00209
       6 <- 44         0.00071
       6 <- 48         0.00057
       6 <- 52        -0.00125

 The electronic state is 1-A1.
 Alpha  occ. eigenvalues --  -19.17671 -10.33745  -0.89764  -0.71142  -0.49148
 Alpha  occ. eigenvalues --   -0.39415  -0.31101  -0.28764
 Alpha virt. eigenvalues --   -0.16736  -0.06002   0.00079   0.04053   0.06096
 Alpha virt. eigenvalues --    0.06662   0.11908   0.13512   0.18781   0.21084
 Alpha virt. eigenvalues --    0.23969   0.30377   0.38578   0.39825   0.50703

 Mulliken charges:
               1
     1  C   -0.091496
     2  H    0.190623
     3  H    0.190623
     4  O   -0.289751
 Sum of Mulliken charges =  -0.00000

 Dipole moment (field-independent basis, Debye):
    X=             -0.0000    Y=             -0.0000    Z=             -4.1048  Tot=              4.1048
 Quadrupole moment (field-independent basis, Debye-Ang):
   XX=            -12.9945   YY=            -12.0120   ZZ=            -10.7672
   XY=              0.0000   XZ=              0.0000   YZ=             -0.0000

 Normal termination of Gaussian 16 at Fri Sep 17 10:53:07 2021.
