 Gaussian 16, Revision C.01,
 Gaussian 16:  ES64L-G16RevC.01  3-Jul-2019

 ----------------------------------------
 #P wB97XD/6-311+G* NoSymm #P Field=Z+223
 ----------------------------------------

 -------
 TitleMe
 -------
 Symbolic Z-matrix:
 Charge =  1 Multiplicity = 1

                          Input orientation:
 ---------------------------------------------------------------------
 Center     Atomic      Atomic             Coordinates (Angstroms)
 Number     Number       Type             X           Y           Z
 ---------------------------------------------------------------------
      1          6           0        0.519300    1.233000   -0.031900
      2          6           0        1.944500    1.269200   -0.036700
      3          6           0        2.620400    0.092800   -0.025000
      4          6           0       -0.196000    0.030100    0.001000
      5          1           0       -0.020700    2.174200   -0.043400
      6          1           0        2.482800    2.208900   -0.036100
      7          1           0       -1.277700    0.039900    0.011700
      8          7           0        4.092100    0.095900    0.036600
      9          8           0        4.639300   -1.021700    0.144600
     10          8           0        4.664900    1.198400   -0.023300
     11          6           0        0.494300   -1.167100    0.021000
     12          1           0       -0.032500   -2.114900    0.054500
     13          6           0        1.962900   -1.216500   -0.021100
     14          1           0        2.443600   -1.963100    0.615100
     15         35           0        2.173000   -1.949100   -1.906200
 ---------------------------------------------------------------------

 SCF Done:  E(RwB97XD) =  -3010.55621237     A.U. after   21 cycles

 Alpha  occ. eigenvalues -- -483.27787 -62.82739 -56.62500 -56.61847 -56.61822
 Alpha  occ. eigenvalues --  -19.45737 -19.45730 -14.85092 -10.57921 -10.56064
 Alpha  occ. eigenvalues --  -10.55915 -10.55332 -10.52150 -10.51581  -8.98494
 Alpha  occ. eigenvalues --   -6.81348  -6.79225  -6.79148  -2.91208  -2.90665
 Alpha  occ. eigenvalues --   -2.90604  -2.88908  -2.88906  -1.49392  -1.32372
 Alpha  occ. eigenvalues --   -1.20952  -1.11577  -1.10614  -1.02393  -0.98580
 Alpha  occ. eigenvalues --   -0.93867  -0.89327  -0.84128  -0.80026  -0.79324
 Alpha  occ. eigenvalues --   -0.79031  -0.76760  -0.75454  -0.74301  -0.70139
 Alpha  occ. eigenvalues --   -0.67209  -0.66279  -0.61160  -0.58020  -0.56857
 Alpha  occ. eigenvalues --   -0.56095  -0.55401  -0.51957  -0.51118
 Alpha virt. eigenvalues --   -0.28341  -0.19607  -0.14210  -0.12877  -0.11375
 Alpha virt. eigenvalues --   -0.09497  -0.09289  -0.06392  -0.05319  -0.04477
 Alpha virt. eigenvalues --   -0.02495  -0.01230   0.00234   0.00617   0.01389

 Mulliken charges:
               1
     1  C   -0.169608
     2  C    0.248598
     3  C   -0.020581
     4  C   -0.342340
     5  H    0.344230
     6  H    0.349429
     7  H    0.327694
     8  N   -0.289108
     9  O    0.089047
    10  O    0.071036
    11  C   -0.254556
    12  H    0.351726
    13  C   -0.446464
    14  H    0.339231
    15  Br   0.401667
 Sum of Mulliken charges =   1.00000

 Dipole moment (field-independent basis, Debye):
    X=              3.1398    Y=             -1.8413    Z=             -4.8193  Tot=              6.0394
 Quadrupole moment (field-independent basis, Debye-Ang):
   XX=            -67.8927   YY=            -49.7275   ZZ=            -57.4290
   XY=             -4.8845   XZ=            -10.9371   YZ=              6.4069

 Normal termination of Gaussian 16 at Thu May  2 14:21:14 2024.
