 Gaussian 16, Revision C.01,
 Gaussian 16:  ES64L-G16RevC.01  3-Jul-2019

 ----------------------------------------
 #P wB97XD/6-311+G* NoSymm #P Field=Z-145
 ----------------------------------------

 -------
 TitleMe
 -------
 Symbolic Z-matrix:
 Charge =  1 Multiplicity = 1

                          Input orientation:
 ---------------------------------------------------------------------
 Center     Atomic      Atomic             Coordinates (Angstroms)
 Number     Number       Type             X           Y           Z
 ---------------------------------------------------------------------
      1          6           0        0.519300    1.233000   -0.031900
      2          6           0        1.944500    1.269200   -0.036700
      3          6           0        2.620400    0.092800   -0.025000
      4          6           0       -0.196000    0.030100    0.001000
      5          1           0       -0.020700    2.174200   -0.043400
      6          1           0        2.482800    2.208900   -0.036100
      7          1           0       -1.277700    0.039900    0.011700
      8          7           0        4.092100    0.095900    0.036600
      9          8           0        4.639300   -1.021700    0.144600
     10          8           0        4.664900    1.198400   -0.023300
     11          6           0        0.494300   -1.167100    0.021000
     12          1           0       -0.032500   -2.114900    0.054500
     13          6           0        1.962900   -1.216500   -0.021100
     14          1           0        2.443600   -1.963100    0.615100
     15         35           0        2.173000   -1.949100   -1.906200
 ---------------------------------------------------------------------

 SCF Done:  E(RwB97XD) =  -3010.53503575     A.U. after   20 cycles

 Alpha  occ. eigenvalues -- -483.33576 -62.88629 -56.68281 -56.67768 -56.67762
 Alpha  occ. eigenvalues --  -19.46605 -19.46558 -14.86044 -10.60020 -10.59385
 Alpha  occ. eigenvalues --  -10.58136 -10.57945 -10.54167 -10.53487  -9.04457
 Alpha  occ. eigenvalues --   -6.87024  -6.85326  -6.85310  -2.96955  -2.96503
 Alpha  occ. eigenvalues --   -2.96488  -2.95129  -2.95129  -1.50274  -1.33223
 Alpha  occ. eigenvalues --   -1.23396  -1.14109  -1.13302  -1.06473  -1.01223
 Alpha  occ. eigenvalues --   -0.96241  -0.91354  -0.85496  -0.81520  -0.80831
 Alpha  occ. eigenvalues --   -0.80560  -0.78633  -0.76682  -0.76351  -0.73264
 Alpha  occ. eigenvalues --   -0.69367  -0.68385  -0.64679  -0.61481  -0.59129
 Alpha  occ. eigenvalues --   -0.57797  -0.57371  -0.56325  -0.55934
 Alpha virt. eigenvalues --   -0.31255  -0.20995  -0.17747  -0.13766  -0.13335
 Alpha virt. eigenvalues --   -0.10048  -0.08830  -0.07632  -0.06563  -0.05403
 Alpha virt. eigenvalues --   -0.04574  -0.03730  -0.02325  -0.01442  -0.01351

 Mulliken charges:
               1
     1  C   -0.072161
     2  C    0.122880
     3  C   -0.093480
     4  C   -0.348900
     5  H    0.349642
     6  H    0.354663
     7  H    0.336748
     8  N   -0.212370
     9  O    0.090533
    10  O    0.073253
    11  C   -0.160512
    12  H    0.362755
    13  C   -0.300490
    14  H    0.457882
    15  Br   0.039557
 Sum of Mulliken charges =   1.00000

 Dipole moment (field-independent basis, Debye):
    X=              2.5864    Y=             -0.3371    Z=              1.8497  Tot=              3.1976
 Quadrupole moment (field-independent basis, Debye-Ang):
   XX=            -67.8015   YY=            -52.0698   ZZ=            -65.6932
   XY=             -1.8394   XZ=              2.7985   YZ=             -0.0876

 Normal termination of Gaussian 16 at Thu May  2 14:20:11 2024.
